Title
82320
    1SAPS     N    1   2.018   5.832  10.422  0.0364 -0.0258  0.7665
    1SAPS   HN1    2   1.915   5.845  10.419  0.0144 -0.0742  1.2578
    1SAPS   HN2    3   2.070   5.910  10.377  0.0246 -0.6874 -0.4583
    1SAPS   HN3    4   2.032   5.745  10.366 -1.2661 -0.0519  0.4587
    1SAPS   C12    5   2.054   5.805  10.563 -0.3470  0.9786 -0.3000
    1SAPS  H12A    6   2.052   5.899  10.616  0.0624  0.7773  0.0742
    1SAPS   C13    7   1.957   5.716  10.630  0.2314  0.3993 -0.6605
    1SAPS  O13A    8   1.855   5.670  10.576 -0.0821 -0.0682  0.0222
    1SAPS  O13B    9   1.987   5.682  10.745  0.3494 -0.2284 -0.0941
    1SAPS   C11   10   2.200   5.735  10.569  0.1818  0.1081 -0.3369
    1SAPS  H11A   11   2.195   5.630  10.531 -3.6605 -0.4922  1.3940
    1SAPS  H11B   12   2.223   5.732  10.678 -1.6153  4.0934  0.3024
    1SAPS     P   13   2.450   5.799  10.515  0.1618  0.2199 -0.1541
    1SAPS   O13   14   2.526   5.887  10.422 -0.1325 -0.2831 -0.4908
    1SAPS   O14   15   2.468   5.824  10.662 -1.0095  0.2407 -0.0837
    1SAPS   O12   16   2.292   5.814  10.498  0.3174  0.2396 -0.1282
    1SAPS   O11   17   2.484   5.656  10.478 -0.0206  0.4856 -0.0638
    1SAPS    C1   18   2.439   5.596  10.356  0.6467 -0.8323  0.0535
    1SAPS    HA   19   2.416   5.490  10.380 -1.4423 -0.5414 -0.4021
    1SAPS    HB   20   2.355   5.652  10.308  1.5125  2.4053  2.0243
    1SAPS    C2   21   2.549   5.608  10.256  0.3463 -0.3918  0.5163
    1SAPS    HS   22   2.598   5.708  10.255 -1.8913  0.7560 -0.1909
    1SAPS   O21   23   2.485   5.597  10.124 -0.8005 -0.3158  0.4075
    1SAPS   C21   24   2.443   5.483  10.085  0.2660  0.2737  0.2917
    1SAPS   O22   25   2.440   5.379  10.141 -0.2745 -0.0290 -0.5192
    1SAPS   C22   26   2.387   5.483   9.944  0.2253  0.7033  0.1058
    1SAPS   H2R   27   2.462   5.524   9.873 -0.5627  2.8745  0.4336
    1SAPS   H2S   28   2.363   5.379   9.912  1.6269 -0.0649  1.4290
    1SAPS    C3   29   2.660   5.501  10.283  0.2607 -0.1191 -0.3343
    1SAPS    HX   30   2.640   5.392  10.270 -2.1343  0.3080 -0.7482
    1SAPS    HY   31   2.679   5.519  10.391  0.3506  2.2904 -0.6991
    1SAPS   O31   32   2.774   5.542  10.208 -0.1766  0.4868  0.3990
    1SAPS   C31   33   2.899   5.541  10.258  0.4267  0.6455 -0.7214
    1SAPS   O32   34   2.925   5.485  10.363  0.3880  0.1604 -0.1594
    1SAPS   C32   35   2.996   5.624  10.177 -0.0901 -0.6049 -0.5067
    1SAPS   H2X   36   2.932   5.712  10.158 -0.3040 -0.0730  2.2104
    1SAPS   H2Y   37   3.027   5.568  10.086 -1.2462 -0.5853 -0.9346
    1SAPS   C23   38   2.255   5.559   9.937  0.2595 -0.5266  0.2386
    1SAPS   H3R   39   2.271   5.655   9.992 -1.0649  0.6650 -1.3625
    1SAPS   H3S   40   2.177   5.514  10.003 -0.5055  0.2405 -0.1239
    1SAPS   C24   41   2.203   5.587   9.792  0.5010 -0.8618 -0.0605
    1SAPS   H4R   42   2.181   5.484   9.758  1.1432 -0.9501 -0.2148
    1SAPS   H4S   43   2.288   5.621   9.728  0.7798 -0.7459  0.3679
    1SAPS   C25   44   2.086   5.671   9.751 -0.1862 -0.9262 -0.2526
    1SAPS   H5R   45   2.035   5.722   9.834 -2.2662 -2.8186 -0.2748
    1SAPS   C26   46   2.045   5.668   9.631  0.4396 -0.3676  0.4442
    1SAPS   H6R   47   1.954   5.726   9.607  1.6531  1.0958 -0.8192
    1SAPS   C27   48   2.096   5.586   9.514  0.0508  0.5540  0.4054
    1SAPS   H7R   49   2.184   5.522   9.538 -0.1245 -0.2502 -0.9667
    1SAPS   H7S   50   2.121   5.656   9.431 -0.4727 -2.3065 -2.3745
    1SAPS   C28   51   1.986   5.506   9.452  0.1053 -0.0502 -0.5133
    1SAPS   H8R   52   1.890   5.494   9.503  0.4815 -0.2020  0.1647
    1SAPS   C29   53   1.996   5.443   9.334  0.0207  0.1477 -0.4313
    1SAPS   H9R   54   1.906   5.397   9.290  0.5670 -1.6200  0.2104
    1SAPS  C210   55   2.108   5.440   9.232  0.3441  0.4711 -0.1817
    1SAPS  H10R   56   2.194   5.499   9.272 -0.7879  0.9416  1.6543
    1SAPS  H10S   57   2.083   5.506   9.146 -0.8766  0.4846  0.1718
    1SAPS  C211   58   2.149   5.309   9.182  0.0591  0.8066  0.4602
    1SAPS  H11R   59   2.080   5.227   9.206 -1.0303  2.1911  2.3728
    1SAPS  C212   60   2.262   5.288   9.108 -0.2382 -0.1325 -0.6300
    1SAPS  H12R   61   2.284   5.185   9.078 -1.3003 -0.6349  0.2302
    1SAPS  C213   62   2.370   5.383   9.062 -0.2203  0.0763  0.0820
    1SAPS  H13R   63   2.460   5.344   9.113 -0.4037 -0.6411 -0.1245
    1SAPS  H13S   64   2.360   5.484   9.106  0.4304  0.5609 -0.8288
    1SAPS  C214   65   2.397   5.367   8.909 -0.0914  0.4527 -0.1038
    1SAPS  H14R   66   2.378   5.266   8.869 -4.1827  0.6548  0.8915
    1SAPS  C215   67   2.443   5.464   8.822  0.1465 -0.0334 -0.3036
    1SAPS  H15R   68   2.455   5.452   8.714 -1.9794  2.1759 -0.8856
    1SAPS  C216   69   2.466   5.607   8.863  0.0277 -0.6313  0.0223
    1SAPS  H16R   70   2.575   5.620   8.880 -0.3087 -0.7936  2.7059
    1SAPS  H16S   71   2.434   5.626   8.968  2.9970  2.3167  0.5721
    1SAPS  C217   72   2.422   5.726   8.778 -0.0344  0.4892 -0.3982
    1SAPS  H17R   73   2.468   5.818   8.820 -0.9472  1.5994 -1.7354
    1SAPS  H17S   74   2.315   5.752   8.763  0.0159  0.2881 -1.1644
    1SAPS  C218   75   2.466   5.702   8.629 -1.0097  0.0950  0.8122
    1SAPS  H18R   76   2.409   5.625   8.574  0.3943 -1.5498  1.5707
    1SAPS  H18S   77   2.571   5.667   8.637 -1.2530 -0.6522  0.8204
    1SAPS  C219   78   2.450   5.832   8.545 -0.7848 -0.4851  0.1332
    1SAPS  H19R   79   2.346   5.872   8.542 -0.9157 -0.8247 -0.0105
    1SAPS  H19S   80   2.479   5.807   8.441  1.7869 -0.1846  0.7063
    1SAPS  C220   81   2.541   5.949   8.592  0.6663 -0.8353  0.4133
    1SAPS  H20R   82   2.562   5.953   8.701 -0.2335 -0.2850  0.5753
    1SAPS  H20S   83   2.511   6.044   8.545  2.3405  0.0340  0.9902
    1SAPS  H20T   84   2.643   5.928   8.554  0.7296  1.5285 -0.8907
    1SAPS   C33   85   3.118   5.669  10.258 -0.2361 -0.1459 -0.0941
    1SAPS   H3X   86   3.199   5.593  10.267  1.0125  1.1294 -0.2379
    1SAPS   H3Y   87   3.080   5.698  10.358  1.5045 -0.7710  0.8014
    1SAPS   C34   88   3.168   5.798  10.196 -0.6021  0.6339  0.0072
    1SAPS   H4X   89   3.241   5.851  10.261  0.8610 -2.4201  1.0695
    1SAPS   H4Y   90   3.080   5.860  10.169 -1.9794 -1.5502 -0.8312
    1SAPS   C35   91   3.239   5.763  10.059 -0.2581  0.2123 -0.2590
    1SAPS   H5X   92   3.189   5.691   9.990  0.4412  0.8587 -1.4907
    1SAPS   H5Y   93   3.340   5.725  10.083 -0.1654  0.2804 -0.5334
    1SAPS   C36   94   3.259   5.888   9.972 -0.0681 -0.4316  0.4439
    1SAPS   H6X   95   3.364   5.924   9.972 -0.4656  0.7678  0.5176
    1SAPS   H6Y   96   3.193   5.973   9.997  1.1603 -0.0062  2.5195
    1SAPS   C37   97   3.227   5.851   9.821 -0.0847 -0.3238 -1.0459
    1SAPS   H7X   98   3.133   5.793   9.813 -0.3595  0.0071 -0.3529
    1SAPS   H7Y   99   3.308   5.784   9.785  0.5958  0.5507 -1.1854
    1SAPS   C38  100   3.208   5.971   9.722 -0.6852 -0.3509 -0.4996
    1SAPS   H8X  101   3.301   6.032   9.717 -0.3112 -0.9304 -0.7396
    1SAPS   H8Y  102   3.124   6.033   9.758 -0.4258  0.0912 -0.6475
    1SAPS   C39  103   3.181   5.922   9.582  0.9028  0.0311 -0.2622
    1SAPS   H9X  104   3.112   5.835   9.587  0.8437  0.1244  1.0388
    1SAPS   H9Y  105   3.277   5.885   9.540  0.2491 -1.2044 -0.7204
    1SAPS  C310  106   3.122   6.029   9.496 -0.9670  0.2465 -0.2363
    1SAPS  H10X  107   3.186   6.119   9.481 -0.0717 -0.5964 -1.6177
    1SAPS  H10Y  108   3.029   6.066   9.545 -1.8030  0.2144 -1.7332
    1SAPS  C311  109   3.091   5.976   9.357  0.6892  0.6158  0.4165
    1SAPS  H11X  110   3.180   5.929   9.310 -0.7240 -0.9041 -0.8354
    1SAPS  H11Y  111   3.070   6.058   9.285  0.5279  0.6861  0.5441
    1SAPS  C312  112   2.983   5.871   9.360 -0.1843 -0.9499  0.2707
    1SAPS  H12X  113   2.890   5.917   9.400 -1.3873 -1.8404 -1.3619
    1SAPS  H12Y  114   3.015   5.785   9.422 -1.6433 -1.0057  0.9945
    1SAPS  C313  115   2.953   5.811   9.217 -0.1128  0.2536  0.5715
    1SAPS  H13X  116   2.898   5.715   9.223 -2.6537  1.5393 -0.6055
    1SAPS  H13Y  117   3.049   5.796   9.163  0.7105 -0.0330  2.0412
    1SAPS  C314  118   2.870   5.913   9.137 -0.3088 -0.0316  0.8164
    1SAPS  H14X  119   2.912   6.013   9.159 -0.0542  0.3473 -1.2088
    1SAPS  H14Y  120   2.762   5.908   9.166 -0.6755 -0.6487 -0.5651
    1SAPS  C315  121   2.880   5.896   8.983  0.0701 -0.4684 -0.0055
    1SAPS  H15X  122   2.985   5.916   8.954  0.5032 -2.3442  0.1345
    1SAPS  H15Y  123   2.814   5.980   8.952  0.1465  0.3397  1.8569
    1SAPS  C316  124   2.821   5.772   8.920  0.2606  0.0235  0.5640
    1SAPS  H16X  125   2.712   5.775   8.940  0.2915 -3.9999  2.2893
    1SAPS  H16Y  126   2.869   5.683   8.967  0.4897 -0.9177 -1.3577
    1SAPS  C317  127   2.837   5.756   8.770 -0.0295 -0.5001  0.9664
    1SAPS  H17X  128   2.782   5.835   8.715 -0.7907 -1.5632  0.1603
    1SAPS  H17Y  129   2.794   5.661   8.730  0.9256  0.1911 -1.8973
    1SAPS  C318  130   2.984   5.745   8.723  0.0476  0.2435  0.3091
    1SAPS  H18X  131   2.993   5.692   8.626 -1.6281 -1.6880  1.1485
    1SAPS  H18Y  132   3.044   5.704   8.806 -0.9480 -2.0104 -0.0233
    1SAPS  H18Z  133   3.015   5.851   8.706 -0.2215  0.2203 -0.3728
    2SAPS     N  134   0.865   6.569  10.846  0.4642 -0.1626 -0.2710
    2SAPS   HN1  135   0.968   6.575  10.840  0.5477  2.7991  2.1520
    2SAPS   HN2  136   0.811   6.640  10.793  2.2287  2.5029  1.2500
    2SAPS   HN3  137   0.847   6.586  10.947  2.5293 -1.0503  0.2980
    2SAPS   C12  138   0.822   6.433  10.834 -0.4856  0.1240  0.3439
    2SAPS  H12A  139   0.833   6.391  10.735 -0.0207  0.6277  0.1772
    2SAPS   C13  140   0.911   6.337  10.920 -0.3101 -0.6164  0.0341
    2SAPS  O13A  141   1.004   6.383  10.989  0.2509 -1.0508  0.2162
    2SAPS  O13B  142   0.880   6.215  10.927  0.1473  0.3183 -0.3055
    2SAPS   C11  143   0.675   6.423  10.889  0.0567  0.1102 -0.1954
    2SAPS  H11A  144   0.686   6.461  10.993  0.0176 -2.8525  1.0002
    2SAPS  H11B  145   0.631   6.322  10.907 -1.3260  0.4421 -1.5113
    2SAPS     P  146   0.483   6.473  10.709 -0.0345 -0.0465 -0.4081
    2SAPS   O13  147   0.438   6.334  10.748 -0.1344 -0.3400 -0.0105
    2SAPS   O14  148   0.386   6.581  10.689  0.1967 -0.2248 -0.1332
    2SAPS   O12  149   0.591   6.511  10.815  0.1647  0.4907 -0.4349
    2SAPS   O11  150   0.566   6.448  10.578 -0.1219 -0.2779 -0.0165
    2SAPS    C1  151   0.659   6.546  10.518  0.2204  0.5654 -0.4160
    2SAPS    HA  152   0.634   6.649  10.550 -0.5384  0.2422  0.0496
    2SAPS    HB  153   0.754   6.522  10.570 -0.1261 -1.4607 -0.5966
    2SAPS    C2  154   0.679   6.519  10.367 -0.0938  0.0375  0.2380
    2SAPS    HS  155   0.757   6.594  10.344 -0.3045  0.2485  0.2161
    2SAPS   O21  156   0.563   6.543  10.286  0.1506  0.3245 -0.2306
    2SAPS   C21  157   0.488   6.653  10.300 -0.2985 -0.1593 -0.5165
    2SAPS   O22  158   0.520   6.755  10.360  0.3439  0.2970 -0.6902
    2SAPS   C22  159   0.365   6.642  10.221 -0.1140  0.3419  0.6123
    2SAPS   H2R  160   0.354   6.540  10.179  0.5977  0.1587  0.8562
    2SAPS   H2S  161   0.283   6.665  10.293 -1.4132 -0.1786 -0.6291
    2SAPS    C3  162   0.718   6.372  10.336 -0.2492  0.1669 -0.6171
    2SAPS    HX  163   0.649   6.298  10.380  2.4572 -0.7884  2.4379
    2SAPS    HY  164   0.812   6.345  10.390 -0.3481  2.4915  0.8354
    2SAPS   O31  165   0.732   6.337  10.189  0.5696  0.5735 -0.1555
    2SAPS   C31  166   0.843   6.368  10.133  1.0135  0.0912 -0.4973
    2SAPS   O32  167   0.942   6.418  10.181  0.2972  0.2608 -0.1290
    2SAPS   C32  168   0.824   6.346   9.983 -0.2016  0.5696  0.1464
    2SAPS   H2X  169   0.716   6.329   9.961 -0.8164  2.8164  1.1427
    2SAPS   H2Y  170   0.883   6.258   9.951 -2.4663 -0.4806 -1.3678
    2SAPS   C23  171   0.365   6.732  10.094  0.5846 -0.0588 -0.2113
    2SAPS   H3R  172   0.363   6.840  10.120  0.8334  0.2521 -1.4110
    2SAPS   H3S  173   0.270   6.710  10.041 -0.1488  0.5660  0.8034
    2SAPS   C24  174   0.483   6.704  10.003  0.2918 -1.0095 -0.1542
    2SAPS   H4R  175   0.572   6.734  10.063 -0.1061 -2.6094  1.3344
    2SAPS   H4S  176   0.478   6.776   9.919  0.1456 -0.1596  0.5630
    2SAPS   C25  177   0.501   6.563   9.950  0.4912  0.1339  0.0815
    2SAPS   H5R  178   0.568   6.494  10.004  2.3506  0.0101 -2.2017
    2SAPS   C26  179   0.452   6.516   9.835  0.2521  0.5945  0.1889
    2SAPS   H6R  180   0.481   6.418   9.795 -0.8911  0.9427 -1.6040
    2SAPS   C27  181   0.356   6.594   9.752  0.8356  0.3946  0.6729
    2SAPS   H7R  182   0.315   6.684   9.804 -3.5007 -1.4194  0.8239
    2SAPS   H7S  183   0.270   6.526   9.735  0.5386  0.6035  1.3043
    2SAPS   C28  184   0.436   6.642   9.625 -0.1005  0.1705 -0.2415
    2SAPS   H8R  185   0.542   6.669   9.639  0.2641 -0.5820 -1.4331
    2SAPS   C29  186   0.378   6.657   9.505 -0.1569 -0.1815  0.4610
    2SAPS   H9R  187   0.434   6.693   9.418 -1.0956 -1.8591 -0.9158
    2SAPS  C210  188   0.228   6.652   9.472  0.2993  0.1115  0.5685
    2SAPS  H10R  189   0.192   6.753   9.441 -0.4945 -0.8323 -1.8136
    2SAPS  H10S  190   0.167   6.614   9.556  1.3242 -2.5639  0.1983
    2SAPS  C211  191   0.208   6.552   9.363  0.5476  0.0885  0.3108
    2SAPS  H11R  192   0.219   6.447   9.394 -0.4011  0.2335  1.1921
    2SAPS  C212  193   0.217   6.580   9.234  0.0311  0.6647 -0.2637
    2SAPS  H12R  194   0.192   6.492   9.174  1.4038 -1.0270  1.5395
    2SAPS  C213  195   0.233   6.710   9.159  0.2766  0.0341 -0.2738
    2SAPS  H13R  196   0.294   6.775   9.226  1.2682 -0.3030 -0.8289
    2SAPS  H13S  197   0.131   6.753   9.149  0.5672  0.5620 -1.0335
    2SAPS  C214  198   0.300   6.693   9.029  0.2746 -0.0401 -0.2315
    2SAPS  H14R  199   0.399   6.646   9.029  0.2089 -0.2528 -2.0020
    2SAPS  C215  200   0.255   6.712   8.907  0.3850  0.3232 -0.0719
    2SAPS  H15R  201   0.321   6.692   8.821 -0.2954 -0.7505 -0.3548
    2SAPS  C216  202   0.121   6.764   8.864  0.8624 -0.1710  0.0563
    2SAPS  H16R  203   0.135   6.836   8.780  1.0316  0.1431  0.3506
    2SAPS  H16S  204   0.082   6.822   8.951  2.0539 -0.1019  0.5644
    2SAPS  C217  205   0.012   6.660   8.826 -0.5995  0.1998 -0.1316
    2SAPS  H17R  206  -0.085   6.704   8.797  0.1400  2.3876  0.5409
    2SAPS  H17S  207  -0.007   6.606   8.921  0.6336  1.5979  0.9637
    2SAPS  C218  208   0.057   6.556   8.721  0.2850  0.5020 -0.1084
    2SAPS  H18R  209   0.155   6.516   8.755  1.0181  3.1599  1.1714
    2SAPS  H18S  210   0.069   6.592   8.616 -1.8454  0.8317 -0.2638
    2SAPS  C219  211  -0.059   6.451   8.706 -0.1942 -0.3533 -0.8780
    2SAPS  H19R  212  -0.157   6.500   8.688  0.6083  1.0841 -1.4873
    2SAPS  H19S  213  -0.081   6.407   8.806  0.1555  0.9603 -0.2016
    2SAPS  C220  214  -0.033   6.347   8.597 -0.1988 -0.3284 -0.7196
    2SAPS  H20R  215  -0.080   6.363   8.497 -0.3659  0.0603 -0.5803
    2SAPS  H20S  216  -0.073   6.249   8.630  2.7052 -1.5741 -0.5543
    2SAPS  H20T  217   0.076   6.339   8.576 -0.3799  0.5758 -2.1258
    2SAPS   C33  218   0.874   6.464   9.901  0.9790  0.2482  0.2893
    2SAPS   H3X  219   0.976   6.496   9.932  1.8244 -2.9459  1.1978
    2SAPS   H3Y  220   0.802   6.547   9.915 -0.1298 -0.9283  1.8610
    2SAPS   C34  221   0.870   6.429   9.747 -0.2245  0.6309 -0.0499
    2SAPS   H4X  222   0.775   6.372   9.738  0.6791 -1.6909  3.1444
    2SAPS   H4Y  223   0.958   6.368   9.718  0.5884  0.9297  1.7223
    2SAPS   C35  224   0.852   6.558   9.666 -0.1268  0.3472 -0.1089
    2SAPS   H5X  225   0.936   6.627   9.690 -0.6381  0.1372  2.5677
    2SAPS   H5Y  226   0.768   6.615   9.712 -1.9357 -1.7076 -0.7271
    2SAPS   C36  227   0.834   6.542   9.512 -0.1184 -0.9242  0.4030
    2SAPS   H6X  228   0.755   6.471   9.479  0.6127 -0.9883 -1.3153
    2SAPS   H6Y  229   0.926   6.500   9.467 -0.2924  1.2227 -2.2534
    2SAPS   C37  230   0.821   6.674   9.430  0.4489  0.0828 -0.0507
    2SAPS   H7X  231   0.909   6.741   9.437  1.0102 -0.7240  0.8823
    2SAPS   H7Y  232   0.731   6.724   9.473  1.1453  2.8550 -1.5914
    2SAPS   C38  233   0.811   6.657   9.277 -0.5340  0.5845 -0.0228
    2SAPS   H8X  234   0.736   6.578   9.256 -0.7998  1.0196 -0.7308
    2SAPS   H8Y  235   0.904   6.617   9.232  0.5352  0.3054  2.2922
    2SAPS   C39  236   0.780   6.782   9.203  0.2712  0.1402 -0.4257
    2SAPS   H9X  237   0.871   6.846   9.204  1.0501 -0.9242 -1.0165
    2SAPS   H9Y  238   0.697   6.831   9.260 -0.4248 -1.7570  0.2555
    2SAPS  C310  239   0.730   6.754   9.059 -0.0791 -0.5173 -0.1595
    2SAPS  H10X  240   0.644   6.683   9.060  0.3382 -1.0185  0.2859
    2SAPS  H10Y  241   0.814   6.708   9.003  0.5971  1.0212 -0.4477
    2SAPS  C311  242   0.670   6.873   8.986 -1.1191 -0.9582  0.4581
    2SAPS  H11X  243   0.730   6.967   8.990 -1.2579 -0.8413 -0.1716
    2SAPS  H11Y  244   0.571   6.908   9.023 -0.4242  1.0225  0.5875
    2SAPS  C312  245   0.670   6.836   8.835 -0.2615 -0.4911  0.0470
    2SAPS  H12X  246   0.631   6.732   8.832  1.0438 -1.0391  1.0503
    2SAPS  H12Y  247   0.772   6.817   8.794 -0.1733 -2.5361  1.1004
    2SAPS  C313  248   0.592   6.930   8.753  0.1874  0.3286  0.5949
    2SAPS  H13X  249   0.496   6.945   8.806 -0.1276 -1.3170  0.5324
    2SAPS  H13Y  250   0.563   6.881   8.658 -1.5445  1.6272  0.4129
    2SAPS  C314  251   0.657   7.063   8.708 -0.5201  0.3304 -0.2313
    2SAPS  H14X  252   0.754   7.045   8.657 -1.1307 -0.6438 -1.1008
    2SAPS  H14Y  253   0.683   7.109   8.806 -1.0643  0.3496 -0.0916
    2SAPS  C315  254   0.554   7.137   8.619  0.0299  0.0334 -0.0239
    2SAPS  H15X  255   0.461   7.117   8.676  1.2583  1.5616  2.7425
    2SAPS  H15Y  256   0.555   7.088   8.519  0.9381 -1.7261  0.7969
    2SAPS  C316  257   0.589   7.286   8.610 -0.2837  0.4377 -0.4605
    2SAPS  H16X  258   0.505   7.338   8.558 -0.0040  0.5015 -0.8500
    2SAPS  H16Y  259   0.684   7.285   8.553  0.2511 -2.7000  0.3077
    2SAPS  C317  260   0.597   7.358   8.745  0.1487  0.0070 -0.8566
    2SAPS  H17X  261   0.690   7.334   8.800 -0.2312  0.1218 -0.1603
    2SAPS  H17Y  262   0.518   7.311   8.807  0.0462 -1.2594 -1.9066
    2SAPS  C318  263   0.577   7.508   8.739 -0.0177 -0.6684  0.2545
    2SAPS  H18X  264   0.473   7.542   8.722 -0.1180 -1.8350 -1.6657
    2SAPS  H18Y  265   0.647   7.555   8.667  2.2608 -2.4225  1.1841
    2SAPS  H18Z  266   0.611   7.554   8.835  1.3498 -0.2179 -0.4071
    3SAPS     N  267   1.156   4.659  10.898 -0.0756  0.3982 -0.0113
    3SAPS   HN1  268   1.185   4.741  10.955 -0.6949  0.1212  0.7312
    3SAPS   HN2  269   1.232   4.590  10.883 -0.7109 -0.7857  1.8433
    3SAPS   HN3  270   1.130   4.689  10.802 -1.9755 -0.4447  0.1951
    3SAPS   C12  271   1.045   4.590  10.969 -0.3021  0.4303  0.3364
    3SAPS  H12A  272   1.081   4.511  11.032 -0.8442 -1.2376 -1.3507
    3SAPS   C13  273   0.946   4.670  11.055 -0.5098 -0.0968 -0.4554
    3SAPS  O13A  274   0.986   4.786  11.093 -0.3724  0.2381 -0.0993
    3SAPS  O13B  275   0.836   4.625  11.090 -0.0945 -0.5580 -0.2588
    3SAPS   C11  276   0.965   4.515  10.853  0.3922 -0.2307 -0.0304
    3SAPS  H11A  277   0.915   4.593  10.791  3.5486  1.7940 -0.2321
    3SAPS  H11B  278   0.875   4.462  10.891  0.3328 -0.6206 -0.6941
    3SAPS     P  279   1.057   4.272  10.819  0.0371  0.3977 -0.0768
    3SAPS   O13  280   1.125   4.200  10.717  0.4248 -0.6057  0.5627
    3SAPS   O14  281   1.108   4.254  10.957  0.1034 -0.1742  0.4151
    3SAPS   O12  282   1.062   4.428  10.786  0.1383  0.0588 -0.1293
    3SAPS   O11  283   0.904   4.232  10.820 -0.5478 -0.0073  0.9303
    3SAPS    C1  284   0.857   4.137  10.726 -0.3553  0.4037  0.6728
    3SAPS    HA  285   0.929   4.054  10.715  1.2999  1.8323  0.3286
    3SAPS    HB  286   0.762   4.091  10.762 -0.3027 -1.6296 -1.4887
    3SAPS    C2  287   0.826   4.195  10.586  0.6476  0.0079 -0.1965
    3SAPS    HS  288   0.919   4.243  10.550 -0.3971  1.1071 -1.5434
    3SAPS   O21  289   0.715   4.290  10.587  0.1167 -0.0278  0.2762
    3SAPS   C21  290   0.732   4.394  10.500 -0.3709  0.4212  0.1939
    3SAPS   O22  291   0.840   4.420  10.449 -0.1398 -0.5531  0.3459
    3SAPS   C22  292   0.598   4.463  10.476  0.2831  0.2490  0.1632
    3SAPS   H2R  293   0.521   4.387  10.453 -0.0114  1.0718 -1.8298
    3SAPS   H2S  294   0.576   4.505  10.577 -0.4650 -1.2758  0.6605
    3SAPS    C3  295   0.797   4.082  10.482 -0.3105 -0.0524 -0.2414
    3SAPS    HX  296   0.717   4.014  10.518 -0.0312 -1.3417 -1.9229
    3SAPS    HY  297   0.893   4.026  10.477 -1.1007 -1.5855  0.8407
    3SAPS   O31  298   0.748   4.128  10.359 -0.5785 -0.7389  0.0622
    3SAPS   C31  299   0.834   4.177  10.267  0.6489 -0.4345  0.2564
    3SAPS   O32  300   0.951   4.193  10.284 -0.1623  0.2328 -0.8489
    3SAPS   C32  301   0.755   4.215  10.139  0.1060 -0.4607  0.3100
    3SAPS   H2X  302   0.659   4.260  10.170  1.9008  0.9816  4.5076
    3SAPS   H2Y  303   0.736   4.120  10.085 -0.7292 -0.2009  0.1392
    3SAPS   C23  304   0.601   4.576  10.365  0.3159  0.3500 -0.3331
    3SAPS   H3R  305   0.648   4.549  10.269  0.0131 -1.7648  0.0690
    3SAPS   H3S  306   0.665   4.655  10.409  1.3689  0.1402 -1.4421
    3SAPS   C24  307   0.459   4.635  10.329 -0.1281  0.2472  0.1052
    3SAPS   H4R  308   0.479   4.730  10.275  2.1938  0.4345  1.1822
    3SAPS   H4S  309   0.413   4.676  10.421  0.2490  0.8072  0.0453
    3SAPS   C25  310   0.371   4.531  10.273  1.1765  0.0794  0.2022
    3SAPS   H5R  311   0.367   4.431  10.317  2.7385 -0.2328 -0.2958
    3SAPS   C26  312   0.301   4.548  10.158  0.0711  0.5418 -0.1113
    3SAPS   H6R  313   0.237   4.466  10.120 -0.0313  0.3526  0.4502
    3SAPS   C27  314   0.316   4.669  10.070 -0.7193  0.8479 -0.0868
    3SAPS   H7R  315   0.412   4.662  10.015 -0.5996  0.6129  0.1542
    3SAPS   H7S  316   0.312   4.766  10.125 -0.2685  1.0376 -0.3838
    3SAPS   C28  317   0.200   4.667   9.973 -0.6765  0.9472 -1.2047
    3SAPS   H8R  318   0.103   4.642  10.019  0.7111  1.0155  2.0482
    3SAPS   C29  319   0.214   4.704   9.846 -0.5665 -0.0838  0.2106
    3SAPS   H9R  320   0.125   4.691   9.783  0.6505  0.4011 -1.6997
    3SAPS  C210  321   0.335   4.752   9.769 -0.9154  1.0506  0.2241
    3SAPS  H10R  322   0.408   4.799   9.838  0.7905 -0.4003 -0.5144
    3SAPS  H10S  323   0.304   4.832   9.699 -0.5143  1.5036  0.5562
    3SAPS  C211  324   0.401   4.642   9.700  0.4372  0.8399 -0.4159
    3SAPS  H11R  325   0.453   4.570   9.765  0.0085 -0.5046 -1.5229
    3SAPS  C212  326   0.405   4.619   9.568  0.3228 -0.1290 -0.1620
    3SAPS  H12R  327   0.453   4.524   9.539 -0.6634 -0.1253 -1.9872
    3SAPS  C213  328   0.336   4.699   9.464 -0.6428  0.0502  0.2816
    3SAPS  H13R  329   0.255   4.754   9.515 -0.0485  0.2310  1.0452
    3SAPS  H13S  330   0.276   4.633   9.398  0.3870 -1.6520  0.9750
    3SAPS  C214  331   0.423   4.808   9.408 -0.3848  0.4824 -0.0689
    3SAPS  H14R  332   0.481   4.883   9.464 -0.7588  3.1392 -2.9252
    3SAPS  C215  333   0.435   4.829   9.273  0.1343  0.0352  0.3163
    3SAPS  H15R  334   0.505   4.906   9.240  1.1402 -0.9758  0.0567
    3SAPS  C216  335   0.373   4.759   9.157 -0.2199 -0.0380 -0.3283
    3SAPS  H16R  336   0.265   4.784   9.159 -0.0961  0.4855  0.3961
    3SAPS  H16S  337   0.397   4.652   9.177  1.7897  0.4279 -0.0510
    3SAPS  C217  338   0.424   4.791   9.017  0.4745 -0.3471  0.0179
    3SAPS  H17R  339   0.535   4.783   9.021  0.3732 -3.6050 -1.1095
    3SAPS  H17S  340   0.411   4.901   9.009  0.5661 -0.0104  3.1581
    3SAPS  C218  341   0.357   4.711   8.904  0.0206 -0.1238  0.4790
    3SAPS  H18R  342   0.250   4.741   8.915  0.7413  2.4114  1.1725
    3SAPS  H18S  343   0.379   4.602   8.905  1.8721  0.2270  2.0121
    3SAPS  C219  344   0.407   4.755   8.765  0.8476  0.5552 -0.3084
    3SAPS  H19R  345   0.389   4.864   8.755 -1.7578  0.1927 -0.1520
    3SAPS  H19S  346   0.340   4.714   8.687 -0.3521  1.0231  0.4586
    3SAPS  C220  347   0.547   4.706   8.730 -0.1820  0.1696 -0.1761
    3SAPS  H20R  348   0.569   4.608   8.776 -2.1353 -0.3370 -0.2339
    3SAPS  H20S  349   0.626   4.776   8.765 -1.1172  0.8178  0.6870
    3SAPS  H20T  350   0.565   4.688   8.622  0.6924  0.0011 -0.0119
    3SAPS   C33  351   0.825   4.316  10.037 -0.3538  0.4282  0.2669
    3SAPS   H3X  352   0.924   4.283  10.000  0.9214  0.4085  3.4213
    3SAPS   H3Y  353   0.831   4.404  10.105 -1.3674  0.5364  0.2459
    3SAPS   C34  354   0.733   4.366   9.926  0.2673  0.4284 -0.2806
    3SAPS   H4X  355   0.772   4.460   9.882  2.8689 -0.3613  0.1501
    3SAPS   H4Y  356   0.636   4.380   9.980  0.4387 -2.4280  0.9729
    3SAPS   C35  357   0.718   4.273   9.810  0.1306  0.4419  0.6429
    3SAPS   H5X  358   0.685   4.172   9.843 -1.3270  0.3251 -1.0315
    3SAPS   H5Y  359   0.814   4.251   9.758 -0.1042 -2.0867  1.1635
    3SAPS   C36  360   0.615   4.331   9.712 -0.1560 -0.5870 -0.1608
    3SAPS   H6X  361   0.657   4.412   9.648 -0.1512  0.4095  1.0716
    3SAPS   H6Y  362   0.531   4.373   9.770 -1.7301 -2.6376 -0.8472
    3SAPS   C37  363   0.551   4.230   9.620  0.0371  1.0321 -0.1977
    3SAPS   H7X  364   0.467   4.274   9.562 -2.0666 -2.2943  0.0660
    3SAPS   H7Y  365   0.513   4.154   9.692 -0.0409 -1.1685 -2.4032
    3SAPS   C38  366   0.645   4.153   9.522  0.1632 -0.1075  0.4649
    3SAPS   H8X  367   0.716   4.093   9.584  1.2010  0.4741 -0.1311
    3SAPS   H8Y  368   0.712   4.228   9.474 -0.7104  0.6891  0.4741
    3SAPS   C39  369   0.572   4.062   9.424  0.8971 -0.3904  0.3078
    3SAPS   H9X  370   0.513   4.122   9.352  0.3724 -1.4132 -0.1481
    3SAPS   H9Y  371   0.510   3.987   9.477  0.7335 -0.2745  0.2788
    3SAPS  C310  372   0.664   3.983   9.329 -0.0139  0.3556 -0.5651
    3SAPS  H10X  373   0.732   3.923   9.394 -0.0272  3.2217  2.3766
    3SAPS  H10Y  374   0.731   4.058   9.283  1.7907  0.5389  2.1102
    3SAPS  C311  375   0.611   3.886   9.231  0.0949  0.4568  0.0617
    3SAPS  H11X  376   0.526   3.941   9.185  1.1065  2.1624  0.1328
    3SAPS  H11Y  377   0.573   3.794   9.280  0.6176  0.0235 -0.3333
    3SAPS  C312  378   0.710   3.829   9.125  0.1748 -0.1460 -0.9093
    3SAPS  H12X  379   0.661   3.736   9.087 -0.0555 -0.5447  0.3270
    3SAPS  H12Y  380   0.812   3.808   9.162  0.4793 -0.5508 -1.9384
    3SAPS  C313  381   0.728   3.919   9.005 -0.0564  0.1582  0.0592
    3SAPS  H13X  382   0.759   4.017   9.046  0.1352  0.2810 -0.3662
    3SAPS  H13Y  383   0.629   3.934   8.957  0.2344  1.3866 -0.1836
    3SAPS  C314  384   0.813   3.856   8.899  0.3044 -0.4895 -0.4842
    3SAPS  H14X  385   0.771   3.754   8.889 -2.6645  0.5695  0.1991
    3SAPS  H14Y  386   0.913   3.875   8.943 -0.0535  1.4444 -0.3984
    3SAPS  C315  387   0.810   3.937   8.772  0.4383 -0.1631  0.3964
    3SAPS  H15X  388   0.822   4.047   8.788 -0.5878  0.3133 -1.6791
    3SAPS  H15Y  389   0.710   3.921   8.726 -0.8630 -0.5795  3.2188
    3SAPS  C316  390   0.916   3.888   8.670  0.4344 -0.3276 -0.0522
    3SAPS  H16X  391   0.903   3.779   8.655 -4.7232  0.2004 -1.5051
    3SAPS  H16Y  392   1.014   3.902   8.720  0.1344 -1.6712  0.9758
    3SAPS  C317  393   0.916   3.968   8.535 -0.4199  0.1799 -0.5075
    3SAPS  H17X  394   1.018   3.945   8.499 -0.7883  1.8910 -2.8695
    3SAPS  H17Y  395   0.900   4.078   8.545 -1.6061  0.1316 -1.5521
    3SAPS  C318  396   0.807   3.924   8.438  0.3982  0.6377 -0.3668
    3SAPS  H18X  397   0.769   3.822   8.461  0.5888  0.9053  1.2493
    3SAPS  H18Y  398   0.841   3.930   8.332 -2.4390 -1.6910 -1.5561
    3SAPS  H18Z  399   0.719   3.991   8.442  2.0324  3.1496 -2.7590
    4SAPS     N  400   6.414   3.672  10.911  0.1911  0.2984 -0.5123
    4SAPS   HN1  401   6.402   3.700  10.812  1.3809 -1.2623 -1.1297
    4SAPS   HN2  402   6.323   3.684  10.961  0.1719 -0.8381 -0.2429
    4SAPS   HN3  403   6.481   3.736  10.959 -0.3425  0.9605 -0.6358
    4SAPS   C12  404   6.460   3.530  10.932  0.3437 -0.8977  0.1055
    4SAPS  H12A  405   6.527   3.514  10.848  1.8343  3.4663  0.1700
    4SAPS   C13  406   6.539   3.510  11.065  0.0654 -0.7938  0.1313
    4SAPS  O13A  407   6.569   3.613  11.133  0.3195  0.5573  0.4934
    4SAPS  O13B  408   6.589   3.398  11.089 -0.5492  0.4123 -0.2885
    4SAPS   C11  409   6.332   3.436  10.919  0.7877  0.0108  0.2282
    4SAPS  H11A  410   6.264   3.471  10.999  1.7104 -0.1776  1.1186
    4SAPS  H11B  411   6.362   3.331  10.939 -0.1391 -0.6291 -1.5004
    4SAPS     P  412   6.118   3.441  10.759  0.0135 -0.4250  0.4342
    4SAPS   O13  413   6.041   3.334  10.829 -1.0357  0.0139 -0.6273
    4SAPS   O14  414   6.068   3.586  10.772 -0.5306  0.4902  0.9319
    4SAPS   O12  415   6.270   3.444  10.794  0.4082  0.0376  0.2195
    4SAPS   O11  416   6.125   3.403  10.602  0.0187 -0.8378  0.2933
    4SAPS    C1  417   6.241   3.359  10.531  0.1596  0.0027 -0.4406
    4SAPS    HA  418   6.283   3.271  10.585  0.4616  0.2621 -0.2483
    4SAPS    HB  419   6.207   3.332  10.429  1.0321  0.1493 -0.7735
    4SAPS    C2  420   6.347   3.478  10.513 -0.2667  0.2094 -0.5833
    4SAPS    HS  421   6.386   3.497  10.615 -1.1497  2.2192 -0.5635
    4SAPS   O21  422   6.298   3.598  10.448 -0.1766 -1.0767  0.3545
    4SAPS   C21  423   6.326   3.710  10.505 -0.0552  1.1048 -0.1427
    4SAPS   O22  424   6.403   3.722  10.606  0.1927 -0.0836  0.5424
    4SAPS   C22  425   6.252   3.818  10.438  0.0934 -1.0720 -0.3758
    4SAPS   H2R  426   6.195   3.880  10.511  1.2715  1.0587 -1.1800
    4SAPS   H2S  427   6.322   3.893  10.395  0.1999  0.0161  1.5800
    4SAPS    C3  428   6.472   3.423  10.437  0.0071 -0.1050  0.2791
    4SAPS    HX  429   6.504   3.333  10.494 -0.9234 -0.9674 -0.5070
    4SAPS    HY  430   6.552   3.500  10.436 -0.3774  0.4590  3.6775
    4SAPS   O31  431   6.443   3.381  10.294 -0.6917 -0.0763  0.8350
    4SAPS   C31  432   6.458   3.462  10.197  0.6082  0.3238 -0.1040
    4SAPS   O32  433   6.489   3.580  10.201  0.6095  0.3020 -0.8261
    4SAPS   C32  434   6.414   3.404  10.066  0.0322  0.0178 -0.7294
    4SAPS   H2X  435   6.427   3.294  10.067  2.5263  0.2721 -0.2894
    4SAPS   H2Y  436   6.480   3.433   9.981  3.6320 -3.6453  0.5268
    4SAPS   C23  437   6.144   3.784  10.341  0.2968  0.3822 -0.2965
    4SAPS   H3R  438   6.088   3.692  10.367 -2.5728  1.8525 -0.7862
    4SAPS   H3S  439   6.200   3.777  10.245  0.1832 -0.4959 -0.3068
    4SAPS   C24  440   6.044   3.895  10.327  0.3669  0.2164  0.1062
    4SAPS   H4R  441   6.002   3.924  10.425 -0.8212  0.7273 -0.5272
    4SAPS   H4S  442   5.959   3.862  10.263  1.5308 -0.9400 -0.8869
    4SAPS   C25  443   6.109   4.024  10.277  0.4722 -0.4024  0.0168
    4SAPS   H5R  444   6.164   4.073  10.359  1.1334 -2.3017  0.7643
    4SAPS   C26  445   6.100   4.081  10.157  0.3612 -0.2721  0.6383
    4SAPS   H6R  446   6.134   4.183  10.137 -1.7625  0.2411 -0.6128
    4SAPS   C27  447   6.038   4.023  10.026 -0.5512 -0.3459  0.2083
    4SAPS   H7R  448   6.072   3.918  10.011  1.9743  0.4760 -0.3170
    4SAPS   H7S  449   6.080   4.076   9.938 -1.2506 -0.5125 -0.2363
    4SAPS   C28  450   5.891   4.028  10.019  0.0180 -0.6004  0.1767
    4SAPS   H8R  451   5.842   3.991  10.109 -0.1329 -0.7713  0.0245
    4SAPS   C29  452   5.811   4.062   9.908  0.3304  0.0787 -0.7564
    4SAPS   H9R  453   5.702   4.064   9.922  0.5926  1.6232  1.5732
    4SAPS  C210  454   5.857   4.102   9.774  0.3228 -0.8247  0.1512
    4SAPS  H10R  455   5.772   4.092   9.703  0.4197  1.2785 -0.3206
    4SAPS  H10S  456   5.939   4.032   9.744  1.8861  0.7571  0.5767
    4SAPS  C211  457   5.914   4.241   9.760  0.4926  1.0283 -0.5341
    4SAPS  H11R  458   5.884   4.307   9.842 -3.1531  0.8910 -1.5985
    4SAPS  C212  459   5.968   4.291   9.649  0.1729  0.1863 -0.0165
    4SAPS  H12R  460   5.997   4.398   9.649  0.7588  0.0440 -1.6190
    4SAPS  C213  461   5.985   4.219   9.521  0.1443  0.5311  0.9537
    4SAPS  H13R  462   6.008   4.113   9.542  1.7357  0.2296 -1.9275
    4SAPS  H13S  463   6.076   4.247   9.464 -1.0457 -1.4426 -2.1672
    4SAPS  C214  464   5.868   4.227   9.428  0.2832 -0.2480  0.3003
    4SAPS  H14R  465   5.786   4.161   9.459 -0.3538  0.4339  0.0714
    4SAPS  C215  466   5.856   4.310   9.318 -0.5353 -0.0664  0.1622
    4SAPS  H15R  467   5.759   4.316   9.267 -0.5763 -1.8644 -0.0463
    4SAPS  C216  468   5.957   4.403   9.259 -0.2165  0.2223 -0.4967
    4SAPS  H16R  469   6.046   4.434   9.319  0.4006 -0.1135 -1.2170
    4SAPS  H16S  470   5.903   4.495   9.232  1.1363  1.4376  0.7640
    4SAPS  C217  471   6.026   4.340   9.134 -0.3651  0.1463 -0.4017
    4SAPS  H17R  472   6.070   4.246   9.172  2.9338  1.9105  0.5667
    4SAPS  H17S  473   6.110   4.404   9.098  0.2747 -1.3991 -1.7866
    4SAPS  C218  474   5.941   4.313   9.007  0.1076 -0.2134 -0.1599
    4SAPS  H18R  475   5.877   4.403   8.994 -0.2974  0.1441  3.2798
    4SAPS  H18S  476   5.867   4.233   9.028  0.8084 -0.5069  1.3388
    4SAPS  C219  477   6.029   4.277   8.888 -0.4623  0.0765  0.1905
    4SAPS  H19R  478   6.090   4.191   8.924  1.6572  1.0137 -0.9623
    4SAPS  H19S  479   6.100   4.361   8.875 -1.5195  0.9340 -0.1498
    4SAPS  C220  480   5.959   4.232   8.757 -1.3511  0.3131 -0.0997
    4SAPS  H20R  481   6.032   4.194   8.682 -1.7646 -0.1221 -0.2905
    4SAPS  H20S  482   5.904   4.320   8.718  0.2969  2.0696  1.3168
    4SAPS  H20T  483   5.884   4.155   8.787 -0.4657 -0.2073  0.8314
    4SAPS   C33  484   6.262   3.435  10.041 -1.3760 -0.2476 -0.2057
    4SAPS   H3X  485   6.199   3.430  10.132  0.2378 -1.6292  0.8987
    4SAPS   H3Y  486   6.222   3.378   9.954  0.1675 -0.4817 -0.7955
    4SAPS   C34  487   6.243   3.574   9.971 -0.8269 -0.4864  0.3399
    4SAPS   H4X  488   6.324   3.638  10.011  0.5480 -1.9031 -0.0692
    4SAPS   H4Y  489   6.145   3.622   9.992 -0.8256  0.4461 -1.5347
    4SAPS   C35  490   6.260   3.573   9.822 -0.5747  0.5969 -0.4115
    4SAPS   H5X  491   6.169   3.517   9.790 -0.1012 -0.3206 -0.2081
    4SAPS   H5Y  492   6.354   3.532   9.777  0.1457  0.4083  1.2095
    4SAPS   C36  493   6.251   3.711   9.765  0.2650  0.1664  0.2138
    4SAPS   H6X  494   6.341   3.762   9.807 -0.0959 -0.2468  1.5490
    4SAPS   H6Y  495   6.169   3.767   9.816  1.5448  1.9235  0.4356
    4SAPS   C37  496   6.239   3.726   9.620 -0.0785 -0.2913  0.5162
    4SAPS   H7X  497   6.181   3.641   9.578 -1.2193  1.7075 -2.2861
    4SAPS   H7Y  498   6.337   3.710   9.570 -0.0547  0.2342  0.3826
    4SAPS   C38  499   6.184   3.863   9.575 -0.6864 -0.1007 -0.2222
    4SAPS   H8X  500   6.259   3.941   9.602 -0.4674 -0.0049 -1.0657
    4SAPS   H8Y  501   6.088   3.891   9.623 -0.9367  0.4987 -1.0526
    4SAPS   C39  502   6.180   3.885   9.415  0.3169 -0.1282  0.2175
    4SAPS   H9X  503   6.282   3.858   9.380 -0.0459 -0.5772 -0.5155
    4SAPS   H9Y  504   6.166   3.993   9.393  0.9363  0.4231  2.3291
    4SAPS  C310  505   6.073   3.804   9.346  0.4876 -0.6514 -0.0907
    4SAPS  H10X  506   5.972   3.826   9.386  0.8665 -2.3958  1.9871
    4SAPS  H10Y  507   6.087   3.695   9.358 -0.3712 -0.6318  1.3760
    4SAPS  C311  508   6.064   3.831   9.193  0.0152  0.4966  0.0473
    4SAPS  H11X  509   6.138   3.769   9.138 -1.5132 -2.5402  1.2095
    4SAPS  H11Y  510   6.083   3.935   9.157  0.4834  0.2922 -0.3150
    4SAPS  C312  511   5.927   3.782   9.133  0.0058 -0.1468  0.4061
    4SAPS  H12X  512   5.847   3.793   9.209 -0.0157 -0.5330  0.4390
    4SAPS  H12Y  513   5.946   3.672   9.131 -0.3591 -0.2519  1.9694
    4SAPS  C313  514   5.896   3.851   8.996  0.3315 -0.5583 -0.5661
    4SAPS  H13X  515   5.971   3.813   8.923  1.2339 -0.5417  0.3227
    4SAPS  H13Y  516   5.920   3.958   9.017  0.6885 -1.1421  2.4759
    4SAPS  C314  517   5.755   3.819   8.947  0.3242 -0.3502  0.5444
    4SAPS  H14X  518   5.693   3.845   9.035 -0.9594  0.4838 -0.5706
    4SAPS  H14Y  519   5.754   3.711   8.922 -0.5309 -0.4503  0.9967
    4SAPS  C315  520   5.711   3.904   8.826 -0.7038  0.3191  0.6432
    4SAPS  H15X  521   5.751   4.007   8.837  2.7839 -0.5396 -2.0954
    4SAPS  H15Y  522   5.600   3.898   8.827 -0.6458 -1.1188  1.0374
    4SAPS  C316  523   5.764   3.843   8.699 -0.3529  0.3809 -0.4552
    4SAPS  H16X  524   5.755   3.733   8.713  0.1843  0.5356  1.3567
    4SAPS  H16Y  525   5.872   3.864   8.685  1.0822 -2.7481  3.6657
    4SAPS  C317  526   5.690   3.886   8.571 -0.4380 -0.1366  0.6012
    4SAPS  H17X  527   5.657   3.992   8.576  0.0649  0.1836 -1.5446
    4SAPS  H17Y  528   5.604   3.820   8.547 -0.6384  0.7952 -1.4742
    4SAPS  C318  529   5.771   3.866   8.443 -0.6932 -0.1902 -0.4768
    4SAPS  H18X  530   5.867   3.920   8.452 -0.6562 -0.5392  2.5321
    4SAPS  H18Y  531   5.709   3.898   8.357 -1.0125  1.5313  0.3402
    4SAPS  H18Z  532   5.798   3.761   8.420 -2.4657 -0.4196 -1.6390
    5SAPS     N  533   3.384   1.681  10.715 -0.1468 -0.0664  0.5607
    5SAPS   HN1  534   3.443   1.760  10.747  0.0538 -0.1554  0.4072
    5SAPS   HN2  535   3.403   1.670  10.614  0.6442 -0.8545  0.7783
    5SAPS   HN3  536   3.282   1.696  10.730 -0.1703 -0.9271  1.3950
    5SAPS   C12  537   3.427   1.549  10.777 -0.3427  0.1980  0.2491
    5SAPS  H12A  538   3.449   1.478  10.699  1.0920 -1.2731  1.9300
    5SAPS   C13  539   3.538   1.544  10.887  0.4365  0.5499  0.2523
    5SAPS  O13A  540   3.595   1.648  10.920 -0.2007  0.3409  0.2218
    5SAPS  O13B  541   3.604   1.434  10.898 -0.6301  0.0284  0.1933
    5SAPS   C11  542   3.296   1.487  10.824 -0.0325 -0.0689 -0.1730
    5SAPS  H11A  543   3.241   1.519  10.916  0.8945 -0.9665  0.7274
    5SAPS  H11B  544   3.325   1.385  10.857 -0.4840 -0.3460 -0.6310
    5SAPS     P  545   3.150   1.370  10.638  0.4024  0.2047  0.0342
    5SAPS   O13  546   3.264   1.273  10.623  0.6653 -0.0411 -0.0257
    5SAPS   O14  547   3.025   1.324  10.707  0.6117 -0.2655 -0.2711
    5SAPS   O12  548   3.198   1.495  10.717  0.3989 -0.1589 -0.3439
    5SAPS   O11  549   3.109   1.417  10.494  0.2578  0.1370  0.4406
    5SAPS    C1  550   3.062   1.548  10.462 -0.1668  0.0614 -0.8320
    5SAPS    HA  551   2.965   1.573  10.511  0.5062 -1.4072  1.3884
    5SAPS    HB  552   3.137   1.624  10.492  4.1301 -3.0772 -2.5976
    5SAPS    C2  553   3.048   1.562  10.307  0.7139 -0.0203 -0.2299
    5SAPS    HS  554   3.013   1.666  10.287 -0.0240 -0.5475 -1.8849
    5SAPS   O21  555   2.962   1.463  10.251 -0.0707 -0.9302 -0.3665
    5SAPS   C21  556   2.834   1.492  10.292 -0.6068  0.6826 -0.2303
    5SAPS   O22  557   2.799   1.589  10.360  0.5549 -0.0711  0.4009
    5SAPS   C22  558   2.739   1.385  10.231  0.6383  0.2624 -0.2376
    5SAPS   H2R  559   2.742   1.383  10.120 -0.2356 -0.1787 -0.2659
    5SAPS   H2S  560   2.770   1.287  10.271  0.8943  0.5045  0.1630
    5SAPS    C3  561   3.192   1.556  10.236  0.1551  0.4849 -0.1046
    5SAPS    HX  562   3.220   1.455  10.271  1.7712  1.2725  0.9742
    5SAPS    HY  563   3.263   1.629  10.280  0.5711  0.7738 -1.2316
    5SAPS   O31  564   3.197   1.560  10.095 -0.0185 -0.1958 -0.4579
    5SAPS   C31  565   3.194   1.683  10.046  0.2427  0.0091 -0.0107
    5SAPS   O32  566   3.172   1.784  10.109 -0.5364 -0.5910 -0.1015
    5SAPS   C32  567   3.232   1.687   9.893 -1.0255 -0.2995  0.1122
    5SAPS   H2X  568   3.288   1.592   9.872 -1.7919 -1.0405  1.3499
    5SAPS   H2Y  569   3.300   1.774   9.882  0.7731 -1.3137  2.4138
    5SAPS   C23  570   2.594   1.416  10.277 -0.7150 -0.7156 -0.0122
    5SAPS   H3R  571   2.582   1.474  10.372  0.1518 -2.0705  0.9561
    5SAPS   H3S  572   2.546   1.317  10.290  0.9007 -1.4532  0.5418
    5SAPS   C24  573   2.501   1.489  10.168  0.4372  0.4277 -0.5789
    5SAPS   H4R  574   2.527   1.443  10.070  2.6953 -1.2108  0.6941
    5SAPS   H4S  575   2.528   1.597  10.161  2.2134  0.1202  0.7856
    5SAPS   C25  576   2.356   1.450  10.178  0.2604  0.8176 -0.2587
    5SAPS   H5R  577   2.300   1.531  10.226  0.8363  0.2681  1.3864
    5SAPS   C26  578   2.301   1.335  10.139  0.0835  0.5366 -0.1637
    5SAPS   H6R  579   2.197   1.310  10.163  0.4269 -1.6574 -0.7436
    5SAPS   C27  580   2.382   1.224  10.077 -0.4736 -0.3249 -0.4402
    5SAPS   H7R  581   2.487   1.227  10.112 -0.9248 -0.4940  0.9510
    5SAPS   H7S  582   2.375   1.256   9.970 -1.7641  1.5077  0.1492
    5SAPS   C28  583   2.303   1.096  10.101 -0.6498  0.0138  0.5286
    5SAPS   H8R  584   2.320   1.037  10.193  1.1436 -2.9047 -1.5238
    5SAPS   C29  585   2.236   1.038   9.999  0.2329  0.4895 -0.2277
    5SAPS   H9R  586   2.172   0.955  10.033  1.0399 -0.2323 -0.4400
    5SAPS  C210  587   2.208   1.089   9.857  0.4778 -0.4852 -1.1467
    5SAPS  H10R  588   2.298   1.139   9.815 -1.0822  2.6057 -1.0183
    5SAPS  H10S  589   2.126   1.164   9.856 -0.9006 -1.8607 -3.5364
    5SAPS  C211  590   2.158   0.987   9.765 -0.3141 -1.0587 -0.1956
    5SAPS  H11R  591   2.107   0.900   9.809 -0.0623 -1.0363  0.1519
    5SAPS  C212  592   2.153   1.002   9.632 -0.3767  0.3478  0.6668
    5SAPS  H12R  593   2.103   0.921   9.576  0.0266 -0.2025  1.0933
    5SAPS  C213  594   2.213   1.108   9.554 -0.6411 -0.1397 -0.4369
    5SAPS  H13R  595   2.242   1.185   9.629  0.9917 -1.3306  0.2115
    5SAPS  H13S  596   2.141   1.150   9.481  0.8866  0.7343 -1.4854
    5SAPS  C214  597   2.350   1.084   9.485  0.5915  0.2048  0.0179
    5SAPS  H14R  598   2.374   0.977   9.479  0.4539  0.2372 -2.7068
    5SAPS  C215  599   2.437   1.179   9.441 -0.7969 -0.2252 -0.0438
    5SAPS  H15R  600   2.530   1.159   9.385 -1.6154 -0.4772 -1.3533
    5SAPS  C216  601   2.408   1.324   9.469 -0.0299  0.3617 -0.0009
    5SAPS  H16R  602   2.308   1.351   9.510  0.3252  0.5385  0.7566
    5SAPS  H16S  603   2.416   1.376   9.371  1.2396  0.0657 -0.0736
    5SAPS  C217  604   2.511   1.393   9.557  0.4110  0.1379  0.2998
    5SAPS  H17R  605   2.499   1.503   9.548 -3.2161  0.0259  2.0827
    5SAPS  H17S  606   2.615   1.366   9.529  0.6874  1.2931  0.1613
    5SAPS  C218  607   2.494   1.354   9.710 -0.4324  0.4639  0.3178
    5SAPS  H18R  608   2.387   1.355   9.741  0.2555 -1.0998  3.1291
    5SAPS  H18S  609   2.528   1.248   9.717  0.3961  0.7304  0.3382
    5SAPS  C219  610   2.585   1.441   9.803  0.4331  0.1271 -0.6313
    5SAPS  H19R  611   2.592   1.393   9.903  0.9557  1.0381 -0.2278
    5SAPS  H19S  612   2.531   1.537   9.814 -1.8900 -0.9554 -1.8339
    5SAPS  C220  613   2.728   1.463   9.758 -0.1999  0.3944 -0.1402
    5SAPS  H20R  614   2.762   1.370   9.707 -0.0024  1.5082 -2.1265
    5SAPS  H20S  615   2.791   1.487   9.846 -0.0156 -1.9308  0.4198
    5SAPS  H20T  616   2.738   1.552   9.693  0.8732  0.4741  0.1204
    5SAPS   C33  617   3.113   1.705   9.795 -0.4746 -0.0746  0.0228
    5SAPS   H3X  618   3.035   1.777   9.827  0.7187  1.8978 -1.2739
    5SAPS   H3Y  619   3.058   1.609   9.781  1.2962 -0.7254 -3.5339
    5SAPS   C34  620   3.163   1.750   9.663 -0.7783 -0.5863 -0.5761
    5SAPS   H4X  621   3.246   1.683   9.631 -1.9096 -2.7100  0.6724
    5SAPS   H4Y  622   3.194   1.856   9.675  1.6664 -1.4939  2.5458
    5SAPS   C35  623   3.064   1.735   9.547  0.3842 -0.6132 -0.5855
    5SAPS   H5X  624   2.973   1.793   9.576  0.9027 -1.1964  2.5678
    5SAPS   H5Y  625   3.038   1.627   9.552 -1.8478 -0.1200 -0.3716
    5SAPS   C36  626   3.133   1.771   9.417 -0.0967 -0.3351 -0.0058
    5SAPS   H6X  627   3.212   1.693   9.416 -0.5810 -0.8981  1.6570
    5SAPS   H6Y  628   3.181   1.871   9.422 -0.3457 -0.0947 -1.6357
    5SAPS   C37  629   3.043   1.747   9.294 -0.4054 -0.2747 -0.7233
    5SAPS   H7X  630   2.964   1.826   9.285 -1.1361 -0.6846  1.4080
    5SAPS   H7Y  631   3.002   1.644   9.288 -0.8315 -0.0049 -3.8444
    5SAPS   C38  632   3.130   1.749   9.167  0.0561  0.5742  0.5980
    5SAPS   H8X  633   3.230   1.706   9.188 -0.9279 -1.9862  0.3880
    5SAPS   H8Y  634   3.144   1.855   9.137 -1.6244  0.1239 -2.1156
    5SAPS   C39  635   3.053   1.682   9.046 -0.8827 -0.5739  0.0690
    5SAPS   H9X  636   2.951   1.727   9.048 -0.5851  0.1169 -0.0115
    5SAPS   H9Y  637   3.051   1.572   9.061  0.4477 -0.4355  1.5588
    5SAPS  C310  638   3.122   1.721   8.911 -0.1009  0.4178  0.2092
    5SAPS  H10X  639   3.231   1.699   8.907 -0.1733  0.1980 -2.6639
    5SAPS  H10Y  640   3.119   1.828   8.879 -1.3755  0.3249 -0.0217
    5SAPS  C311  641   3.058   1.642   8.802  0.6837  0.2410  0.7915
    5SAPS  H11X  642   2.949   1.663   8.800  0.3833 -1.2409 -1.1086
    5SAPS  H11Y  643   3.070   1.534   8.823  0.6006  0.5839  2.8428
    5SAPS  C312  644   3.113   1.681   8.662  0.2519  0.6589  0.7870
    5SAPS  H12X  645   3.222   1.663   8.656  0.4731  2.1599 -0.2942
    5SAPS  H12Y  646   3.101   1.790   8.642  0.7064  0.4562 -0.7686
    5SAPS  C313  647   3.028   1.622   8.550 -0.6156  0.7203  0.4985
    5SAPS  H13X  648   2.919   1.636   8.565 -0.6842  1.5293 -0.6037
    5SAPS  H13Y  649   3.042   1.512   8.550 -1.6547  0.5694  2.0202
    5SAPS  C314  650   3.077   1.664   8.409  0.0107  0.6942 -0.0502
    5SAPS  H14X  651   3.180   1.623   8.410 -0.8423 -1.5737  1.1737
    5SAPS  H14Y  652   3.087   1.774   8.425  1.7682  0.4440  0.7991
    5SAPS  C315  653   2.998   1.608   8.290  0.0195  0.0581 -0.3111
    5SAPS  H15X  654   2.895   1.645   8.307  0.9920  1.9820  1.8966
    5SAPS  H15Y  655   3.010   1.498   8.302  1.9878 -0.0088 -2.3037
    5SAPS  C316  656   3.042   1.634   8.147 -0.1769  0.6999  0.8319
    5SAPS  H16X  657   3.031   1.744   8.130 -1.9763  0.6158  1.2489
    5SAPS  H16Y  658   2.979   1.589   8.067  0.3486  1.2982  0.0541
    5SAPS  C317  659   3.185   1.599   8.108 -0.2873  0.2554  0.2131
    5SAPS  H17X  660   3.229   1.542   8.192 -1.3965  2.0212  2.0601
    5SAPS  H17Y  661   3.248   1.690   8.109 -2.0006  1.5283  2.7688
    5SAPS  C318  662   3.196   1.511   7.981 -0.2768 -0.0641  0.9288
    5SAPS  H18X  663   3.162   1.549   7.882 -0.6796 -3.2012 -0.2665
    5SAPS  H18Y  664   3.129   1.423   7.994 -1.6489  1.1170  2.0952
    5SAPS  H18Z  665   3.296   1.463   7.975 -0.6266 -0.6878 -0.2515
    6SAPS     N  666   1.213   0.907  10.994 -0.9391  0.2827 -0.5450
    6SAPS   HN1  667   1.232   0.849  10.910  1.8918  0.3781 -0.0599
    6SAPS   HN2  668   1.300   0.936  11.042 -1.8351 -0.1422  1.4701
    6SAPS   HN3  669   1.157   0.842  11.053 -2.4213  2.2616  0.3594
    6SAPS   C12  670   1.124   1.017  10.962 -0.5008  0.2996  0.2316
    6SAPS  H12A  671   1.055   1.025  11.045  0.7720 -1.4102  1.5307
    6SAPS   C13  672   1.186   1.156  10.950 -0.0473  0.3283 -0.0018
    6SAPS  O13A  673   1.305   1.187  10.986  0.0853  0.1770 -0.1532
    6SAPS  O13B  674   1.104   1.252  10.935  0.5406 -0.4772  0.2957
    6SAPS   C11  675   1.045   0.973  10.831 -0.5052 -0.1315 -0.0824
    6SAPS  H11A  676   1.117   0.981  10.746 -2.1628  0.8506 -1.4450
    6SAPS  H11B  677   0.963   1.045  10.810 -2.9001 -2.6593  0.1169
    6SAPS     P  678   0.865   0.793  10.739  0.0470  0.1358  0.3790
    6SAPS   O13  679   0.878   0.646  10.732 -0.8833 -0.6874  0.1626
    6SAPS   O14  680   0.737   0.853  10.781  0.0618  0.1708  0.1473
    6SAPS   O12  681   0.990   0.843  10.832  0.8148  0.1806  0.0941
    6SAPS   O11  682   0.908   0.848  10.599  0.8150  0.1094  0.2225
    6SAPS    C1  683   1.023   0.791  10.532  0.1155  0.7847 -0.1183
    6SAPS    HA  684   1.114   0.808  10.594  0.1710  1.2426 -0.3223
    6SAPS    HB  685   1.018   0.680  10.526 -0.3655  0.7779  0.2728
    6SAPS    C2  686   1.045   0.838  10.386 -0.3062  0.0755 -0.1267
    6SAPS    HS  687   1.033   0.948  10.382  1.9587  0.4051  0.5671
    6SAPS   O21  688   0.941   0.772  10.308  0.4948  0.6863  0.0792
    6SAPS   C21  689   0.883   0.831  10.206 -0.0307 -0.2698 -0.3333
    6SAPS   O22  690   0.904   0.946  10.169  0.5026  0.5243  0.4656
    6SAPS   C22  691   0.794   0.738  10.139  0.1164 -0.1702  0.1824
    6SAPS   H2R  692   0.852   0.655  10.093  0.7344 -0.2853  1.1275
    6SAPS   H2S  693   0.732   0.695  10.221  0.0829  2.1303  1.4572
    6SAPS    C3  694   1.187   0.808  10.333  0.0730 -1.1467 -0.3576
    6SAPS    HX  695   1.205   0.698  10.336 -1.2853 -1.3805  2.5700
    6SAPS    HY  696   1.262   0.857  10.399  0.7006 -0.2503 -1.6987
    6SAPS   O31  697   1.190   0.865  10.201  0.2196  0.1737  0.6365
    6SAPS   C31  698   1.243   0.984  10.182 -0.1488  0.3200  0.7957
    6SAPS   O32  699   1.294   1.050  10.271  0.2208  0.1058 -0.4155
    6SAPS   C32  700   1.244   1.010  10.025 -0.0374  0.8372  0.0293
    6SAPS   H2X  701   1.140   1.040  10.002 -0.1798  1.9400  1.8759
    6SAPS   H2Y  702   1.281   0.917   9.977  0.2394  0.6427  0.6078
    6SAPS   C23  703   0.704   0.803  10.028 -0.5642 -0.2784 -1.2900
    6SAPS   H3R  704   0.767   0.878   9.976  0.4919  2.0558  2.9527
    6SAPS   H3S  705   0.625   0.866  10.073  0.5508 -0.3359  0.8692
    6SAPS   C24  706   0.639   0.696   9.937  0.4577  0.3382 -0.1568
    6SAPS   H4R  707   0.577   0.749   9.863 -3.7284 -0.6130  2.3388
    6SAPS   H4S  708   0.569   0.633   9.996  0.1820 -0.2904 -1.1246
    6SAPS   C25  709   0.734   0.603   9.872 -0.3344 -0.2114 -0.3709
    6SAPS   H5R  710   0.789   0.533   9.937 -0.1812  0.7947  0.6080
    6SAPS   C26  711   0.767   0.595   9.746 -0.2881  1.1234 -0.4756
    6SAPS   H6R  712   0.833   0.513   9.713  1.8918  1.6858  2.1769
    6SAPS   C27  713   0.725   0.685   9.634  0.2507 -0.1940  0.0928
    6SAPS   H7R  714   0.625   0.729   9.656  0.2444 -0.8724  1.5803
    6SAPS   H7S  715   0.702   0.618   9.549 -0.2798 -0.3514  0.3507
    6SAPS   C28  716   0.825   0.796   9.615 -0.4908 -0.0054  0.4950
    6SAPS   H8R  717   0.880   0.834   9.702  0.7895 -0.3744 -0.1261
    6SAPS   C29  718   0.844   0.874   9.505  1.0027  0.2635 -0.3143
    6SAPS   H9R  719   0.922   0.951   9.505  1.0958  0.1882  0.6824
    6SAPS  C210  720   0.770   0.859   9.373  0.7587 -0.5408 -0.0340
    6SAPS  H10R  721   0.709   0.949   9.351  2.9890  1.0296 -0.1790
    6SAPS  H10S  722   0.699   0.776   9.391  0.4751 -0.3675 -0.3401
    6SAPS  C211  723   0.849   0.838   9.248 -0.6807 -0.1976  0.3223
    6SAPS  H11R  724   0.948   0.790   9.256 -0.8632 -1.6941 -4.0150
    6SAPS  C212  725   0.821   0.872   9.119 -0.5673  0.6475  0.2304
    6SAPS  H12R  726   0.905   0.853   9.050 -1.7992 -3.5700 -0.3802
    6SAPS  C213  727   0.685   0.924   9.070  0.3584 -0.2856  0.4874
    6SAPS  H13R  728   0.594   0.921   9.134 -1.6852  1.9343 -2.0491
    6SAPS  H13S  729   0.632   0.857   8.999 -2.0912  1.6309  0.3691
    6SAPS  C214  730   0.694   1.074   9.029  0.1428 -0.5300  0.6191
    6SAPS  H14R  731   0.686   1.142   9.115  1.3617 -0.6052  0.8147
    6SAPS  C215  732   0.718   1.125   8.909 -0.3114 -0.5858  0.1375
    6SAPS  H15R  733   0.715   1.234   8.900 -1.1065 -0.6591 -0.6051
    6SAPS  C216  734   0.726   1.042   8.783  0.2605 -0.0714  0.7227
    6SAPS  H16R  735   0.660   1.086   8.705  0.1942  1.8944  1.8332
    6SAPS  H16S  736   0.700   0.934   8.796 -1.1677  0.3777  1.7581
    6SAPS  C217  737   0.869   1.039   8.728 -0.5834  0.3926 -0.5719
    6SAPS  H17R  738   0.933   0.985   8.801 -1.3263 -0.8047 -0.7616
    6SAPS  H17S  739   0.914   1.139   8.720 -1.1371  0.8305  1.2317
    6SAPS  C218  740   0.873   0.970   8.595  0.0160 -0.2659  0.2913
    6SAPS  H18R  741   0.805   1.014   8.520  0.8606  2.5716  1.0945
    6SAPS  H18S  742   0.856   0.860   8.606 -0.6068 -0.3339 -1.2592
    6SAPS  C219  743   1.013   0.978   8.527 -0.0975  0.2358 -0.4832
    6SAPS  H19R  744   1.094   0.931   8.586  0.8245  0.6852 -1.3547
    6SAPS  H19S  745   1.035   1.087   8.521 -1.0451  0.5036  0.6765
    6SAPS  C220  746   1.019   0.906   8.390 -0.1132  0.1689  0.1930
    6SAPS  H20R  747   1.080   0.953   8.309 -0.1346 -0.7608 -0.3789
    6SAPS  H20S  748   0.913   0.904   8.356  0.3920  0.1590 -1.5065
    6SAPS  H20T  749   1.059   0.803   8.398 -1.0073 -0.2967 -0.9183
    6SAPS   C33  750   1.344   1.127   9.988 -0.1713  0.6132 -0.0152
    6SAPS   H3X  751   1.448   1.095  10.010 -1.0872 -3.2335 -0.6029
    6SAPS   H3Y  752   1.318   1.225  10.035 -1.6701  0.5671 -0.6955
    6SAPS   C34  753   1.334   1.153   9.836 -0.0228  0.1926 -0.4245
    6SAPS   H4X  754   1.235   1.202   9.821 -0.0481  0.0599 -0.7015
    6SAPS   H4Y  755   1.346   1.059   9.778 -0.0364  0.7948 -1.4279
    6SAPS   C35  756   1.440   1.250   9.793  0.4618 -0.0875  0.3755
    6SAPS   H5X  757   1.534   1.201   9.825  0.3940  0.3382  1.2395
    6SAPS   H5Y  758   1.439   1.346   9.850  0.0365  0.3968 -0.4223
    6SAPS   C36  759   1.436   1.278   9.640  0.5527  0.2581  0.3073
    6SAPS   H6X  760   1.498   1.365   9.611  3.5778 -2.3449 -1.6818
    6SAPS   H6Y  761   1.330   1.295   9.611  0.9158  1.3648 -0.4301
    6SAPS   C37  762   1.489   1.157   9.566  0.4934 -0.1669 -0.7561
    6SAPS   H7X  763   1.418   1.073   9.580  0.6382 -0.5960 -2.3767
    6SAPS   H7Y  764   1.594   1.125   9.582 -0.4187 -3.4777 -0.6329
    6SAPS   C38  765   1.473   1.191   9.424 -0.3829 -0.5836  0.3903
    6SAPS   H8X  766   1.515   1.292   9.405  1.9602 -1.8264 -1.4700
    6SAPS   H8Y  767   1.366   1.206   9.398 -0.3002  0.6760  0.6778
    6SAPS   C39  768   1.548   1.098   9.327 -0.5428 -0.6575  0.2373
    6SAPS   H9X  769   1.521   0.992   9.348 -0.0034 -1.4565 -2.7423
    6SAPS   H9Y  770   1.656   1.113   9.347 -0.5974 -0.4740  0.3967
    6SAPS  C310  771   1.525   1.121   9.177  0.0180 -0.2891 -0.0773
    6SAPS  H10X  772   1.557   1.224   9.152 -0.8340 -0.1397 -0.5702
    6SAPS  H10Y  773   1.422   1.138   9.139  0.7026  0.6699 -1.6179
    6SAPS  C311  774   1.585   1.015   9.084  0.0110  0.6137 -0.3659
    6SAPS  H11X  775   1.531   0.917   9.079  2.1751 -0.6039 -1.0908
    6SAPS  H11Y  776   1.685   0.997   9.128  0.3284  1.1684 -0.8695
    6SAPS  C312  777   1.603   1.068   8.943  0.3224  0.0020 -0.6312
    6SAPS  H12X  778   1.660   1.163   8.949 -0.1333  0.2547 -0.2082
    6SAPS  H12Y  779   1.506   1.090   8.894 -0.2668  3.5775  1.7426
    6SAPS  C313  780   1.686   0.978   8.865 -0.1244 -0.0718  0.2047
    6SAPS  H13X  781   1.669   0.871   8.885 -0.0149  0.0688  1.0777
    6SAPS  H13Y  782   1.790   0.975   8.905 -0.9383 -2.3866  2.3746
    6SAPS  C314  783   1.677   1.018   8.719 -0.5339  0.5296 -0.4733
    6SAPS  H14X  784   1.676   1.128   8.704  1.1771  0.4039 -1.7547
    6SAPS  H14Y  785   1.579   0.979   8.683 -0.1790 -3.9109  2.5126
    6SAPS  C315  786   1.794   0.956   8.636 -0.3033  0.2706 -0.0072
    6SAPS  H15X  787   1.779   0.846   8.645  1.2702  0.1502  1.9478
    6SAPS  H15Y  788   1.892   0.988   8.678  1.0616 -0.8759 -2.1384
    6SAPS  C316  789   1.791   0.993   8.484 -0.0015  0.5605 -0.1856
    6SAPS  H16X  790   1.846   1.087   8.465  0.4470  0.3442  0.0313
    6SAPS  H16Y  791   1.682   1.006   8.466 -0.8703 -4.2293  0.1142
    6SAPS  C317  792   1.850   0.890   8.388 -0.3135 -1.0143  0.5888
    6SAPS  H17X  793   1.949   0.853   8.422  1.0668  1.8464 -0.0291
    6SAPS  H17Y  794   1.864   0.942   8.291 -0.7446  1.0766  1.5991
    6SAPS  C318  795   1.747   0.782   8.346 -0.4414 -0.4150  0.2696
    6SAPS  H18X  796   1.787   0.718   8.264  4.1955  0.5969  1.4661
    6SAPS  H18Y  797   1.651   0.833   8.325 -1.1047 -2.5127 -2.5565
    6SAPS  H18Z  798   1.737   0.711   8.430  1.9719 -0.8589  0.2684
    7SAPS     N  799   3.379   1.125  10.417 -0.1763  0.1746 -0.5883
    7SAPS   HN1  800   3.328   1.111  10.328  0.1631  0.4767 -0.8348
    7SAPS   HN2  801   3.375   1.037  10.473 -3.4741  0.1839 -0.6261
    7SAPS   HN3  802   3.345   1.209  10.468 -1.7023  0.0188 -1.3113
    7SAPS   C12  803   3.526   1.156  10.390  0.3497 -0.2922 -0.0568
    7SAPS  H12A  804   3.570   1.181  10.486  0.3626  0.7990 -0.3417
    7SAPS   C13  805   3.619   1.046  10.321  0.0431 -0.2831 -0.2400
    7SAPS  O13A  806   3.563   0.940  10.282 -0.2349  0.2890  0.2829
    7SAPS  O13B  807   3.741   1.068  10.301 -0.3089 -0.0736 -0.2679
    7SAPS   C11  808   3.529   1.281  10.301  0.3755 -0.3491 -0.1658
    7SAPS  H11A  809   3.478   1.263  10.204  1.4803 -0.1122 -0.8113
    7SAPS  H11B  810   3.634   1.305  10.273  0.2832  4.0602  2.3731
    7SAPS     P  811   3.547   1.525  10.405 -0.0391 -0.2165 -0.2521
    7SAPS   O13  812   3.450   1.627  10.447 -0.4078 -0.5807  0.1067
    7SAPS   O14  813   3.650   1.485  10.501 -0.5831 -0.6661  0.2449
    7SAPS   O12  814   3.468   1.393  10.365 -0.0535  0.2197  0.3967
    7SAPS   O11  815   3.632   1.575  10.279  0.5199  0.2329  0.5527
    7SAPS    C1  816   3.558   1.605  10.160  0.3881 -0.2290  0.2924
    7SAPS    HA  817   3.510   1.519  10.108 -0.2313 -0.0915  0.6218
    7SAPS    HB  818   3.471   1.670  10.185 -0.2912 -0.1324 -2.0317
    7SAPS    C2  819   3.651   1.683  10.058  0.6366  0.0814 -0.1610
    7SAPS    HS  820   3.586   1.730   9.982  1.5939 -0.0715 -1.1053
    7SAPS   O21  821   3.749   1.598   9.996  0.8742 -0.2941 -0.5249
    7SAPS   C21  822   3.697   1.503   9.923 -0.0398 -0.1853 -0.7079
    7SAPS   O22  823   3.580   1.503   9.888  0.2386  0.1059 -0.5971
    7SAPS   C22  824   3.803   1.406   9.884  0.0360 -1.3680 -0.0947
    7SAPS   H2R  825   3.888   1.461   9.839  0.9410 -3.7508 -1.5078
    7SAPS   H2S  826   3.832   1.357   9.980 -0.3659  0.4829  1.0098
    7SAPS    C3  827   3.725   1.801  10.135  0.6982  0.5391 -0.1026
    7SAPS    HX  828   3.798   1.738  10.190 -0.8017 -2.0617 -0.9040
    7SAPS    HY  829   3.656   1.860  10.199 -0.7483 -1.7758  0.5978
    7SAPS   O31  830   3.806   1.883  10.050 -0.7234 -0.5289  0.1777
    7SAPS   C31  831   3.875   1.977  10.110 -0.2774 -0.0776  0.1859
    7SAPS   O32  832   3.884   1.987  10.229  0.4885 -0.4903 -0.3058
    7SAPS   C32  833   3.944   2.066  10.001 -0.7674 -0.3691  0.0888
    7SAPS   H2X  834   3.891   2.054   9.904  0.8036 -0.2704 -0.8190
    7SAPS   H2Y  835   4.046   2.027   9.977 -0.1458  1.4683 -0.4382
    7SAPS   C23  836   3.757   1.286   9.799 -0.4201  0.3801  0.5705
    7SAPS   H3R  837   3.658   1.250   9.835 -0.5842 -0.3062 -0.5174
    7SAPS   H3S  838   3.832   1.205   9.812 -0.4723  0.2718  0.2197
    7SAPS   C24  839   3.763   1.320   9.646  0.3345  0.2940  0.1239
    7SAPS   H4R  840   3.750   1.221   9.598  2.4853  0.3011 -0.5505
    7SAPS   H4S  841   3.865   1.357   9.622 -0.6929  2.3380 -1.4298
    7SAPS   C25  842   3.654   1.402   9.584  0.3236 -0.5939  0.3111
    7SAPS   H5R  843   3.556   1.403   9.634  0.7618  0.1105  1.1689
    7SAPS   C26  844   3.674   1.469   9.465  0.6318 -0.1849  0.5480
    7SAPS   H6R  845   3.589   1.519   9.417  0.5706 -2.3758 -1.8404
    7SAPS   C27  846   3.793   1.470   9.374  0.3034  0.2398 -0.8094
    7SAPS   H7R  847   3.876   1.405   9.408  0.5583  0.2186 -1.4517
    7SAPS   H7S  848   3.839   1.571   9.366  1.5978 -0.3145 -0.6625
    7SAPS   C28  849   3.748   1.405   9.247 -0.2182 -0.0509 -0.6920
    7SAPS   H8R  850   3.706   1.304   9.258 -0.2209  0.0825  0.6463
    7SAPS   C29  851   3.764   1.452   9.121 -0.5992 -0.8574  0.0292
    7SAPS   H9R  852   3.728   1.396   9.034  1.0665 -0.9996 -0.5982
    7SAPS  C210  853   3.838   1.581   9.082  0.3561 -0.1317 -0.5456
    7SAPS  H10R  854   3.833   1.655   9.166 -0.9657  3.3350 -3.4065
    7SAPS  H10S  855   3.787   1.622   8.992 -2.0364 -1.3208  0.2062
    7SAPS  C211  856   3.985   1.554   9.056  0.0278 -0.8871 -0.9170
    7SAPS  H11R  857   4.034   1.477   9.116 -0.9657 -0.8227  0.0146
    7SAPS  C212  858   4.053   1.618   8.964 -0.3073  0.1655  0.3581
    7SAPS  H12R  859   4.149   1.568   8.945 -0.4688 -0.2656  0.6636
    7SAPS  C213  860   4.011   1.722   8.871  0.4071  0.1877 -0.0510
    7SAPS  H13R  861   4.022   1.819   8.924  3.1472  0.6283 -1.2632
    7SAPS  H13S  862   3.904   1.712   8.843  0.7582 -0.7595 -1.1404
    7SAPS  C214  863   4.101   1.717   8.752 -0.2589  0.3764 -0.4294
    7SAPS  H14R  864   4.187   1.783   8.770 -1.8710  2.0700  1.6221
    7SAPS  C215  865   4.087   1.651   8.633 -0.5288 -0.4149 -0.0711
    7SAPS  H15R  866   4.162   1.664   8.554 -0.9312  0.3167 -0.3432
    7SAPS  C216  867   3.965   1.566   8.602 -0.7942  0.5261  0.5336
    7SAPS  H16R  868   3.918   1.585   8.503  1.1147 -0.2807 -0.5895
    7SAPS  H16S  869   3.889   1.588   8.680 -1.4615 -1.8580  0.6297
    7SAPS  C217  870   3.981   1.412   8.616 -0.5367 -0.1186 -0.4300
    7SAPS  H17R  871   3.886   1.367   8.652  0.8491 -2.3091  0.6491
    7SAPS  H17S  872   4.053   1.395   8.699 -1.4103  1.5814  0.7344
    7SAPS  C218  873   4.029   1.334   8.498  0.0342  0.4242 -0.4013
    7SAPS  H18R  874   3.960   1.333   8.411  0.9859  0.6450 -1.1747
    7SAPS  H18S  875   4.035   1.229   8.532 -2.9109  0.9143  2.0077
    7SAPS  C219  876   4.165   1.381   8.434  0.3675 -0.3556  0.5017
    7SAPS  H19R  877   4.246   1.380   8.511  0.2117  4.8925  1.0544
    7SAPS  H19S  878   4.150   1.485   8.399 -1.2437 -1.1816 -1.4225
    7SAPS  C220  879   4.207   1.297   8.304 -0.4206 -0.2434  0.4514
    7SAPS  H20R  880   4.199   1.187   8.322 -1.9717 -0.1682  0.3602
    7SAPS  H20S  881   4.314   1.323   8.292 -0.6426  0.0295 -1.0947
    7SAPS  H20T  882   4.145   1.313   8.213 -2.3980 -0.5642  1.6699
    7SAPS   C33  883   3.955   2.210  10.034  0.5722  0.5509 -0.2455
    7SAPS   H3X  884   3.974   2.226  10.143 -0.8805  2.0568 -0.1762
    7SAPS   H3Y  885   3.849   2.242  10.025 -0.6883 -2.2622  2.5524
    7SAPS   C34  886   4.048   2.297   9.949  0.2541  1.7638  1.3659
    7SAPS   H4X  887   4.146   2.246   9.942 -0.9334 -0.8767  2.6790
    7SAPS   H4Y  888   4.073   2.390  10.005  2.1742  0.3334  3.0511
    7SAPS   C35  889   3.984   2.323   9.809  0.1132  0.6685 -0.5518
    7SAPS   H5X  890   3.886   2.369   9.831 -0.0654  0.0253  0.0250
    7SAPS   H5Y  891   3.981   2.221   9.767 -1.0335 -0.2242  1.5433
    7SAPS   C36  892   4.058   2.425   9.729  0.2034 -0.4730  0.0744
    7SAPS   H6X  893   4.062   2.518   9.790 -0.8121 -1.2672  1.4263
    7SAPS   H6Y  894   4.002   2.458   9.639 -1.9707 -0.6586  1.2754
    7SAPS   C37  895   4.194   2.378   9.688 -1.0089 -0.5073  0.2166
    7SAPS   H7X  896   4.191   2.273   9.652  0.3333 -0.1461 -1.0165
    7SAPS   H7Y  897   4.274   2.376   9.765  0.0343  0.3642 -0.8210
    7SAPS   C38  898   4.245   2.464   9.570 -0.3397 -0.0780  0.0956
    7SAPS   H8X  899   4.246   2.569   9.607 -3.5485  0.4988 -1.1842
    7SAPS   H8Y  900   4.175   2.453   9.485 -1.9492 -0.8513  1.4739
    7SAPS   C39  901   4.377   2.405   9.521 -0.8505  1.3551  0.2895
    7SAPS   H9X  902   4.375   2.296   9.542  0.6764  1.1832 -0.2848
    7SAPS   H9Y  903   4.458   2.455   9.579  0.4552  0.8181 -1.0173
    7SAPS  C310  904   4.397   2.418   9.378  0.2842  0.3476  1.1695
    7SAPS  H10X  905   4.340   2.501   9.331 -2.5062 -1.4386  1.1355
    7SAPS  H10Y  906   4.356   2.326   9.331 -0.4701  0.8319  0.8567
    7SAPS  C311  907   4.542   2.420   9.330  0.4678 -0.7359 -0.5830
    7SAPS  H11X  908   4.598   2.347   9.392  0.8049 -0.5520 -0.6688
    7SAPS  H11Y  909   4.583   2.523   9.344 -0.4304 -0.4597  0.1207
    7SAPS  C312  910   4.545   2.380   9.192 -0.4297 -0.0867  0.5765
    7SAPS  H12X  911   4.525   2.273   9.173  0.2563 -0.0939 -0.1857
    7SAPS  H12Y  912   4.648   2.392   9.151 -0.0369 -0.1018  1.5323
    7SAPS  C313  913   4.451   2.466   9.099 -0.5312  1.0506  0.3395
    7SAPS  H13X  914   4.346   2.439   9.125 -0.5315  0.5403 -0.1827
    7SAPS  H13Y  915   4.475   2.429   8.997  1.3951  0.4415  0.9745
    7SAPS  C314  916   4.469   2.618   9.099  0.2768  0.0224 -0.0779
    7SAPS  H14X  917   4.579   2.631   9.101  0.4349 -1.2139 -0.1183
    7SAPS  H14Y  918   4.438   2.663   9.196  1.0990 -0.9950  0.6799
    7SAPS  C315  919   4.423   2.691   8.979  0.2014  0.3564  0.2454
    7SAPS  H15X  920   4.312   2.691   8.976  0.1997 -1.0394 -1.6439
    7SAPS  H15Y  921   4.458   2.627   8.894  0.2361  1.3163 -0.4751
    7SAPS  C316  922   4.492   2.834   8.955 -0.3202  0.2806  0.4135
    7SAPS  H16X  923   4.596   2.793   8.949 -0.7574 -0.7764 -0.2258
    7SAPS  H16Y  924   4.496   2.897   9.046 -0.5115  0.3358  0.3829
    7SAPS  C317  925   4.460   2.906   8.827  0.0033 -0.5270  0.1181
    7SAPS  H17X  926   4.352   2.932   8.825  0.0305 -0.4696 -0.7783
    7SAPS  H17Y  927   4.475   2.842   8.738 -2.2375  0.0197 -0.7251
    7SAPS  C318  928   4.547   3.033   8.813  0.5475  0.4844 -0.3566
    7SAPS  H18X  929   4.651   2.998   8.832  0.9196  0.0890 -2.7389
    7SAPS  H18Y  930   4.513   3.103   8.892 -0.4379 -0.8949  0.4776
    7SAPS  H18Z  931   4.542   3.079   8.711  0.4288  1.4037  0.0540
    8SAPS     N  932   3.691   1.633  11.208  0.3868  0.2290 -0.4408
    8SAPS   HN1  933   3.600   1.584  11.219  0.1498  0.7743  0.0916
    8SAPS   HN2  934   3.694   1.668  11.110  2.2230 -1.2562 -0.9952
    8SAPS   HN3  935   3.774   1.572  11.227  1.3301  1.9172  1.1526
    8SAPS   C12  936   3.678   1.759  11.277  0.1614 -0.2844 -0.0602
    8SAPS  H12A  937   3.578   1.792  11.254  0.2026 -0.6016 -0.7321
    8SAPS   C13  938   3.702   1.737  11.429  1.1743  0.2674  0.3262
    8SAPS  O13A  939   3.725   1.622  11.471  0.3678 -0.2753  0.0148
    8SAPS  O13B  940   3.681   1.839  11.504 -0.5959  0.6178 -0.1571
    8SAPS   C11  941   3.772   1.870  11.215 -0.0175  0.1668  0.3780
    8SAPS  H11A  942   3.877   1.833  11.214  0.1114  0.4471  1.7499
    8SAPS  H11B  943   3.764   1.956  11.283  0.5758 -0.0541  0.7372
    8SAPS     P  944   3.837   1.975  10.992  0.0197  0.2539  0.3117
    8SAPS   O13  945   3.901   2.075  11.070 -0.4691 -0.8587  0.0602
    8SAPS   O14  946   3.924   1.862  10.936  0.3717 -0.4141 -0.6134
    8SAPS   O12  947   3.724   1.905  11.084  0.5877 -0.2221  0.9926
    8SAPS   O11  948   3.752   2.046  10.874 -0.6698 -0.2196 -0.2896
    8SAPS    C1  949   3.671   2.164  10.897 -0.0447 -0.2404  0.1732
    8SAPS    HA  950   3.569   2.141  10.934 -0.8199  1.0548 -1.0623
    8SAPS    HB  951   3.719   2.227  10.975 -0.3119  2.9472 -2.0473
    8SAPS    C2  952   3.650   2.250  10.766  0.0923  0.2622 -0.1390
    8SAPS    HS  953   3.604   2.183  10.690  0.1945 -1.7605  1.5031
    8SAPS   O21  954   3.776   2.309  10.730 -0.0153  0.3004  0.2116
    8SAPS   C21  955   3.792   2.310  10.600 -0.2110 -0.6374 -0.6661
    8SAPS   O22  956   3.717   2.262  10.517 -0.6812 -0.4747 -0.0791
    8SAPS   C22  957   3.922   2.379  10.562 -0.9767  0.1046  0.1966
    8SAPS   H2R  958   3.964   2.421  10.655 -0.6593  1.9600 -0.7352
    8SAPS   H2S  959   3.995   2.302  10.528  0.6756  1.6237  0.1777
    8SAPS    C3  960   3.548   2.368  10.810  0.1725  0.0053 -0.4606
    8SAPS    HX  961   3.597   2.423  10.894 -1.1233  2.7116 -1.3730
    8SAPS    HY  962   3.457   2.317  10.847  1.0311 -1.0526  0.2348
    8SAPS   O31  963   3.530   2.465  10.698 -0.1084 -0.4061  0.7264
    8SAPS   C31  964   3.443   2.419  10.610 -0.1934  0.3574  0.1739
    8SAPS   O32  965   3.364   2.328  10.623 -0.5305  0.1067 -0.0343
    8SAPS   C32  966   3.463   2.500  10.482  0.1720 -0.0146 -0.2982
    8SAPS   H2X  967   3.572   2.485  10.466  0.2430 -1.9535  1.5735
    8SAPS   H2Y  968   3.443   2.609  10.494 -1.9577 -0.3635 -0.2860
    8SAPS   C23  969   3.908   2.498  10.467  0.0431 -0.0554  0.3143
    8SAPS   H3R  970   3.988   2.568  10.498 -1.7610  2.4381 -0.3273
    8SAPS   H3S  971   3.809   2.548  10.470 -2.0028 -3.8316  1.4390
    8SAPS   C24  972   3.944   2.464  10.321 -0.4700  0.0666  0.6292
    8SAPS   H4R  973   4.025   2.387  10.321 -1.1360 -0.6844 -1.1944
    8SAPS   H4S  974   3.994   2.549  10.270  1.7758 -1.1582  0.6544
    8SAPS   C25  975   3.811   2.417  10.256  0.1551  0.2490 -0.4208
    8SAPS   H5R  976   3.772   2.326  10.303  1.6445 -0.5020 -0.5834
    8SAPS   C26  977   3.731   2.482  10.169 -0.3338 -0.0974  0.0123
    8SAPS   H6R  978   3.642   2.430  10.130 -1.0542 -1.3995  3.0377
    8SAPS   C27  979   3.769   2.618  10.115  0.0522  0.0799 -0.3254
    8SAPS   H7R  980   3.835   2.604  10.027  0.5009  0.5244 -0.0639
    8SAPS   H7S  981   3.838   2.658  10.193  1.6784 -0.9623 -1.1686
    8SAPS   C28  982   3.652   2.707  10.092  0.0107 -0.2608 -0.6544
    8SAPS   H8R  983   3.619   2.765  10.179 -1.2465 -1.4568 -0.3048
    8SAPS   C29  984   3.584   2.715   9.977 -0.1694  0.2519  0.1425
    8SAPS   H9R  985   3.515   2.799   9.963  0.0541  0.1985 -1.3801
    8SAPS  C210  986   3.606   2.631   9.849  1.4478 -0.2849  0.0435
    8SAPS  H10R  987   3.688   2.557   9.864  0.2737 -1.7173 -0.3942
    8SAPS  H10S  988   3.641   2.692   9.763 -3.6394  1.9042 -0.8276
    8SAPS  C211  989   3.485   2.548   9.803 -0.6709 -0.1130 -0.6164
    8SAPS  H11R  990   3.415   2.519   9.883  1.2810 -2.5004  0.3355
    8SAPS  C212  991   3.446   2.524   9.677 -0.7190 -0.5927  0.6479
    8SAPS  H12R  992   3.357   2.460   9.675 -1.3129  0.2351  0.1445
    8SAPS  C213  993   3.510   2.582   9.551 -0.0491  0.5892 -0.9840
    8SAPS  H13R  994   3.587   2.659   9.574 -2.2244  2.2186  1.2625
    8SAPS  H13S  995   3.435   2.626   9.482 -2.1464 -0.7730  0.3283
    8SAPS  C214  996   3.581   2.463   9.492 -0.3705 -0.9376 -0.2066
    8SAPS  H14R  997   3.651   2.425   9.568 -0.5162  0.7199  0.8145
    8SAPS  C215  998   3.578   2.411   9.369  0.3157  0.2869 -0.3057
    8SAPS  H15R  999   3.638   2.321   9.347 -0.3816 -0.6026  1.3207
    8SAPS  C216 1000   3.496   2.451   9.243  0.5198  0.6249 -0.2778
    8SAPS  H16R 1001   3.418   2.526   9.270  1.3366  1.8943 -1.3294
    8SAPS  H16S 1002   3.457   2.367   9.180  4.3418 -0.6793 -1.1581
    8SAPS  C217 1003   3.571   2.530   9.136  0.0420  0.2919  0.1106
    8SAPS  H17R 1004   3.625   2.453   9.078 -1.3170 -1.8988  1.6048
    8SAPS  H17S 1005   3.642   2.604   9.180  1.4167 -0.7457 -0.2973
    8SAPS  C218 1006   3.484   2.604   9.042  0.4214 -0.5956 -0.5922
    8SAPS  H18R 1007   3.415   2.680   9.085  1.5842  1.4134 -2.0507
    8SAPS  H18S 1008   3.424   2.528   8.989  0.8417 -0.3512 -1.4408
    8SAPS  C219 1009   3.554   2.670   8.922  0.5447 -0.8488  0.2177
    8SAPS  H19R 1010   3.645   2.612   8.896  0.9068  0.1087 -0.7144
    8SAPS  H19S 1011   3.590   2.773   8.943 -1.9523  0.9369 -3.2763
    8SAPS  C220 1012   3.472   2.676   8.797 -0.3701 -0.4559  0.1562
    8SAPS  H20R 1013   3.437   2.574   8.770  0.6692 -1.1544  1.3105
    8SAPS  H20S 1014   3.541   2.723   8.723 -1.2086 -0.9525 -0.9711
    8SAPS  H20T 1015   3.383   2.738   8.821 -0.0006  0.2416 -0.2532
    8SAPS   C33 1016   3.399   2.445  10.357  1.3917 -0.7328  0.9460
    8SAPS   H3X 1017   3.428   2.340  10.332  1.8559 -0.6209  1.0208
    8SAPS   H3Y 1018   3.438   2.513  10.279 -1.7158  2.9036  2.2537
    8SAPS   C34 1019   3.245   2.444  10.346 -0.7613  0.0454  0.0584
    8SAPS   H4X 1020   3.209   2.542  10.307  1.2547  0.6665 -0.3748
    8SAPS   H4Y 1021   3.201   2.440  10.448 -0.6356  2.4620  0.2693
    8SAPS   C35 1022   3.172   2.337  10.263  0.1470 -0.1180  0.6207
    8SAPS   H5X 1023   3.064   2.345  10.289 -0.5383  1.8117 -2.2672
    8SAPS   H5Y 1024   3.206   2.239  10.301  0.0146 -0.6232 -0.5198
    8SAPS   C36 1025   3.203   2.358  10.115  0.0534 -0.1946  0.8318
    8SAPS   H6X 1026   3.311   2.380  10.103 -0.2534  0.9802  0.0043
    8SAPS   H6Y 1027   3.151   2.450  10.083 -0.7864 -1.5790 -2.2254
    8SAPS   C37 1028   3.158   2.233  10.026 -0.7576  0.1523 -0.3036
    8SAPS   H7X 1029   3.167   2.148  10.097  0.3824  0.1170 -0.4703
    8SAPS   H7Y 1030   3.233   2.217   9.945 -1.9002  1.9720 -1.8061
    8SAPS   C38 1031   3.020   2.248   9.969 -0.5682  0.4061 -0.7063
    8SAPS   H8X 1032   2.956   2.317  10.028 -0.2920  1.1835 -1.3022
    8SAPS   H8Y 1033   2.967   2.150   9.968 -0.8232  0.5233  0.2954
    8SAPS   C39 1034   3.043   2.306   9.825  0.8155  0.0446  0.0002
    8SAPS   H9X 1035   3.149   2.325   9.798  0.5900  0.6999 -0.4412
    8SAPS   H9Y 1036   2.977   2.395   9.822  0.1452 -0.4597 -0.3046
    8SAPS  C310 1037   2.995   2.208   9.716  0.3245  0.2371 -0.2258
    8SAPS  H10X 1038   2.884   2.213   9.707  0.1056  1.7102  2.2536
    8SAPS  H10Y 1039   3.032   2.105   9.734  0.1422  0.2876  0.4650
    8SAPS  C311 1040   3.051   2.247   9.579  0.5519  0.3461  0.5091
    8SAPS  H11X 1041   3.069   2.356   9.582  1.6351  0.1768  0.5142
    8SAPS  H11Y 1042   2.973   2.233   9.501  2.7100 -0.2702 -1.6657
    8SAPS  C312 1043   3.176   2.173   9.536  0.2444 -0.6684 -0.4465
    8SAPS  H12X 1044   3.150   2.066   9.523  0.9279 -1.3295  2.6987
    8SAPS  H12Y 1045   3.248   2.183   9.620 -0.2381 -1.0343  0.0176
    8SAPS  C313 1046   3.237   2.232   9.403 -0.0792  0.3688 -0.6745
    8SAPS  H13X 1047   3.331   2.176   9.384 -0.2840 -0.1763 -0.1037
    8SAPS  H13Y 1048   3.267   2.335   9.431  0.0670  0.4798 -1.2190
    8SAPS  C314 1049   3.148   2.248   9.282  0.2565 -0.0631  0.5558
    8SAPS  H14X 1050   3.203   2.321   9.219  2.0560 -0.3524  1.7003
    8SAPS  H14Y 1051   3.062   2.315   9.304 -1.4514 -1.6473 -0.9748
    8SAPS  C315 1052   3.094   2.125   9.207  0.3892 -0.1526  0.5483
    8SAPS  H15X 1053   3.025   2.065   9.270 -0.2336  0.8203  0.8270
    8SAPS  H15Y 1054   3.174   2.057   9.173 -0.5272 -0.3710 -1.3309
    8SAPS  C316 1055   3.007   2.149   9.075 -0.1305  0.1475  0.2339
    8SAPS  H16X 1056   2.920   2.213   9.101  1.3803  1.1120  3.5428
    8SAPS  H16Y 1057   2.979   2.050   9.034 -2.0467 -0.7450  3.3683
    8SAPS  C317 1058   3.085   2.218   8.962  1.0685  0.1552 -0.2125
    8SAPS  H17X 1059   3.108   2.320   8.999  2.3445 -0.7970  1.8076
    8SAPS  H17Y 1060   3.016   2.218   8.874 -1.1178  3.8263  1.2644
    8SAPS  C318 1061   3.216   2.156   8.925 -0.2553 -0.1232  0.8252
    8SAPS  H18X 1062   3.295   2.187   8.996  1.2842 -2.1889  0.1138
    8SAPS  H18Y 1063   3.236   2.190   8.821 -1.9896 -1.5721 -0.0285
    8SAPS  H18Z 1064   3.221   2.046   8.915  0.8705  0.0035 -0.4106
    9SAPS     N 1065   2.645   4.080   6.103  0.4695  0.0969  0.1273
    9SAPS   HN1 1066   2.652   4.130   6.012  0.6129  1.1352  0.7036
    9SAPS   HN2 1067   2.652   3.984   6.062 -0.8807 -0.1619  0.4315
    9SAPS   HN3 1068   2.555   4.089   6.155  1.4166  1.0482  1.6787
    9SAPS   C12 1069   2.757   4.138   6.181  0.3647  1.0884 -0.2471
    9SAPS  H12A 1070   2.722   4.131   6.283 -0.5420  0.3095 -0.5910
    9SAPS   C13 1071   2.891   4.059   6.164  0.1735  0.3756 -0.0552
    9SAPS  O13A 1072   2.889   3.962   6.081 -0.0913 -0.2556 -0.5133
    9SAPS  O13B 1073   2.997   4.101   6.212  0.1611  0.3479  0.2419
    9SAPS   C11 1074   2.776   4.293   6.144  0.7484  0.3836  1.0005
    9SAPS  H11A 1075   2.792   4.288   6.034  0.8728 -0.2872  1.0442
    9SAPS  H11B 1076   2.871   4.335   6.185  0.2248  2.6706  0.0177
    9SAPS     P 1077   2.676   4.521   6.211 -0.3177 -0.0206 -0.3235
    9SAPS   O13 1078   2.749   4.578   6.095  0.5329 -0.2245 -0.7247
    9SAPS   O14 1079   2.545   4.577   6.233 -0.2413  0.3787 -0.0837
    9SAPS   O12 1080   2.661   4.370   6.180 -0.4849  0.1602 -0.1101
    9SAPS   O11 1081   2.767   4.504   6.337 -0.3663 -0.0039 -0.1766
    9SAPS    C1 1082   2.726   4.429   6.457 -0.0078  0.3134  0.3405
    9SAPS    HA 1083   2.669   4.336   6.437 -0.5456  0.7164 -0.0301
    9SAPS    HB 1084   2.820   4.394   6.506 -0.3785 -1.8468 -0.4004
    9SAPS    C2 1085   2.649   4.519   6.560  0.2887  0.0776  0.5539
    9SAPS    HS 1086   2.557   4.551   6.508  1.0608  2.1653  0.3804
    9SAPS   O21 1087   2.733   4.628   6.590  0.4355  0.2428  0.0691
    9SAPS   C21 1088   2.678   4.747   6.618  0.1596 -1.4254  0.4238
    9SAPS   O22 1089   2.556   4.770   6.612 -0.3863  0.4518  0.1775
    9SAPS   C22 1090   2.789   4.852   6.637  0.0896  0.1381  0.3160
    9SAPS   H2R 1091   2.846   4.829   6.730 -2.5668 -0.5377  1.8799
    9SAPS   H2S 1092   2.848   4.856   6.543  0.7143 -0.3847  0.6788
    9SAPS    C3 1093   2.603   4.436   6.686  0.1223 -0.3379 -0.3907
    9SAPS    HX 1094   2.693   4.389   6.730  1.6920  2.9543  0.2841
    9SAPS    HY 1095   2.534   4.359   6.646  0.2650  0.1190 -1.5730
    9SAPS   O31 1096   2.547   4.522   6.788 -0.8700  0.5664  0.1732
    9SAPS   C31 1097   2.422   4.559   6.770 -0.0213  0.6710  0.2117
    9SAPS   O32 1098   2.352   4.513   6.681 -0.2412 -0.0454  0.8504
    9SAPS   C32 1099   2.381   4.665   6.870 -0.2924  0.3849 -0.3288
    9SAPS   H2X 1100   2.441   4.757   6.853  0.9397 -0.5012 -0.9209
    9SAPS   H2Y 1101   2.412   4.626   6.970 -0.3350  0.6309 -0.2197
    9SAPS   C23 1102   2.737   4.997   6.646 -0.0846  0.1126 -0.2509
    9SAPS   H3R 1103   2.662   5.015   6.726  1.1300  0.4655  0.8504
    9SAPS   H3S 1104   2.694   5.027   6.548 -0.5398  0.6614  0.1027
    9SAPS   C24 1105   2.848   5.104   6.677  0.2964 -0.5450 -0.7311
    9SAPS   H4R 1106   2.926   5.119   6.598  1.2106  3.6330  0.7356
    9SAPS   H4S 1107   2.898   5.063   6.767 -1.4828 -1.0775  0.0450
    9SAPS   C25 1108   2.794   5.246   6.696  0.3744 -0.7622 -0.4732
    9SAPS   H5R 1109   2.770   5.295   6.600  1.2151  0.7950  0.0753
    9SAPS   C26 1110   2.811   5.325   6.800 -0.6631  0.0083 -0.9596
    9SAPS   H6R 1111   2.768   5.426   6.790 -4.6029 -1.2802  0.9191
    9SAPS   C27 1112   2.874   5.296   6.937  0.1461 -0.7483 -0.3253
    9SAPS   H7R 1113   2.927   5.389   6.968 -1.0560  0.5894 -2.0782
    9SAPS   H7S 1114   2.961   5.227   6.937 -0.8572 -2.0986  1.4953
    9SAPS   C28 1115   2.783   5.233   7.037 -0.7061  0.3645 -0.1995
    9SAPS   H8R 1116   2.706   5.171   6.989  0.4970 -0.0095 -1.7093
    9SAPS   C29 1117   2.797   5.229   7.168 -0.4116 -0.2816  0.4046
    9SAPS   H9R 1118   2.714   5.188   7.228  1.3127 -0.2856  2.9549
    9SAPS  C210 1119   2.904   5.308   7.235 -0.1579  0.6770 -0.2674
    9SAPS  H10R 1120   2.861   5.335   7.334 -3.4869  1.3281 -1.7374
    9SAPS  H10S 1121   2.911   5.408   7.188 -0.2730 -0.0936 -2.0345
    9SAPS  C211 1122   3.040   5.248   7.244  0.1464  0.1968  0.4388
    9SAPS  H11R 1123   3.067   5.195   7.151 -1.3113  2.0755 -1.1322
    9SAPS  C212 1124   3.131   5.258   7.345  0.0754 -0.3649 -0.2757
    9SAPS  H12R 1125   3.235   5.225   7.331  0.0778 -0.1644 -0.7573
    9SAPS  C213 1126   3.101   5.338   7.473  0.2596  0.6143 -0.9032
    9SAPS  H13R 1127   3.058   5.435   7.440 -1.5795 -0.0424 -0.5138
    9SAPS  H13S 1128   3.199   5.361   7.520  0.2006  0.7073 -0.8256
    9SAPS  C214 1129   2.997   5.270   7.559  0.0472  0.2865  0.2858
    9SAPS  H14R 1130   2.955   5.180   7.511  0.2977  1.1328 -1.6261
    9SAPS  C215 1131   2.976   5.302   7.683 -0.0148 -0.7937 -0.8935
    9SAPS  H15R 1132   2.912   5.247   7.754 -0.3613  0.6578 -0.0595
    9SAPS  C216 1133   3.051   5.417   7.747 -0.1651  0.0481 -0.8275
    9SAPS  H16R 1134   3.042   5.508   7.684  0.6170  1.7969  1.4307
    9SAPS  H16S 1135   3.160   5.396   7.752  0.5110  2.8563 -1.8066
    9SAPS  C217 1136   2.993   5.449   7.885 -0.3756  0.3338 -0.4325
    9SAPS  H17R 1137   2.885   5.468   7.872 -0.4319 -0.5547 -1.4301
    9SAPS  H17S 1138   3.029   5.546   7.925  0.6651 -0.0827 -0.3107
    9SAPS  C218 1139   3.029   5.335   7.987 -0.0679 -0.3764  0.2137
    9SAPS  H18R 1140   3.138   5.350   8.007  0.4080  0.8816 -2.8052
    9SAPS  H18S 1141   3.023   5.237   7.936  0.4056  0.2918 -1.1559
    9SAPS  C219 1142   2.956   5.347   8.118  0.4485  0.4371  0.2927
    9SAPS  H19R 1143   2.850   5.357   8.086  0.2253  1.9393  1.3560
    9SAPS  H19S 1144   2.981   5.434   8.183 -1.6623  0.2031  1.5159
    9SAPS  C220 1145   2.966   5.227   8.206  0.4165 -0.3704 -0.2978
    9SAPS  H20R 1146   2.891   5.238   8.287 -0.2633  0.0361 -0.9739
    9SAPS  H20S 1147   3.069   5.207   8.243  0.2206 -0.1954  0.3637
    9SAPS  H20T 1148   2.943   5.142   8.139  0.7991 -1.6563  1.1275
    9SAPS   C33 1149   2.226   4.694   6.869 -0.1188  0.0670 -0.0644
    9SAPS   H3X 1150   2.172   4.597   6.866  0.5240 -0.3813  1.7942
    9SAPS   H3Y 1151   2.204   4.751   6.776  1.0890  1.6650  0.5883
    9SAPS   C34 1152   2.180   4.784   6.984 -0.3194  0.4260 -0.3865
    9SAPS   H4X 1153   2.072   4.809   6.973  0.1069  1.8662 -1.4783
    9SAPS   H4Y 1154   2.231   4.881   6.972 -1.4527  1.0749 -0.0955
    9SAPS   C35 1155   2.202   4.718   7.125 -0.3477  0.1587  0.4023
    9SAPS   H5X 1156   2.312   4.706   7.140  0.2733  0.5939 -2.9741
    9SAPS   H5Y 1157   2.159   4.616   7.129 -1.9686  0.8413  3.8782
    9SAPS   C36 1158   2.157   4.794   7.249  0.1414  0.3215 -1.0725
    9SAPS   H6X 1159   2.047   4.806   7.252  0.2614  1.2261  0.4595
    9SAPS   H6Y 1160   2.190   4.900   7.249 -0.5673  0.5771  0.5177
    9SAPS   C37 1161   2.191   4.723   7.388 -0.3054  0.6612  0.4333
    9SAPS   H7X 1162   2.295   4.685   7.391 -1.3520 -2.3373  2.5579
    9SAPS   H7Y 1163   2.124   4.635   7.392  1.7825 -1.1304 -1.4258
    9SAPS   C38 1164   2.178   4.820   7.511  0.1693  0.2947  0.0523
    9SAPS   H8X 1165   2.264   4.890   7.503  0.2367  0.4162  1.4649
    9SAPS   H8Y 1166   2.203   4.759   7.601  1.2209  0.3925 -0.1579
    9SAPS   C39 1167   2.047   4.894   7.528 -1.1045 -0.2008  1.2643
    9SAPS   H9X 1168   1.961   4.823   7.530 -1.6975  0.3354 -1.1137
    9SAPS   H9Y 1169   2.029   4.965   7.444 -0.0301  1.0537  2.0533
    9SAPS  C310 1170   2.043   4.964   7.667 -0.0767 -0.1953  0.1001
    9SAPS  H10X 1171   1.975   5.051   7.676  0.2821 -0.0848  2.0710
    9SAPS  H10Y 1172   2.145   4.996   7.697  1.0187 -2.8705 -0.4554
    9SAPS  C311 1173   2.013   4.866   7.777  0.0689  0.4100 -0.0415
    9SAPS  H11X 1174   2.049   4.764   7.750 -1.8570 -0.4721  0.4610
    9SAPS  H11Y 1175   1.905   4.865   7.803  0.5867  1.0675  2.4585
    9SAPS  C312 1176   2.072   4.919   7.904 -0.2287 -0.1016 -0.0007
    9SAPS  H12X 1177   2.079   5.029   7.888 -2.1927  0.0878  0.2073
    9SAPS  H12Y 1178   2.168   4.870   7.932  0.7505  0.5843 -2.0135
    9SAPS  C313 1179   1.989   4.893   8.030  0.1343  0.7533  0.0447
    9SAPS  H13X 1180   1.985   4.783   8.044 -1.9315  0.1927 -3.6343
    9SAPS  H13Y 1181   1.886   4.933   8.018 -1.2235 -2.1295  0.9311
    9SAPS  C314 1182   2.054   4.942   8.165  0.0064 -0.2762  0.8170
    9SAPS  H14X 1183   2.090   5.047   8.157 -0.6577 -0.1606 -1.2743
    9SAPS  H14Y 1184   2.139   4.874   8.190 -1.5881 -2.9628 -0.5697
    9SAPS  C315 1185   1.960   4.944   8.287 -0.2356  0.1057 -0.1677
    9SAPS  H15X 1186   1.863   4.977   8.245  0.2073 -1.3267 -2.5313
    9SAPS  H15Y 1187   2.001   5.019   8.358  1.2261  2.0492 -2.8597
    9SAPS  C316 1188   1.942   4.801   8.344  0.2854  0.4152  0.0078
    9SAPS  H16X 1189   2.039   4.751   8.364  0.8056  1.5141  0.3211
    9SAPS  H16Y 1190   1.893   4.739   8.266  1.1101 -0.7983  0.4324
    9SAPS  C317 1191   1.872   4.794   8.476  0.8722  0.0853 -0.5884
    9SAPS  H17X 1192   1.917   4.873   8.541  0.3896 -0.8657  0.9651
    9SAPS  H17Y 1193   1.857   4.694   8.522  0.5137  0.5369  0.3052
    9SAPS  C318 1194   1.736   4.865   8.473 -0.3818 -0.2987 -0.2944
    9SAPS  H18X 1195   1.681   4.857   8.570 -2.0482  2.0599 -0.9607
    9SAPS  H18Y 1196   1.660   4.822   8.403  0.6723 -1.1206 -0.9606
    9SAPS  H18Z 1197   1.752   4.970   8.440 -0.6410  0.1929  1.0911
   10SAPS     N 1198   5.888   3.501   6.265 -0.3901 -0.7095 -0.2965
   10SAPS   HN1 1199   5.965   3.441   6.301  0.8092  1.1636  0.4404
   10SAPS   HN2 1200   5.794   3.464   6.291 -2.1592  3.6937  0.3788
   10SAPS   HN3 1201   5.890   3.504   6.161  1.7904 -2.7160 -0.3876
   10SAPS   C12 1202   5.901   3.641   6.325  0.2891  0.6090  0.0099
   10SAPS  H12A 1203   5.865   3.629   6.426 -2.6442 -0.7727 -1.0932
   10SAPS   C13 1204   6.049   3.683   6.320 -0.3044 -0.7731  0.4949
   10SAPS  O13A 1205   6.074   3.795   6.365  0.2328  0.7977 -0.0018
   10SAPS  O13B 1206   6.132   3.608   6.263 -0.5624 -0.1633  0.2096
   10SAPS   C11 1207   5.815   3.741   6.251  1.2183 -0.2414  0.7445
   10SAPS  H11A 1208   5.853   3.753   6.147 -2.8567  2.4711 -0.6662
   10SAPS  H11B 1209   5.830   3.842   6.296  2.5868 -0.2445  0.3325
   10SAPS     P 1210   5.573   3.795   6.167 -0.0885  0.3151  0.2430
   10SAPS   O13 1211   5.638   3.914   6.111 -0.2228 -0.1107  0.1766
   10SAPS   O14 1212   5.487   3.710   6.076  0.7231 -0.1239  1.1911
   10SAPS   O12 1213   5.672   3.709   6.244 -0.1733  0.6140 -0.1362
   10SAPS   O11 1214   5.472   3.850   6.279 -0.2136 -0.2198 -0.2139
   10SAPS    C1 1215   5.417   3.766   6.379  0.5660 -0.2707  0.6314
   10SAPS    HA 1216   5.307   3.760   6.365  0.1526  3.4117  1.1863
   10SAPS    HB 1217   5.464   3.666   6.384  0.9774 -0.0608  1.0817
   10SAPS    C2 1218   5.440   3.828   6.525  0.2805 -0.6595  0.1263
   10SAPS    HS 1219   5.383   3.754   6.586  0.1185 -0.5314  0.1299
   10SAPS   O21 1220   5.411   3.967   6.538 -0.1423 -0.0682 -0.0639
   10SAPS   C21 1221   5.372   4.008   6.661 -0.2332  0.1038  0.1919
   10SAPS   O22 1222   5.372   3.939   6.761  0.0346  0.4338  0.6729
   10SAPS   C22 1223   5.322   4.153   6.651  0.1266 -0.2451 -0.0364
   10SAPS   H2R 1224   5.371   4.211   6.569  0.3192 -1.8748 -1.1110
   10SAPS   H2S 1225   5.214   4.141   6.625  0.2484 -2.5862  0.3993
   10SAPS    C3 1226   5.592   3.807   6.551 -0.2375 -0.5027  0.0686
   10SAPS    HX 1227   5.637   3.882   6.482  0.0910  1.4742  2.2912
   10SAPS    HY 1228   5.622   3.707   6.514 -0.7556 -1.5936  2.4129
   10SAPS   O31 1229   5.641   3.829   6.689  0.1373 -0.4333 -0.0049
   10SAPS   C31 1230   5.623   3.722   6.759  0.0491  0.0467 -0.0454
   10SAPS   O32 1231   5.576   3.618   6.711 -0.0509  0.5401 -0.0965
   10SAPS   C32 1232   5.640   3.775   6.900 -0.3177 -0.0855  0.2891
   10SAPS   H2X 1233   5.546   3.817   6.942  0.3154  3.0148 -1.1046
   10SAPS   H2Y 1234   5.713   3.859   6.906  0.2708 -0.2887 -2.6596
   10SAPS   C23 1235   5.317   4.232   6.781 -0.3860 -0.4676 -0.2508
   10SAPS   H3R 1236   5.267   4.170   6.858  1.3617 -2.8368 -0.9045
   10SAPS   H3S 1237   5.260   4.325   6.761 -3.1042 -1.5616  1.7900
   10SAPS   C24 1238   5.462   4.270   6.828  0.5132 -1.3555 -0.3481
   10SAPS   H4R 1239   5.438   4.350   6.901 -2.0596 -2.7765  0.5096
   10SAPS   H4S 1240   5.511   4.318   6.741  1.2656 -0.9281  0.2899
   10SAPS   C25 1241   5.529   4.157   6.902  0.0026  0.3102 -0.4580
   10SAPS   H5R 1242   5.593   4.092   6.841 -1.4449  0.6159 -2.4073
   10SAPS   C26 1243   5.520   4.115   7.033  0.4309  0.0759  0.3726
   10SAPS   H6R 1244   5.586   4.034   7.067 -1.6710 -0.6715  3.0311
   10SAPS   C27 1245   5.442   4.175   7.147  1.0404  0.0663 -1.1870
   10SAPS   H7R 1246   5.413   4.279   7.117  0.2116  0.0914 -0.3344
   10SAPS   H7S 1247   5.521   4.185   7.224  1.5538 -1.1143 -1.5422
   10SAPS   C28 1248   5.314   4.109   7.185  0.2739 -0.1130 -0.0823
   10SAPS   H8R 1249   5.259   4.058   7.103 -0.5486 -2.5579  1.8627
   10SAPS   C29 1250   5.251   4.105   7.303  0.0012  0.0306  0.3166
   10SAPS   H9R 1251   5.161   4.044   7.320 -0.7117 -0.1832 -3.3316
   10SAPS  C210 1252   5.304   4.167   7.431  0.3442  0.1318  0.7285
   10SAPS  H10R 1253   5.228   4.234   7.475 -0.3251 -1.3367  1.9135
   10SAPS  H10S 1254   5.401   4.217   7.411  0.9764 -2.1315 -2.5527
   10SAPS  C211 1255   5.324   4.070   7.536 -0.6676  0.6983 -0.6550
   10SAPS  H11R 1256   5.279   3.970   7.536  1.3570 -0.2604 -0.0390
   10SAPS  C212 1257   5.420   4.085   7.627  0.3546  0.3411 -0.5243
   10SAPS  H12R 1258   5.423   4.006   7.704 -2.8526 -0.3118 -0.9328
   10SAPS  C213 1259   5.513   4.199   7.655  0.0338 -0.3482 -0.4883
   10SAPS  H13R 1260   5.468   4.266   7.731 -0.3966 -1.8883  0.6590
   10SAPS  H13S 1261   5.524   4.269   7.569 -0.1809 -1.8670 -1.7950
   10SAPS  C214 1262   5.641   4.139   7.699 -0.3822 -0.7445 -0.1809
   10SAPS  H14R 1263   5.670   4.043   7.654 -0.0342 -0.0038 -1.5861
   10SAPS  C215 1264   5.727   4.189   7.792 -0.4705  0.2336  0.3003
   10SAPS  H15R 1265   5.819   4.137   7.823 -0.4798  0.0866  0.0841
   10SAPS  C216 1266   5.710   4.316   7.871  0.3209 -0.2786  0.6101
   10SAPS  H16R 1267   5.621   4.377   7.845 -0.4999 -1.4421  0.6312
   10SAPS  H16S 1268   5.796   4.382   7.845 -0.1623 -0.6274 -2.2015
   10SAPS  C217 1269   5.718   4.276   8.020 -0.0723  0.4244  0.2454
   10SAPS  H17R 1270   5.684   4.365   8.075 -0.7688 -0.0272  0.5625
   10SAPS  H17S 1271   5.819   4.258   8.062  0.0914  0.2948 -0.1912
   10SAPS  C218 1272   5.619   4.168   8.065 -0.6598 -0.6743 -0.4240
   10SAPS  H18R 1273   5.653   4.066   8.038  0.2127 -0.2273 -1.0623
   10SAPS  H18S 1274   5.518   4.185   8.021 -0.6882  0.0145 -0.1090
   10SAPS  C219 1275   5.594   4.181   8.216  0.2886  0.3013  0.1117
   10SAPS  H19R 1276   5.548   4.280   8.238 -1.9458 -1.1324  2.4021
   10SAPS  H19S 1277   5.690   4.182   8.271 -0.4748  1.8460  1.4908
   10SAPS  C220 1278   5.518   4.066   8.270 -0.7167  0.2706 -0.2160
   10SAPS  H20R 1279   5.564   3.972   8.235  1.6399  0.9309  0.8971
   10SAPS  H20S 1280   5.408   4.075   8.253 -0.7549 -1.0557 -0.7913
   10SAPS  H20T 1281   5.528   4.058   8.380 -1.4215  2.0901  0.0183
   10SAPS   C33 1282   5.686   3.663   6.999  0.3415 -0.6029  0.1997
   10SAPS   H3X 1283   5.787   3.629   6.967  0.5865 -0.5608  0.9165
   10SAPS   H3Y 1284   5.608   3.584   6.996  1.6462 -1.9185 -0.3034
   10SAPS   C34 1285   5.706   3.717   7.136 -0.5240  0.1504 -0.1727
   10SAPS   H4X 1286   5.613   3.767   7.170 -0.9287 -0.4504 -0.3828
   10SAPS   H4Y 1287   5.787   3.792   7.120 -0.1320 -0.0074  0.9827
   10SAPS   C35 1288   5.756   3.600   7.222 -0.0439  0.2330 -0.4095
   10SAPS   H5X 1289   5.859   3.577   7.188  1.0444  2.3036  1.2566
   10SAPS   H5Y 1290   5.688   3.514   7.204 -0.3781  0.4528 -0.1996
   10SAPS   C36 1291   5.756   3.619   7.374  0.3972 -0.4047  0.1945
   10SAPS   H6X 1292   5.647   3.615   7.394  0.1686  0.3286 -0.8474
   10SAPS   H6Y 1293   5.784   3.725   7.393 -0.2386  0.0597 -1.2965
   10SAPS   C37 1294   5.829   3.514   7.471 -0.0297  0.1786  0.6556
   10SAPS   H7X 1295   5.936   3.509   7.444 -0.2422  0.1965 -0.2254
   10SAPS   H7Y 1296   5.778   3.419   7.446  0.1653 -0.1473  1.4674
   10SAPS   C38 1297   5.805   3.536   7.621  0.1176 -0.3388 -0.0941
   10SAPS   H8X 1298   5.697   3.544   7.648  0.5170 -0.1666  1.5715
   10SAPS   H8Y 1299   5.850   3.631   7.656 -0.2272 -0.3086  0.2884
   10SAPS   C39 1300   5.868   3.418   7.712  0.6290  0.1029  0.4147
   10SAPS   H9X 1301   5.801   3.330   7.697 -1.1323  1.4061  0.3285
   10SAPS   H9Y 1302   5.861   3.442   7.820  2.5743 -2.8839  1.3356
   10SAPS  C310 1303   6.014   3.365   7.680  0.0900 -0.3477  0.1950
   10SAPS  H10X 1304   6.088   3.446   7.696  0.4063 -0.7977  1.1064
   10SAPS  H10Y 1305   6.017   3.345   7.571 -2.3600  3.6035 -0.8022
   10SAPS  C311 1306   6.066   3.249   7.766  0.3770  0.2209  0.1491
   10SAPS  H11X 1307   6.028   3.152   7.728  1.2877 -0.5106  1.0385
   10SAPS  H11Y 1308   6.040   3.265   7.873 -0.6068  0.7061 -0.1541
   10SAPS  C312 1309   6.215   3.220   7.762 -0.3916  0.1243  0.2630
   10SAPS  H12X 1310   6.268   3.273   7.845 -0.3113  0.1377  0.2028
   10SAPS  H12Y 1311   6.254   3.268   7.670 -0.3925  0.6814  0.5491
   10SAPS  C313 1312   6.259   3.071   7.771 -0.5493  0.2822  0.6310
   10SAPS  H13X 1313   6.368   3.075   7.750 -0.5619 -0.6047  0.3140
   10SAPS  H13Y 1314   6.212   3.018   7.685  1.3379 -1.0647  0.3539
   10SAPS  C314 1315   6.235   3.000   7.903 -0.9528 -0.3242 -0.0181
   10SAPS  H14X 1316   6.279   2.899   7.890 -0.3014  0.0094 -0.4700
   10SAPS  H14Y 1317   6.124   2.994   7.913 -0.9262 -0.2520  0.3389
   10SAPS  C315 1318   6.286   3.066   8.020 -0.4393 -0.2552 -0.4514
   10SAPS  H15X 1319   6.230   3.159   8.040  0.1627  0.0454 -0.1411
   10SAPS  H15Y 1320   6.394   3.087   8.008 -0.4211 -1.3114 -2.7227
   10SAPS  C316 1321   6.265   2.975   8.141  0.2153 -0.3792  0.2957
   10SAPS  H16X 1322   6.292   2.870   8.119  0.9194 -0.3980  1.2011
   10SAPS  H16Y 1323   6.155   2.975   8.153  0.3006  1.1699  1.4422
   10SAPS  C317 1324   6.314   3.033   8.272 -0.3802  0.0005  0.2763
   10SAPS  H17X 1325   6.303   3.144   8.276  1.1831  0.4390 -3.5190
   10SAPS  H17Y 1326   6.424   3.015   8.281 -0.1319  1.8674  1.6813
   10SAPS  C318 1327   6.243   2.977   8.397 -0.1940 -0.1847  0.0537
   10SAPS  H18X 1328   6.133   2.994   8.401 -0.3713 -1.5035  2.0638
   10SAPS  H18Y 1329   6.279   3.021   8.492 -1.8437 -1.5083  1.3603
   10SAPS  H18Z 1330   6.259   2.867   8.398  1.9081  0.0453 -1.4902
   11SAPS     N 1331   2.732   6.257   5.774 -0.2143  0.3122 -0.1323
   11SAPS   HN1 1332   2.755   6.337   5.836 -3.1836  1.8211 -0.7994
   11SAPS   HN2 1333   2.662   6.195   5.819 -1.6734  1.0890 -1.2329
   11SAPS   HN3 1334   2.814   6.195   5.762  0.8222  1.0123  2.6451
   11SAPS   C12 1335   2.673   6.311   5.645 -0.0828 -0.1347  0.2090
   11SAPS  H12A 1336   2.687   6.418   5.638 -2.8520  0.2691 -0.7036
   11SAPS   C13 1337   2.724   6.234   5.515  0.3235  0.0433  0.0401
   11SAPS  O13A 1338   2.806   6.140   5.535 -0.1011 -0.1164 -0.5949
   11SAPS  O13B 1339   2.720   6.291   5.404  0.2410 -0.3491 -0.0925
   11SAPS   C11 1340   2.518   6.304   5.641 -0.1174 -0.1505  0.2773
   11SAPS  H11A 1341   2.498   6.196   5.659  0.5935 -0.1278  1.3058
   11SAPS  H11B 1342   2.493   6.347   5.541  1.9978  2.4482  0.7352
   11SAPS     P 1343   2.417   6.531   5.742  0.5645 -0.3782  0.7181
   11SAPS   O13 1344   2.518   6.604   5.673 -0.2479  0.1046  0.1864
   11SAPS   O14 1345   2.279   6.546   5.684  0.4709  0.3861  0.0219
   11SAPS   O12 1346   2.456   6.378   5.744 -0.0969 -0.1211  0.4892
   11SAPS   O11 1347   2.424   6.568   5.897 -0.1114  0.0158 -0.1033
   11SAPS    C1 1348   2.508   6.490   5.989  0.2670  0.5134  0.0407
   11SAPS    HA 1349   2.451   6.399   6.018  2.0741 -1.0308 -1.0116
   11SAPS    HB 1350   2.604   6.458   5.941  0.5429  0.2618  0.7515
   11SAPS    C2 1351   2.555   6.557   6.122  0.2547 -0.1234 -0.3557
   11SAPS    HS 1352   2.580   6.662   6.093 -0.5673  0.8085  2.0638
   11SAPS   O21 1353   2.668   6.477   6.164 -0.2648 -0.6986 -0.5732
   11SAPS   C21 1354   2.771   6.539   6.211 -0.0143  0.0452  0.2170
   11SAPS   O22 1355   2.787   6.660   6.218  0.3805  0.3947 -0.1470
   11SAPS   C22 1356   2.867   6.436   6.272  0.4586  0.5871 -0.0623
   11SAPS   H2R 1357   2.796   6.365   6.320 -1.4510  0.8651 -2.2969
   11SAPS   H2S 1358   2.937   6.383   6.204  1.4923  0.7961  0.8289
   11SAPS    C3 1359   2.450   6.568   6.235  0.0258  0.3839  0.5676
   11SAPS    HX 1360   2.413   6.464   6.249 -0.6580  0.5575  0.0592
   11SAPS    HY 1361   2.361   6.621   6.194  0.4103  0.3353 -0.3383
   11SAPS   O31 1362   2.499   6.617   6.361  0.6801 -0.2471 -0.1769
   11SAPS   C31 1363   2.500   6.742   6.370 -0.2689 -0.4717 -0.0616
   11SAPS   O32 1364   2.452   6.818   6.289  0.5280 -0.9166 -0.2457
   11SAPS   C32 1365   2.564   6.791   6.499 -0.0411 -0.3177 -0.2763
   11SAPS   H2X 1366   2.670   6.757   6.506 -0.3485 -1.6442 -1.5503
   11SAPS   H2Y 1367   2.514   6.741   6.585 -0.7271  1.2404  0.2702
   11SAPS   C23 1368   2.959   6.509   6.387 -0.2395  0.1137 -0.1777
   11SAPS   H3R 1369   2.899   6.525   6.480 -0.3135 -0.9512 -0.0267
   11SAPS   H3S 1370   2.983   6.607   6.342 -2.7451  1.1723  0.5866
   11SAPS   C24 1371   3.075   6.424   6.424  0.2514  0.6472 -0.3389
   11SAPS   H4R 1372   3.130   6.388   6.334  1.1171  0.7152  0.1519
   11SAPS   H4S 1373   3.037   6.332   6.474 -0.1134  0.9840  0.0053
   11SAPS   C25 1374   3.165   6.510   6.514  0.5629  0.2678 -0.5968
   11SAPS   H5R 1375   3.218   6.589   6.459 -3.0003  0.3424 -4.4661
   11SAPS   C26 1376   3.180   6.494   6.644 -0.0634 -0.2547  0.1704
   11SAPS   H6R 1377   3.252   6.564   6.689  0.0186 -1.3063  1.7551
   11SAPS   C27 1378   3.120   6.398   6.740  0.0967 -0.2100 -0.4946
   11SAPS   H7R 1379   3.035   6.343   6.695  0.5679 -0.7610 -0.7293
   11SAPS   H7S 1380   3.075   6.460   6.821 -1.4239  1.1204 -2.2762
   11SAPS   C28 1381   3.228   6.308   6.788  0.2606  0.0235  0.0399
   11SAPS   H8R 1382   3.283   6.277   6.698 -0.4022  1.1093 -0.7809
   11SAPS   C29 1383   3.252   6.263   6.908  0.1685 -0.6604 -1.2188
   11SAPS   H9R 1384   3.320   6.178   6.924 -1.8853 -2.1626 -0.0637
   11SAPS  C210 1385   3.170   6.294   7.033 -0.0588  0.4456 -0.0004
   11SAPS  H10R 1386   3.114   6.390   7.027 -1.1393  0.0381  2.2509
   11SAPS  H10S 1387   3.229   6.313   7.126  1.5963 -0.5810 -0.7903
   11SAPS  C211 1388   3.069   6.182   7.052  0.4885 -0.1951 -0.6100
   11SAPS  H11R 1389   3.031   6.148   6.954 -2.9048  1.1213  0.1180
   11SAPS  C212 1390   3.031   6.130   7.173  0.1960 -0.5092 -0.3675
   11SAPS  H12R 1391   2.959   6.047   7.178  0.9789 -1.2044 -0.3975
   11SAPS  C213 1392   3.097   6.164   7.304  0.9235  1.0506 -0.9033
   11SAPS  H13R 1393   3.205   6.175   7.282  1.4567 -0.9343  0.4364
   11SAPS  H13S 1394   3.097   6.079   7.376 -0.5300 -0.1329 -2.2289
   11SAPS  C214 1395   3.042   6.286   7.380  0.4710  0.1938 -0.0073
   11SAPS  H14R 1396   3.040   6.370   7.308  0.4055 -0.9118 -1.3298
   11SAPS  C215 1397   3.007   6.301   7.506  0.7155 -0.1340  0.5234
   11SAPS  H15R 1398   2.982   6.401   7.543 -0.8452  0.6327 -2.3119
   11SAPS  C216 1399   2.999   6.188   7.607  0.2877  0.3996  0.1435
   11SAPS  H16R 1400   3.005   6.084   7.567 -0.0275 -1.6184  4.6809
   11SAPS  H16S 1401   2.902   6.191   7.661 -0.1260 -1.3907 -0.4084
   11SAPS  C217 1402   3.103   6.217   7.714 -0.6817  0.0766  0.5578
   11SAPS  H17R 1403   3.080   6.313   7.765 -0.5938  0.8090 -0.7606
   11SAPS  H17S 1404   3.206   6.222   7.673 -1.9703  0.4723 -2.9348
   11SAPS  C218 1405   3.101   6.116   7.832  0.8072 -0.3533  1.1216
   11SAPS  H18R 1406   3.115   6.015   7.787 -1.0130  0.4908 -1.6415
   11SAPS  H18S 1407   2.996   6.109   7.869  0.2002 -2.4294 -0.7354
   11SAPS  C219 1408   3.198   6.151   7.947 -0.6163  0.4911 -0.0866
   11SAPS  H19R 1409   3.179   6.256   7.976 -0.2363  0.6515 -0.4059
   11SAPS  H19S 1410   3.301   6.136   7.909 -0.3691  1.0939  0.3309
   11SAPS  C220 1411   3.191   6.057   8.069 -0.2111  0.3709  0.0890
   11SAPS  H20R 1412   3.277   6.078   8.136 -2.3509 -1.3004  3.6788
   11SAPS  H20S 1413   3.198   5.954   8.027 -1.1677 -0.4973  1.9011
   11SAPS  H20T 1414   3.089   6.068   8.113  0.8322  1.2176  2.4867
   11SAPS   C33 1415   2.561   6.948   6.515 -0.2751  0.4986 -0.2782
   11SAPS   H3X 1416   2.456   6.985   6.509 -1.4608 -2.2788  1.2090
   11SAPS   H3Y 1417   2.621   6.981   6.428  3.0181 -2.7864  0.5022
   11SAPS   C34 1418   2.623   6.986   6.648 -0.3892  0.1595 -0.3403
   11SAPS   H4X 1419   2.717   6.927   6.645 -0.6162 -0.1830 -0.8281
   11SAPS   H4Y 1420   2.561   6.930   6.721  0.3731 -1.8180 -1.1317
   11SAPS   C35 1421   2.654   7.129   6.668 -0.4403  0.3156  0.3787
   11SAPS   H5X 1422   2.555   7.180   6.662 -0.5996  0.5927  3.6286
   11SAPS   H5Y 1423   2.724   7.170   6.592 -3.1052  1.8381 -1.4430
   11SAPS   C36 1424   2.695   7.173   6.809 -0.2799 -0.0009 -0.0420
   11SAPS   H6X 1425   2.802   7.149   6.828  0.0796  0.7188 -1.1066
   11SAPS   H6Y 1426   2.634   7.107   6.875  1.8146 -5.4498 -2.8720
   11SAPS   C37 1427   2.671   7.322   6.843  1.0797 -0.5119  0.0127
   11SAPS   H7X 1428   2.644   7.367   6.745  1.5044 -0.2617  0.0110
   11SAPS   H7Y 1429   2.768   7.371   6.865  2.2894 -2.9637  0.5559
   11SAPS   C38 1430   2.575   7.343   6.958 -0.4483  0.3394 -0.1807
   11SAPS   H8X 1431   2.603   7.295   7.054 -0.7297  1.5959  0.5645
   11SAPS   H8Y 1432   2.480   7.297   6.925 -0.1481 -1.3817  1.2151
   11SAPS   C39 1433   2.546   7.498   6.985 -0.4186  0.1913  1.6629
   11SAPS   H9X 1434   2.479   7.528   6.901  1.3951  0.0771  0.0890
   11SAPS   H9Y 1435   2.647   7.542   6.968 -0.4758 -0.4098 -0.6440
   11SAPS  C310 1436   2.507   7.536   7.125 -0.2205 -0.4755 -0.3679
   11SAPS  H10X 1437   2.420   7.483   7.168 -1.0933  0.9236 -0.3639
   11SAPS  H10Y 1438   2.483   7.644   7.122 -1.8779 -0.7966  0.3302
   11SAPS  C311 1439   2.612   7.493   7.225  0.5282 -0.4260 -0.1897
   11SAPS  H11X 1440   2.707   7.537   7.188 -0.1430  1.2987  0.0422
   11SAPS  H11Y 1441   2.608   7.382   7.227 -2.9095 -0.4797 -2.0907
   11SAPS  C312 1442   2.591   7.534   7.367  0.0643  0.1110 -0.8014
   11SAPS  H12X 1443   2.596   7.643   7.384  0.8084 -0.1956  1.1464
   11SAPS  H12Y 1444   2.664   7.473   7.425 -0.8328  1.2061  1.6177
   11SAPS  C313 1445   2.450   7.477   7.426  0.3943 -0.1621  0.1448
   11SAPS  H13X 1446   2.444   7.369   7.404 -0.5441  0.0440 -0.6498
   11SAPS  H13Y 1447   2.375   7.531   7.364 -0.2218  0.0339  1.0349
   11SAPS  C314 1448   2.442   7.508   7.577 -0.4451  0.4323 -0.1207
   11SAPS  H14X 1449   2.417   7.615   7.589 -0.9246  0.1938  1.1809
   11SAPS  H14Y 1450   2.541   7.480   7.618  0.3542  1.0880 -1.5307
   11SAPS  C315 1451   2.350   7.409   7.660  0.7992 -0.3301  0.0658
   11SAPS  H15X 1452   2.386   7.305   7.677 -1.0889 -0.9023  0.8240
   11SAPS  H15Y 1453   2.248   7.406   7.617  1.6289 -1.7735 -2.0193
   11SAPS  C316 1454   2.334   7.455   7.807 -0.4308 -0.3667  0.4355
   11SAPS  H16X 1455   2.270   7.381   7.860  1.7285 -0.7844  2.6075
   11SAPS  H16Y 1456   2.293   7.555   7.833 -2.3636 -1.3507  1.3551
   11SAPS  C317 1457   2.471   7.449   7.870 -0.5996  0.0075 -0.8214
   11SAPS  H17X 1458   2.544   7.523   7.831  1.3029 -1.7075 -0.6615
   11SAPS  H17Y 1459   2.520   7.351   7.855  1.8708  0.9873  0.3162
   11SAPS  C318 1460   2.467   7.487   8.015 -0.3176 -0.5847  0.4375
   11SAPS  H18X 1461   2.572   7.506   8.048 -0.4292 -0.2511  0.6040
   11SAPS  H18Y 1462   2.424   7.409   8.081  3.7771 -1.6354  2.1914
   11SAPS  H18Z 1463   2.415   7.584   8.024  0.4939 -0.0074 -0.8417
   12SAPS     N 1464   4.756   2.484   6.371 -0.6573 -0.1424 -0.4675
   12SAPS   HN1 1465   4.845   2.471   6.424 -1.2637  1.3336  1.0196
   12SAPS   HN2 1466   4.729   2.576   6.411  1.9539 -0.1454  1.5464
   12SAPS   HN3 1467   4.693   2.410   6.409 -0.6505 -1.0968 -2.2017
   12SAPS   C12 1468   4.746   2.483   6.227 -0.8572 -0.0140  1.6515
   12SAPS  H12A 1469   4.821   2.548   6.183 -0.2567 -2.0181 -0.4876
   12SAPS   C13 1470   4.784   2.342   6.168  0.9172 -0.8085  0.0047
   12SAPS  O13A 1471   4.799   2.243   6.246  0.3656 -0.3655 -0.0969
   12SAPS  O13B 1472   4.809   2.338   6.046  0.0764  0.3187 -0.4486
   12SAPS   C11 1473   4.601   2.509   6.177 -0.0312 -0.4373  0.1030
   12SAPS  H11A 1474   4.552   2.409   6.177 -1.2031  0.1192 -0.1588
   12SAPS  H11B 1475   4.626   2.550   6.077 -0.5201  0.3478  0.2997
   12SAPS     P 1476   4.516   2.761   6.210  0.3072  0.1537  0.5381
   12SAPS   O13 1477   4.652   2.814   6.174  0.3953  0.1827 -0.3381
   12SAPS   O14 1478   4.397   2.794   6.127 -0.1624  0.2400 -0.1734
   12SAPS   O12 1479   4.519   2.602   6.248  0.2011  1.2496 -0.6953
   12SAPS   O11 1480   4.485   2.832   6.353 -0.2394 -0.1566  0.0427
   12SAPS    C1 1481   4.556   2.951   6.396 -0.4106  0.1074  0.3743
   12SAPS    HA 1482   4.604   3.013   6.317  1.3519  2.5796  3.1802
   12SAPS    HB 1483   4.478   3.024   6.428 -2.0046 -1.0953 -0.5845
   12SAPS    C2 1484   4.657   2.934   6.517  0.6255  0.4137  0.5253
   12SAPS    HS 1485   4.751   2.884   6.486  2.0054  2.1523  1.7226
   12SAPS   O21 1486   4.591   2.860   6.623 -0.0741 -0.7287  0.3213
   12SAPS   C21 1487   4.603   2.728   6.616 -0.3299  0.6824 -1.1864
   12SAPS   O22 1488   4.670   2.664   6.537 -0.2344  0.1362 -0.5183
   12SAPS   C22 1489   4.529   2.667   6.740 -0.7497 -0.1665  0.1022
   12SAPS   H2R 1490   4.439   2.725   6.769 -0.0753  0.5432  0.8645
   12SAPS   H2S 1491   4.511   2.564   6.702  1.4039 -1.0717  1.2911
   12SAPS    C3 1492   4.718   3.070   6.555 -0.5008 -0.9350  0.6833
   12SAPS    HX 1493   4.635   3.142   6.577 -1.0170 -0.9275 -1.1682
   12SAPS    HY 1494   4.778   3.101   6.467 -1.5895  0.6634  0.4615
   12SAPS   O31 1495   4.805   3.054   6.663  0.1053  0.1377 -0.2323
   12SAPS   C31 1496   4.832   3.150   6.743 -0.2568  0.5549 -0.5929
   12SAPS   O32 1497   4.825   3.270   6.713  0.1114 -0.4542  0.3272
   12SAPS   C32 1498   4.849   3.094   6.886 -0.1419 -0.3127 -0.6249
   12SAPS   H2X 1499   4.916   3.006   6.897  0.6745  0.3501 -0.1097
   12SAPS   H2Y 1500   4.751   3.044   6.904  0.6574 -1.8008 -0.2661
   12SAPS   C23 1501   4.630   2.659   6.856 -0.1941 -0.1609  0.0581
   12SAPS   H3R 1502   4.658   2.765   6.877 -1.0647  0.0189  0.3374
   12SAPS   H3S 1503   4.725   2.610   6.826  0.8229  2.4392 -1.3122
   12SAPS   C24 1504   4.557   2.601   6.978 -0.2273  0.2209  0.1347
   12SAPS   H4R 1505   4.636   2.559   7.044  1.6280 -0.9829 -2.6364
   12SAPS   H4S 1506   4.493   2.516   6.946 -0.2760  0.7361 -1.2096
   12SAPS   C25 1507   4.461   2.695   7.052  0.1289  0.4199  0.3122
   12SAPS   H5R 1508   4.383   2.731   6.982  0.9422 -1.7700 -1.8733
   12SAPS   C26 1509   4.465   2.738   7.182  0.0989  0.4152 -0.3504
   12SAPS   H6R 1510   4.387   2.808   7.216 -1.6357 -1.6480  0.1682
   12SAPS   C27 1511   4.571   2.696   7.281  0.3091 -0.5199  0.0935
   12SAPS   H7R 1512   4.632   2.617   7.232 -2.1928 -0.9463 -2.6348
   12SAPS   H7S 1513   4.529   2.645   7.370  1.5153  0.6035  1.3620
   12SAPS   C28 1514   4.659   2.813   7.328 -0.3930  0.7375  0.7547
   12SAPS   H8R 1515   4.737   2.845   7.257 -0.7074  0.4052  0.2564
   12SAPS   C29 1516   4.640   2.871   7.447  0.4800 -1.0004  0.1947
   12SAPS   H9R 1517   4.693   2.967   7.460  0.8180 -0.9918 -1.1042
   12SAPS  C210 1518   4.537   2.842   7.551 -0.1312 -0.1532 -0.9840
   12SAPS  H10R 1519   4.450   2.781   7.517 -0.9739  0.0807  0.6737
   12SAPS  H10S 1520   4.497   2.928   7.608  0.3106  0.1413 -1.1095
   12SAPS  C211 1521   4.607   2.751   7.642  0.2145  0.6469 -1.0125
   12SAPS  H11R 1522   4.672   2.675   7.595  1.7896 -0.5315  2.6791
   12SAPS  C212 1523   4.581   2.743   7.778 -0.6502  0.3360 -0.5370
   12SAPS  H12R 1524   4.636   2.677   7.846  1.6323  2.1112 -0.5496
   12SAPS  C213 1525   4.480   2.816   7.856  0.5071  0.2004  0.2463
   12SAPS  H13R 1526   4.430   2.756   7.935  0.1855 -0.2393 -0.2816
   12SAPS  H13S 1527   4.397   2.839   7.786  0.2226  0.9533  0.8234
   12SAPS  C214 1528   4.537   2.947   7.916  0.8291 -0.0642  0.6006
   12SAPS  H14R 1529   4.546   3.030   7.844  0.3129 -0.8549 -0.4150
   12SAPS  C215 1530   4.582   2.977   8.037  0.1486  0.2344 -0.0432
   12SAPS  H15R 1531   4.605   3.080   8.069 -1.2237 -0.3324  3.1548
   12SAPS  C216 1532   4.591   2.865   8.144 -0.8023 -0.1348 -0.3600
   12SAPS  H16R 1533   4.623   2.774   8.090 -0.7457 -0.6733  0.5570
   12SAPS  H16S 1534   4.492   2.851   8.191 -0.7014  2.9710  1.0317
   12SAPS  C217 1535   4.701   2.889   8.259  0.1346  0.1096 -0.2633
   12SAPS  H17R 1536   4.801   2.863   8.219  1.2240  0.7373  1.9122
   12SAPS  H17S 1537   4.669   2.815   8.336 -0.8392  1.3721  0.5835
   12SAPS  C218 1538   4.710   3.032   8.323  0.8204  0.6696  0.3053
   12SAPS  H18R 1539   4.607   3.063   8.353  1.1705  0.9139  1.3137
   12SAPS  H18S 1540   4.738   3.104   8.244 -1.5774  1.4416  0.0839
   12SAPS  C219 1541   4.804   3.045   8.438  0.5748 -0.7953 -0.4916
   12SAPS  H19R 1542   4.837   2.944   8.469  0.8683 -0.4585  0.3300
   12SAPS  H19S 1543   4.748   3.087   8.525  1.1289  1.1060 -1.0090
   12SAPS  C220 1544   4.934   3.133   8.420  0.5045  0.0554  0.3525
   12SAPS  H20R 1545   4.911   3.241   8.407  4.7265  1.1374  0.1526
   12SAPS  H20S 1546   4.985   3.098   8.328  1.5045  0.4173  0.7453
   12SAPS  H20T 1547   5.004   3.118   8.505  1.6867 -0.1325 -0.6245
   12SAPS   C33 1548   4.906   3.202   6.977  0.0942 -0.1074 -0.2042
   12SAPS   H3X 1549   4.844   3.294   6.967  0.8872  0.6196  1.2071
   12SAPS   H3Y 1550   5.009   3.227   6.943 -0.3766 -0.0542 -1.6917
   12SAPS   C34 1551   4.909   3.157   7.116  0.3044  0.2268 -0.2132
   12SAPS   H4X 1552   4.950   3.054   7.113 -1.6100 -0.6345  1.0745
   12SAPS   H4Y 1553   4.802   3.155   7.145  0.9809  0.6526  2.5000
   12SAPS   C35 1554   4.987   3.254   7.212  0.9856  0.2100  0.1689
   12SAPS   H5X 1555   4.973   3.362   7.189 -1.4191 -0.7772 -3.7852
   12SAPS   H5Y 1556   5.096   3.235   7.199  0.8931 -1.2017  1.2108
   12SAPS   C36 1557   4.969   3.220   7.362 -0.4573  1.0613  1.0042
   12SAPS   H6X 1558   5.008   3.118   7.382 -0.7165  0.3189 -1.9488
   12SAPS   H6Y 1559   4.863   3.238   7.389 -0.8924  1.3018 -0.7708
   12SAPS   C37 1560   5.046   3.315   7.456 -0.5753  0.1112 -0.1345
   12SAPS   H7X 1561   5.012   3.421   7.453 -0.7299  0.0893  0.8064
   12SAPS   H7Y 1562   5.151   3.304   7.420  0.1525 -0.0626  1.9197
   12SAPS   C38 1563   5.046   3.274   7.608 -0.7041  0.5101  0.6781
   12SAPS   H8X 1564   5.114   3.343   7.662  1.5262 -0.7272 -0.3766
   12SAPS   H8Y 1565   5.087   3.171   7.619 -0.9101  0.6779  4.3048
   12SAPS   C39 1566   4.902   3.291   7.663  0.0305  0.1862  0.6805
   12SAPS   H9X 1567   4.830   3.233   7.602 -0.2047  0.5141  0.6460
   12SAPS   H9Y 1568   4.864   3.395   7.651 -1.9269 -0.6444 -0.7807
   12SAPS  C310 1569   4.880   3.246   7.810  0.0441  0.4659 -0.3478
   12SAPS  H10X 1570   4.946   3.161   7.839 -0.3178  0.1157 -0.5397
   12SAPS  H10Y 1571   4.782   3.195   7.819  1.5567 -2.3408  2.4806
   12SAPS  C311 1572   4.896   3.366   7.904 -1.1548  0.1749  0.6520
   12SAPS  H11X 1573   4.839   3.453   7.865  0.9773  1.3956  0.0978
   12SAPS  H11Y 1574   5.003   3.396   7.907 -1.2424  0.7470 -0.8810
   12SAPS  C312 1575   4.838   3.342   8.045  0.3796  0.5780  0.4902
   12SAPS  H12X 1576   4.890   3.252   8.082  3.8053  1.6866 -1.1605
   12SAPS  H12Y 1577   4.731   3.323   8.021  0.5354  0.3710 -0.0531
   12SAPS  C313 1578   4.845   3.456   8.143 -0.2729 -0.1876 -0.4277
   12SAPS  H13X 1579   4.759   3.460   8.214 -0.5162 -1.2064 -0.6334
   12SAPS  H13Y 1580   4.815   3.548   8.089  1.3613  0.9583  0.5538
   12SAPS  C314 1581   4.978   3.470   8.208 -0.2986 -0.4682  0.5556
   12SAPS  H14X 1582   5.058   3.482   8.132 -0.4850 -1.6868  0.1605
   12SAPS  H14Y 1583   5.008   3.383   8.271 -0.3994 -1.5501 -0.8519
   12SAPS  C315 1584   4.952   3.584   8.309 -0.5659 -0.8562 -0.4758
   12SAPS  H15X 1585   4.874   3.538   8.373  0.4511 -0.6772  0.9422
   12SAPS  H15Y 1586   4.908   3.677   8.267 -0.7501 -1.0825 -0.7785
   12SAPS  C316 1587   5.078   3.615   8.396 -0.3702 -0.4039  0.4462
   12SAPS  H16X 1588   5.120   3.515   8.421  1.8676  0.4695  0.3995
   12SAPS  H16Y 1589   5.053   3.677   8.484  0.2221  2.8898 -1.5341
   12SAPS  C317 1590   5.196   3.670   8.318 -0.0426  0.1381  0.2359
   12SAPS  H17X 1591   5.152   3.761   8.273 -2.9540 -0.0861  2.3348
   12SAPS  H17Y 1592   5.218   3.604   8.231  1.0286 -0.2455  0.7806
   12SAPS  C318 1593   5.325   3.697   8.398  0.5193  0.1489  0.3623
   12SAPS  H18X 1594   5.300   3.736   8.499 -0.2553 -2.1245  1.1208
   12SAPS  H18Y 1595   5.391   3.776   8.356  1.0028 -0.1239  0.5940
   12SAPS  H18Z 1596   5.374   3.600   8.421 -0.9925 -0.5686  0.6649
   13SAPS     N 1597   0.544   1.523   5.870 -0.0091  0.3026  0.3518
   13SAPS   HN1 1598   0.458   1.467   5.854  0.1200  0.7225 -2.2111
   13SAPS   HN2 1599   0.525   1.621   5.898  0.1665  0.7905 -1.1516
   13SAPS   HN3 1600   0.593   1.534   5.779  0.1854 -1.2743  0.2290
   13SAPS   C12 1601   0.641   1.461   5.960  0.9944 -0.6274  0.0343
   13SAPS  H12A 1602   0.590   1.455   6.055 -2.2806 -1.4363 -1.6414
   13SAPS   C13 1603   0.686   1.321   5.922  0.1400  0.0847 -0.4269
   13SAPS  O13A 1604   0.621   1.246   5.845  0.0375 -0.8617 -0.2384
   13SAPS  O13B 1605   0.795   1.285   5.975 -0.5052 -0.0303  0.1626
   13SAPS   C11 1606   0.767   1.560   5.975 -0.4005  0.2590 -0.5771
   13SAPS  H11A 1607   0.834   1.558   5.887  2.7523 -0.8627  1.6684
   13SAPS  H11B 1608   0.833   1.531   6.060  3.2268  2.4834 -2.3962
   13SAPS     P 1609   0.784   1.808   6.087 -0.2783 -0.1947 -0.4160
   13SAPS   O13 1610   0.919   1.832   6.034 -0.3674 -0.4083  0.0727
   13SAPS   O14 1611   0.696   1.925   6.094  0.0355  0.3354  0.3477
   13SAPS   O12 1612   0.711   1.686   6.008  0.3550 -0.0561  0.4791
   13SAPS   O11 1613   0.791   1.751   6.234  0.2263  0.1932  0.0438
   13SAPS    C1 1614   0.662   1.735   6.288 -0.1426 -0.0944 -0.3440
   13SAPS    HA 1615   0.616   1.829   6.325  0.8927  0.9633 -1.6508
   13SAPS    HB 1616   0.594   1.679   6.220 -0.4200 -1.7465  1.2313
   13SAPS    C2 1617   0.656   1.625   6.400 -0.2945  0.2683  0.3162
   13SAPS    HS 1618   0.552   1.595   6.425 -0.2772 -1.2853 -1.3357
   13SAPS   O21 1619   0.733   1.660   6.521  0.0436  0.1387  0.6806
   13SAPS   C21 1620   0.667   1.732   6.604 -0.2029 -0.7329  1.1513
   13SAPS   O22 1621   0.557   1.782   6.580  0.3073 -0.3205 -0.0965
   13SAPS   C22 1622   0.758   1.768   6.721 -0.5205  0.7317 -0.4040
   13SAPS   H2R 1623   0.702   1.728   6.809  0.0565 -0.8819 -0.7252
   13SAPS   H2S 1624   0.852   1.710   6.715 -0.7112  0.2369  0.9312
   13SAPS    C3 1625   0.725   1.493   6.353 -0.2892 -0.3625  0.3921
   13SAPS    HX 1626   0.820   1.537   6.315 -1.0013  0.2521 -0.7480
   13SAPS    HY 1627   0.671   1.449   6.266 -1.0502  3.9834 -1.5813
   13SAPS   O31 1628   0.750   1.399   6.468 -0.8258  0.2849 -0.2653
   13SAPS   C31 1629   0.647   1.321   6.505  0.2829 -0.3673 -0.5242
   13SAPS   O32 1630   0.538   1.316   6.457 -0.4303  0.4039 -0.4146
   13SAPS   C32 1631   0.685   1.256   6.639  0.2303 -0.0624  0.6325
   13SAPS   H2X 1632   0.759   1.179   6.610  1.6523  2.1979 -2.1820
   13SAPS   H2Y 1633   0.593   1.213   6.685  2.2699 -1.3803  3.8777
   13SAPS   C23 1634   0.790   1.921   6.734 -0.4359  0.5545 -0.2778
   13SAPS   H3R 1635   0.707   1.994   6.740  0.8267  2.0241 -0.0420
   13SAPS   H3S 1636   0.839   1.948   6.638 -1.2372 -1.5197 -1.3361
   13SAPS   C24 1637   0.891   1.945   6.848 -0.3687  0.1478  0.3111
   13SAPS   H4R 1638   0.952   2.037   6.838  1.9548 -1.3802 -0.3188
   13SAPS   H4S 1639   0.967   1.865   6.839 -1.2354 -0.9272  2.0271
   13SAPS   C25 1640   0.819   1.949   6.978  0.5576 -0.6761 -0.0343
   13SAPS   H5R 1641   0.763   2.041   6.998 -1.8253 -2.1640  0.6055
   13SAPS   C26 1642   0.811   1.856   7.064  0.3266 -0.0505  0.2190
   13SAPS   H6R 1643   0.754   1.888   7.152  2.3132  1.6783  0.9469
   13SAPS   C27 1644   0.847   1.713   7.057 -0.2295 -0.3117 -0.1730
   13SAPS   H7R 1645   0.906   1.675   6.971  1.6284 -2.3742  1.8900
   13SAPS   H7S 1646   0.760   1.645   7.066  1.2255 -2.1320  0.8049
   13SAPS   C28 1647   0.953   1.694   7.166 -0.4242 -0.1162  1.1005
   13SAPS   H8R 1648   1.043   1.758   7.165 -1.7632  1.8761  0.7627
   13SAPS   C29 1649   0.949   1.619   7.277 -0.6012  0.1212  0.4796
   13SAPS   H9R 1650   1.036   1.618   7.344 -0.5399 -0.9806  0.4020
   13SAPS  C210 1651   0.835   1.532   7.319 -0.3948  0.0087 -0.0508
   13SAPS  H10R 1652   0.743   1.534   7.258 -1.2192  0.0781  1.1741
   13SAPS  H10S 1653   0.800   1.568   7.418  0.1055  0.2188  0.0541
   13SAPS  C211 1654   0.883   1.389   7.330  0.1651  0.4188 -0.4975
   13SAPS  H11R 1655   0.932   1.356   7.237 -1.2373 -0.7836 -0.8418
   13SAPS  C212 1656   0.866   1.301   7.430  0.2075  0.2729  0.5517
   13SAPS  H12R 1657   0.911   1.203   7.412  0.9317  0.6722  0.1470
   13SAPS  C213 1658   0.799   1.320   7.568 -0.0392 -0.7948 -0.1284
   13SAPS  H13R 1659   0.765   1.425   7.579  0.5781 -0.3568 -2.1111
   13SAPS  H13S 1660   0.884   1.314   7.639  0.2121  0.2274 -0.3339
   13SAPS  C214 1661   0.694   1.214   7.589 -0.3446 -0.3308  0.2081
   13SAPS  H14R 1662   0.719   1.114   7.551  1.3436  0.2831 -0.3927
   13SAPS  C215 1663   0.580   1.234   7.652 -0.1374  0.3035 -0.3387
   13SAPS  H15R 1664   0.509   1.152   7.671  0.1649 -0.5223 -2.5403
   13SAPS  C216 1665   0.524   1.354   7.724 -0.3632  0.1081  0.2195
   13SAPS  H16R 1666   0.423   1.375   7.683  0.2480  0.6177 -1.0546
   13SAPS  H16S 1667   0.586   1.445   7.712 -0.4328 -0.0047 -1.1387
   13SAPS  C217 1668   0.511   1.313   7.869 -0.1868 -0.0886  0.1908
   13SAPS  H17R 1669   0.610   1.280   7.908 -0.1968 -4.2102 -2.6751
   13SAPS  H17S 1670   0.438   1.232   7.889 -0.5349 -0.0004 -0.6737
   13SAPS  C218 1671   0.477   1.440   7.954  0.4683 -0.2340  0.7693
   13SAPS  H18R 1672   0.375   1.478   7.932 -0.6534 -3.0007  0.7517
   13SAPS  H18S 1673   0.535   1.530   7.926 -0.4315 -0.4544 -2.1525
   13SAPS  C219 1674   0.497   1.411   8.103 -1.1189 -0.4785 -0.8138
   13SAPS  H19R 1675   0.601   1.438   8.131 -1.3828 -1.1385  0.9345
   13SAPS  H19S 1676   0.493   1.302   8.123 -0.0843 -0.5451 -0.8963
   13SAPS  C220 1677   0.403   1.488   8.210 -0.5169  0.6206  0.3745
   13SAPS  H20R 1678   0.424   1.597   8.215 -0.1892  0.5421  0.7622
   13SAPS  H20S 1679   0.414   1.433   8.306 -1.8418  0.0851  0.2426
   13SAPS  H20T 1680   0.299   1.465   8.179 -0.8858  1.4016  1.0043
   13SAPS   C33 1681   0.759   1.358   6.730  0.2141  0.0981 -0.2492
   13SAPS   H3X 1682   0.689   1.436   6.768  1.9759  1.3343  0.6040
   13SAPS   H3Y 1683   0.846   1.406   6.679 -0.1040 -1.4607 -2.3743
   13SAPS   C34 1684   0.814   1.308   6.867  0.8028  0.2990  0.2403
   13SAPS   H4X 1685   0.736   1.252   6.922  1.6833 -1.1238  0.0784
   13SAPS   H4Y 1686   0.864   1.384   6.932  2.3716 -0.7794  0.3593
   13SAPS   C35 1687   0.927   1.203   6.834 -0.0531 -0.9730  0.6222
   13SAPS   H5X 1688   1.006   1.267   6.789 -1.9880  0.7162 -0.4964
   13SAPS   H5Y 1689   0.893   1.129   6.759  0.7577  0.3169 -1.0593
   13SAPS   C36 1690   0.984   1.139   6.957  0.3150 -0.4220  0.7770
   13SAPS   H6X 1691   0.987   1.218   7.035 -1.8888 -0.3404  0.8492
   13SAPS   H6Y 1692   1.075   1.080   6.936  0.1752 -1.2569  2.3325
   13SAPS   C37 1693   0.891   1.025   7.011  0.0901  0.7390 -0.6507
   13SAPS   H7X 1694   0.891   0.946   6.933 -1.4813  0.7902 -0.7240
   13SAPS   H7Y 1695   0.787   1.059   7.033 -0.3218  1.1652 -3.0030
   13SAPS   C38 1696   0.959   0.969   7.135  0.1478 -0.1862  0.3646
   13SAPS   H8X 1697   0.951   1.042   7.219  2.2310 -0.8296  1.1920
   13SAPS   H8Y 1698   1.068   0.959   7.118 -0.1659 -0.0169 -2.0318
   13SAPS   C39 1699   0.884   0.848   7.202 -0.0467 -0.3607 -0.8881
   13SAPS   H9X 1700   0.867   0.781   7.115  0.5385  0.2555 -1.4877
   13SAPS   H9Y 1701   0.781   0.877   7.230 -0.5196 -2.4397 -0.2640
   13SAPS  C310 1702   0.948   0.784   7.324  0.0920 -0.3375 -0.4674
   13SAPS  H10X 1703   0.948   0.842   7.419 -0.9024 -1.6448  0.3656
   13SAPS  H10Y 1704   1.056   0.764   7.308  0.2983 -1.2730  1.7569
   13SAPS  C311 1705   0.888   0.639   7.347 -0.3255 -0.3518  0.2010
   13SAPS  H11X 1706   0.907   0.582   7.253 -0.0662 -0.4523  0.3154
   13SAPS  H11Y 1707   0.777   0.637   7.342 -0.2686 -0.7059 -2.0219
   13SAPS  C312 1708   0.933   0.566   7.469 -0.1151 -0.7132 -0.0050
   13SAPS  H12X 1709   1.044   0.572   7.472 -0.1368 -0.5058  0.4262
   13SAPS  H12Y 1710   0.910   0.457   7.461  2.3845 -1.3548  0.7378
   13SAPS  C313 1711   0.883   0.621   7.601  0.3920  0.3782 -0.3347
   13SAPS  H13X 1712   0.772   0.617   7.595  0.4530  0.5579 -2.0206
   13SAPS  H13Y 1713   0.907   0.729   7.603 -1.4298  0.9499  5.1707
   13SAPS  C314 1714   0.945   0.562   7.732  0.1198 -0.4203 -0.0630
   13SAPS  H14X 1715   1.049   0.599   7.747 -0.3229 -0.1903  3.1902
   13SAPS  H14Y 1716   0.955   0.452   7.721 -0.5930 -0.5019  0.0568
   13SAPS  C315 1717   0.860   0.596   7.851 -0.4357  0.8099  0.5013
   13SAPS  H15X 1718   0.756   0.567   7.828 -0.1538  0.6181 -0.6011
   13SAPS  H15Y 1719   0.862   0.707   7.859  3.7258  1.1969 -2.3607
   13SAPS  C316 1720   0.906   0.526   7.977  0.7385  0.7115  0.2794
   13SAPS  H16X 1721   0.913   0.416   7.962 -0.8333  0.6434 -0.2101
   13SAPS  H16Y 1722   0.828   0.534   8.056  1.5023  1.9316  0.9330
   13SAPS  C317 1723   1.035   0.573   8.034  0.6354 -0.3220 -0.7805
   13SAPS  H17X 1724   1.111   0.598   7.957 -0.8303 -0.1438 -2.2040
   13SAPS  H17Y 1725   1.056   0.482   8.095 -2.3432 -1.2941 -1.0502
   13SAPS  C318 1726   1.030   0.686   8.139  0.1319 -0.2522  0.0528
   13SAPS  H18X 1727   1.132   0.713   8.172 -0.0801  0.7265 -0.0653
   13SAPS  H18Y 1728   0.971   0.651   8.227 -0.0361 -0.4305 -0.1296
   13SAPS  H18Z 1729   0.989   0.784   8.107 -0.7498 -0.6787 -0.1480
   14SAPS     N 1730   3.167   3.969   6.029  0.5109 -0.0963  0.4394
   14SAPS   HN1 1731   3.175   3.875   6.073  0.3817 -0.6874 -0.7688
   14SAPS   HN2 1732   3.226   4.045   6.068  0.3289 -0.2363  1.0054
   14SAPS   HN3 1733   3.067   3.995   6.046  1.1445  1.7421  1.7226
   14SAPS   C12 1734   3.189   3.953   5.880 -0.0879  0.0367 -0.4860
   14SAPS  H12A 1735   3.116   3.887   5.835  0.9781  0.0828 -2.3868
   14SAPS   C13 1736   3.171   4.084   5.816  0.1856 -0.8191 -0.6162
   14SAPS  O13A 1737   3.176   4.194   5.879  0.0865  0.2158 -0.7169
   14SAPS  O13B 1738   3.146   4.080   5.688  0.3846 -0.1872  0.1393
   14SAPS   C11 1739   3.334   3.892   5.859 -0.2651 -0.2259  0.0928
   14SAPS  H11A 1740   3.412   3.965   5.891 -2.2696  2.4442 -0.7207
   14SAPS  H11B 1741   3.344   3.875   5.750 -2.6879  1.2746 -0.4459
   14SAPS     P 1742   3.435   3.658   5.888 -0.5599 -0.2637 -0.3105
   14SAPS   O13 1743   3.417   3.649   5.749 -0.6714  0.4994  0.2563
   14SAPS   O14 1744   3.575   3.675   5.947  1.0879  0.0591 -0.4722
   14SAPS   O12 1745   3.343   3.779   5.942  0.0170  0.0673 -0.3604
   14SAPS   O11 1746   3.371   3.531   5.952  0.2619  0.1051 -0.2456
   14SAPS    C1 1747   3.438   3.457   6.060 -0.8694 -0.0706  0.5629
   14SAPS    HA 1748   3.408   3.350   6.056  1.1075 -0.6574  0.2290
   14SAPS    HB 1749   3.549   3.464   6.061 -0.8344 -0.6475  1.1927
   14SAPS    C2 1750   3.409   3.511   6.204  1.0886 -0.3866  0.1478
   14SAPS    HS 1751   3.298   3.511   6.207  0.9469  3.3278 -0.5201
   14SAPS   O21 1752   3.467   3.639   6.217  0.2497  0.1653 -0.1456
   14SAPS   C21 1753   3.380   3.731   6.252 -0.3278 -0.3045  0.0889
   14SAPS   O22 1754   3.258   3.715   6.255 -0.0242 -1.0689  0.1292
   14SAPS   C22 1755   3.464   3.855   6.296  0.0933  0.4890 -0.1747
   14SAPS   H2R 1756   3.509   3.904   6.208 -1.6922  0.2938 -1.2500
   14SAPS   H2S 1757   3.396   3.919   6.355  0.7271 -0.3145  1.5111
   14SAPS    C3 1758   3.478   3.412   6.302  0.1060 -0.5837  0.4300
   14SAPS    HX 1759   3.587   3.426   6.284 -0.0306 -1.0529 -0.9057
   14SAPS    HY 1760   3.445   3.308   6.277  2.3304 -1.6097  1.4860
   14SAPS   O31 1761   3.441   3.428   6.440 -0.5470 -0.7429 -0.5946
   14SAPS   C31 1762   3.476   3.334   6.520 -0.6166  0.5396  0.0128
   14SAPS   O32 1763   3.531   3.229   6.488  0.7714 -0.2634  0.1749
   14SAPS   C32 1764   3.459   3.381   6.664  0.0511 -0.8354 -0.2203
   14SAPS   H2X 1765   3.351   3.406   6.672  0.1378 -0.9927  1.8306
   14SAPS   H2Y 1766   3.521   3.472   6.678 -0.7404 -0.2625 -0.3165
   14SAPS   C23 1767   3.584   3.827   6.396 -0.5788 -0.2494 -0.3912
   14SAPS   H3R 1768   3.631   3.925   6.418 -0.1583  0.0762 -2.5202
   14SAPS   H3S 1769   3.662   3.756   6.361 -1.5752 -2.8912  2.2434
   14SAPS   C24 1770   3.535   3.773   6.534 -0.4615  0.1470  0.1144
   14SAPS   H4R 1771   3.628   3.764   6.594 -0.6343  0.0135  0.3617
   14SAPS   H4S 1772   3.487   3.674   6.527  3.2913 -1.7658 -1.9052
   14SAPS   C25 1773   3.455   3.869   6.619 -0.8628  0.2616 -0.3808
   14SAPS   H5R 1774   3.386   3.927   6.556  0.6911  0.1619 -2.2557
   14SAPS   C26 1775   3.451   3.894   6.751 -0.1787 -0.4366 -0.7073
   14SAPS   H6R 1776   3.372   3.965   6.778 -1.4534 -1.9640 -0.2451
   14SAPS   C27 1777   3.549   3.827   6.846 -0.1189  0.2235 -0.3376
   14SAPS   H7R 1778   3.590   3.904   6.914  1.7072  1.1650 -2.4038
   14SAPS   H7S 1779   3.644   3.806   6.791 -0.9500 -0.4250 -1.5845
   14SAPS   C28 1780   3.479   3.705   6.912 -0.7112 -0.0342 -0.0294
   14SAPS   H8R 1781   3.425   3.650   6.834 -0.0705 -0.0933 -0.4361
   14SAPS   C29 1782   3.467   3.671   7.035 -0.5121  0.2900 -0.2612
   14SAPS   H9R 1783   3.409   3.580   7.056  2.2575 -1.0486  2.3408
   14SAPS  C210 1784   3.525   3.743   7.153 -0.2391 -0.4170 -0.2445
   14SAPS  H10R 1785   3.612   3.809   7.131 -1.5426  1.1955 -0.6956
   14SAPS  H10S 1786   3.573   3.675   7.228 -1.7691 -0.1870  0.9924
   14SAPS  C211 1787   3.407   3.818   7.221  0.0837 -0.5597  0.5501
   14SAPS  H11R 1788   3.318   3.828   7.156 -1.6582 -2.9023  2.3841
   14SAPS  C212 1789   3.386   3.834   7.349 -0.2735  0.3286 -0.6865
   14SAPS  H12R 1790   3.293   3.879   7.386 -1.3378 -0.5506 -2.1632
   14SAPS  C213 1791   3.485   3.793   7.454  0.4666  0.0308  0.0558
   14SAPS  H13R 1792   3.498   3.869   7.534  1.8204  0.7821 -0.8230
   14SAPS  H13S 1793   3.587   3.792   7.410 -0.6987 -1.2401 -2.8948
   14SAPS  C214 1794   3.446   3.668   7.530  0.7433  0.4338 -0.4856
   14SAPS  H14R 1795   3.506   3.581   7.498  1.0144  0.2939  0.3770
   14SAPS  C215 1796   3.370   3.665   7.644  0.5125  0.1834  0.3973
   14SAPS  H15R 1797   3.355   3.566   7.690  0.5704 -0.7137 -1.4015
   14SAPS  C216 1798   3.311   3.783   7.712 -0.8080 -0.3519 -0.2243
   14SAPS  H16R 1799   3.242   3.834   7.642 -0.1676 -0.9028 -1.2845
   14SAPS  H16S 1800   3.398   3.850   7.730  0.9260 -1.6523 -3.0922
   14SAPS  C217 1801   3.250   3.748   7.848 -0.5787 -0.0453  0.2310
   14SAPS  H17R 1802   3.322   3.693   7.911 -1.5436 -0.2217  1.2194
   14SAPS  H17S 1803   3.165   3.677   7.838  0.5619 -1.5707  0.9763
   14SAPS  C218 1804   3.209   3.877   7.919  0.0107  0.3564  0.4641
   14SAPS  H18R 1805   3.133   3.927   7.855 -0.4845 -1.4732 -0.4264
   14SAPS  H18S 1806   3.306   3.929   7.938  1.0375 -0.3461 -2.3458
   14SAPS  C219 1807   3.144   3.857   8.061  0.3185 -0.0511  1.2440
   14SAPS  H19R 1808   3.150   3.954   8.115 -0.0558  0.7803 -0.1705
   14SAPS  H19S 1809   3.225   3.802   8.114  2.6731  0.0851 -1.8824
   14SAPS  C220 1810   3.006   3.782   8.066 -0.2263 -0.9462  0.1877
   14SAPS  H20R 1811   2.927   3.839   8.012  0.4810  1.0432  1.1364
   14SAPS  H20S 1812   2.962   3.788   8.168  0.0878 -3.7150  0.5563
   14SAPS  H20T 1813   3.003   3.676   8.035  1.1170 -1.1590  0.7159
   14SAPS   C33 1814   3.488   3.273   6.765 -0.1892  0.1078  0.3981
   14SAPS   H3X 1815   3.593   3.238   6.756 -0.7367 -1.2157 -1.5125
   14SAPS   H3Y 1816   3.423   3.185   6.744  1.3559 -0.9024 -0.3684
   14SAPS   C34 1817   3.463   3.315   6.911  0.6456  1.0575  0.2534
   14SAPS   H4X 1818   3.355   3.326   6.934  1.1139  0.3487  3.2443
   14SAPS   H4Y 1819   3.506   3.417   6.919  0.1918  1.1666  1.7272
   14SAPS   C35 1820   3.533   3.233   7.027 -0.2817 -0.3759  0.0851
   14SAPS   H5X 1821   3.639   3.214   7.002 -0.6872  0.5713 -2.6293
   14SAPS   H5Y 1822   3.488   3.131   7.018 -0.5524 -0.2207 -0.3357
   14SAPS   C36 1823   3.490   3.288   7.164 -0.0154 -0.2043  0.4008
   14SAPS   H6X 1824   3.380   3.307   7.165 -0.0837 -0.5914  0.4427
   14SAPS   H6Y 1825   3.534   3.386   7.193 -2.0104  0.6311  0.8135
   14SAPS   C37 1826   3.519   3.188   7.283  0.3220 -0.2533  0.6046
   14SAPS   H7X 1827   3.617   3.138   7.273  0.4288  0.2464 -0.9809
   14SAPS   H7Y 1828   3.450   3.103   7.263  1.4731 -1.0158 -0.2653
   14SAPS   C38 1829   3.494   3.248   7.419 -1.1900 -0.5966  0.0663
   14SAPS   H8X 1830   3.396   3.301   7.411  0.5447  2.9526  0.5225
   14SAPS   H8Y 1831   3.554   3.339   7.439 -1.6401 -0.1481 -0.5757
   14SAPS   C39 1832   3.501   3.153   7.536  0.1624  0.5582 -0.7097
   14SAPS   H9X 1833   3.599   3.103   7.543 -0.1184  0.0908 -0.0602
   14SAPS   H9Y 1834   3.428   3.071   7.518 -0.1729  1.0546 -1.7478
   14SAPS  C310 1835   3.465   3.224   7.671 -0.1722  0.0015 -0.5230
   14SAPS  H10X 1836   3.358   3.242   7.693  0.2566  1.0108  0.8966
   14SAPS  H10Y 1837   3.522   3.319   7.671  1.5671 -0.9511  1.4941
   14SAPS  C311 1838   3.497   3.141   7.791 -0.0852 -0.4920  0.3123
   14SAPS  H11X 1839   3.441   3.044   7.793 -2.5947  0.8771  0.5415
   14SAPS  H11Y 1840   3.466   3.199   7.880  0.6196  1.4200 -0.6270
   14SAPS  C312 1841   3.647   3.113   7.816 -0.4890  0.4436 -0.4171
   14SAPS  H12X 1842   3.706   3.207   7.818  2.7073 -1.4319  0.3415
   14SAPS  H12Y 1843   3.679   3.038   7.740 -1.2732  0.0869 -0.4045
   14SAPS  C313 1844   3.670   3.052   7.955 -0.1755  0.3984 -0.2398
   14SAPS  H13X 1845   3.779   3.029   7.957 -0.1902 -0.0928 -2.2897
   14SAPS  H13Y 1846   3.616   2.955   7.944 -0.9940  0.9936 -1.7581
   14SAPS  C314 1847   3.628   3.133   8.079 -0.6647  0.4034  0.4912
   14SAPS  H14X 1848   3.520   3.143   8.104 -0.4757 -1.6502  2.4979
   14SAPS  H14Y 1849   3.682   3.230   8.071 -0.1507  0.0598 -0.3735
   14SAPS  C315 1850   3.682   3.074   8.211 -0.8637 -0.2310 -0.2014
   14SAPS  H15X 1851   3.790   3.049   8.202 -1.2183 -1.3492 -1.7766
   14SAPS  H15Y 1852   3.636   2.973   8.217  0.7656 -1.2187 -2.6820
   14SAPS  C316 1853   3.644   3.162   8.336 -0.0354 -0.2799 -0.2771
   14SAPS  H16X 1854   3.533   3.152   8.333 -0.3020  1.6310  1.0157
   14SAPS  H16Y 1855   3.683   3.265   8.320 -0.4157 -0.0567  0.1940
   14SAPS  C317 1856   3.712   3.114   8.466 -0.0144  0.7263  0.4225
   14SAPS  H17X 1857   3.703   3.199   8.538  0.7334 -1.0535  2.7506
   14SAPS  H17Y 1858   3.816   3.081   8.442  0.7035  1.4339  2.3408
   14SAPS  C318 1859   3.636   3.004   8.543 -0.1783 -0.6710  0.1081
   14SAPS  H18X 1860   3.658   2.906   8.496  0.1368 -1.0607  1.0468
   14SAPS  H18Y 1861   3.530   3.020   8.571 -0.5117 -0.0600 -1.3841
   14SAPS  H18Z 1862   3.686   2.998   8.642 -1.1227 -3.7912  0.4854
   15SAPS     N 1863   3.242   1.065   6.002 -0.2011  0.4244 -0.0756
   15SAPS   HN1 1864   3.272   1.122   6.083 -2.6724 -1.2395  2.1653
   15SAPS   HN2 1865   3.269   0.967   6.025  0.2934  0.2364 -1.3433
   15SAPS   HN3 1866   3.296   1.092   5.917 -1.8657 -1.5034 -1.8582
   15SAPS   C12 1867   3.098   1.054   5.981  0.1902  0.2144 -0.9321
   15SAPS  H12A 1868   3.066   1.043   6.083  0.2742  0.8614 -0.8304
   15SAPS   C13 1869   3.029   1.172   5.910 -0.4521  0.6969  0.2629
   15SAPS  O13A 1870   3.098   1.269   5.867 -0.7286  0.2090  0.5618
   15SAPS  O13B 1871   2.903   1.174   5.911  0.2963  0.2157  0.3273
   15SAPS   C11 1872   3.074   0.921   5.894  0.5710 -0.5763  0.4391
   15SAPS  H11A 1873   3.128   0.926   5.797 -1.3059  1.7197 -0.5778
   15SAPS  H11B 1874   2.964   0.923   5.880  0.2000  1.7447  2.7023
   15SAPS     P 1875   3.048   0.663   5.957  0.1170 -0.0386 -0.3064
   15SAPS   O13 1876   2.916   0.677   5.897  0.9203  0.1014  0.2232
   15SAPS   O14 1877   3.140   0.571   5.886  0.6564 -0.7951  0.6770
   15SAPS   O12 1878   3.116   0.803   5.971 -0.7937 -0.2388  0.0505
   15SAPS   O11 1879   3.028   0.621   6.103  0.0854 -0.2249 -0.4992
   15SAPS    C1 1880   3.136   0.591   6.185  0.0301  0.3687 -0.4996
   15SAPS    HA 1881   3.230   0.645   6.163 -1.6720  4.0346  0.4167
   15SAPS    HB 1882   3.117   0.627   6.289 -1.4644  0.3344 -0.7348
   15SAPS    C2 1883   3.174   0.443   6.179  0.0879  0.1024  0.3277
   15SAPS    HS 1884   3.167   0.413   6.073 -2.9748 -0.7432  0.6668
   15SAPS   O21 1885   3.079   0.371   6.257  0.0553  0.3824  0.5685
   15SAPS   C21 1886   3.087   0.237   6.218  0.3307 -0.5456  0.4190
   15SAPS   O22 1887   3.174   0.189   6.150 -0.4091 -0.2606  0.6739
   15SAPS   C22 1888   2.968   0.163   6.280  0.9326 -0.1354 -0.0470
   15SAPS   H2R 1889   2.908   0.228   6.347  1.0199 -1.4030  1.3122
   15SAPS   H2S 1890   2.907   0.143   6.189  1.6472  0.3567 -0.6411
   15SAPS    C3 1891   3.321   0.423   6.223  0.4839 -1.1799 -0.1345
   15SAPS    HX 1892   3.397   0.485   6.171  1.3494 -2.4509 -0.4545
   15SAPS    HY 1893   3.355   0.318   6.209 -0.2602 -1.5599  0.8353
   15SAPS   O31 1894   3.319   0.454   6.365 -0.1458  0.1898  0.0595
   15SAPS   C31 1895   3.436   0.470   6.422 -0.5955  0.2592 -0.8681
   15SAPS   O32 1896   3.547   0.463   6.369  0.2511  0.0899 -1.1402
   15SAPS   C32 1897   3.413   0.515   6.563 -0.2986  0.2321 -0.4244
   15SAPS   H2X 1898   3.376   0.426   6.619 -0.1217 -1.3601 -2.7087
   15SAPS   H2Y 1899   3.325   0.583   6.558 -0.1706  0.3544 -1.0785
   15SAPS   C23 1900   2.981   0.019   6.342 -0.5534  0.4481  0.7160
   15SAPS   H3R 1901   3.027  -0.042   6.262  1.9155  0.6574  1.8668
   15SAPS   H3S 1902   2.875  -0.011   6.355 -0.9597  1.6658  0.3545
   15SAPS   C24 1903   3.071   0.002   6.471 -0.0809  0.4489  0.0594
   15SAPS   H4R 1904   3.171   0.039   6.439  0.2403  0.3970  0.9760
   15SAPS   H4S 1905   3.087  -0.105   6.495  1.0137  0.6072  0.1092
   15SAPS   C25 1906   3.001   0.075   6.586 -0.6330 -0.3489 -0.4762
   15SAPS   H5R 1907   2.968   0.175   6.557 -0.7392 -0.3952 -0.5167
   15SAPS   C26 1908   2.975   0.021   6.711  0.3300 -0.2306 -0.0099
   15SAPS   H6R 1909   2.926   0.089   6.782 -0.3267 -0.2195 -0.4582
   15SAPS   C27 1910   3.003  -0.123   6.754  0.5418 -0.6590 -0.5131
   15SAPS   H7R 1911   3.103  -0.162   6.725 -0.5935 -2.4539 -2.3020
   15SAPS   H7S 1912   2.949  -0.177   6.673 -0.6888  0.5467 -0.5231
   15SAPS   C28 1913   2.951  -0.184   6.886 -0.6853 -0.2099  0.1062
   15SAPS   H8R 1914   2.893  -0.275   6.865 -1.5949  0.5341 -0.6943
   15SAPS   C29 1915   2.963  -0.136   7.010 -0.9013 -0.0529 -0.0771
   15SAPS   H9R 1916   2.909  -0.188   7.090 -2.1382 -0.8949 -1.4099
   15SAPS  C210 1917   3.038  -0.003   7.043  0.1165  1.4054 -0.3305
   15SAPS  H10R 1918   2.988   0.089   7.005  1.7528  2.8581  0.8929
   15SAPS  H10S 1919   3.136  -0.012   6.992  0.8261 -1.7563  1.3623
   15SAPS  C211 1920   3.059   0.017   7.187  0.2179 -0.1615 -0.5998
   15SAPS  H11R 1921   3.159  -0.011   7.225  0.8975  1.4021 -1.1171
   15SAPS  C212 1922   2.959   0.046   7.272 -0.0904 -0.1543  0.4432
   15SAPS  H12R 1923   2.986   0.056   7.378  0.1966  0.1508  0.3424
   15SAPS  C213 1924   2.812   0.061   7.259  0.3470  0.6042  0.2701
   15SAPS  H13R 1925   2.754   0.000   7.332  1.0754  0.3073  0.6131
   15SAPS  H13S 1926   2.775   0.029   7.160 -0.0621 -0.1761  0.6618
   15SAPS  C214 1927   2.757   0.205   7.288 -0.0734 -0.6160  0.0846
   15SAPS  H14R 1928   2.759   0.259   7.192  1.8427 -1.3252 -0.3141
   15SAPS  C215 1929   2.706   0.258   7.402 -0.1326  0.3658 -0.2493
   15SAPS  H15R 1930   2.675   0.364   7.405 -0.5936  0.2283  2.4684
   15SAPS  C216 1931   2.686   0.194   7.533  0.7212 -0.1745  0.4677
   15SAPS  H16R 1932   2.689   0.083   7.526 -0.1201 -0.1069 -2.5406
   15SAPS  H16S 1933   2.583   0.223   7.564  0.2730 -0.7173 -0.4789
   15SAPS  C217 1934   2.788   0.249   7.627  0.5044  0.7826 -0.2156
   15SAPS  H17R 1935   2.891   0.232   7.589  0.4579  1.4846 -0.6776
   15SAPS  H17S 1936   2.785   0.175   7.710  2.1407  2.9179  1.9233
   15SAPS  C218 1937   2.763   0.383   7.681 -0.4217 -0.2849  0.4699
   15SAPS  H18R 1938   2.667   0.368   7.734 -1.5515  0.5586 -1.2492
   15SAPS  H18S 1939   2.741   0.456   7.600 -0.5262  0.9890  1.6048
   15SAPS  C219 1940   2.871   0.443   7.781  0.4787 -0.2463  0.0268
   15SAPS  H19R 1941   2.971   0.410   7.747 -0.3455 -1.5043 -1.2855
   15SAPS  H19S 1942   2.846   0.389   7.875 -2.0868 -0.6196 -0.8049
   15SAPS  C220 1943   2.856   0.600   7.807  0.2979 -0.2516  0.5045
   15SAPS  H20R 1944   2.897   0.626   7.907  1.9810  2.1390 -0.7037
   15SAPS  H20S 1945   2.749   0.622   7.788  0.5313  1.1084  0.6985
   15SAPS  H20T 1946   2.909   0.670   7.739 -2.1117  0.5538 -0.6194
   15SAPS   C33 1947   3.543   0.573   6.615 -0.1302  0.2809 -0.4207
   15SAPS   H3X 1948   3.558   0.669   6.560 -1.1887  0.1173 -1.0168
   15SAPS   H3Y 1949   3.630   0.504   6.606 -0.9958 -0.8850 -0.0789
   15SAPS   C34 1950   3.555   0.613   6.761 -0.7090  0.0075 -1.0116
   15SAPS   H4X 1951   3.471   0.684   6.766 -0.4986  0.1745  1.1128
   15SAPS   H4Y 1952   3.651   0.668   6.768  0.9957 -2.8829  0.4610
   15SAPS   C35 1953   3.540   0.501   6.867  0.3435  0.3746 -0.4254
   15SAPS   H5X 1954   3.618   0.425   6.847 -0.0635 -0.3427  0.5736
   15SAPS   H5Y 1955   3.443   0.449   6.847  0.5294 -0.3840  0.5595
   15SAPS   C36 1956   3.558   0.548   7.014 -0.2609  0.6585  0.2147
   15SAPS   H6X 1957   3.471   0.610   7.045  0.4515  1.6890  0.1870
   15SAPS   H6Y 1958   3.646   0.608   7.042  0.3691 -0.9466  1.9054
   15SAPS   C37 1959   3.554   0.431   7.119 -0.4028 -0.1588 -0.3281
   15SAPS   H7X 1960   3.643   0.366   7.128 -1.3654 -1.4832 -0.1150
   15SAPS   H7Y 1961   3.475   0.357   7.095 -0.2840 -0.5641  0.4844
   15SAPS   C38 1962   3.533   0.476   7.255 -0.5326 -0.2514 -0.3911
   15SAPS   H8X 1963   3.440   0.537   7.249 -1.4849 -1.8059 -3.8885
   15SAPS   H8Y 1964   3.618   0.539   7.289  0.3793 -1.0860 -1.0763
   15SAPS   C39 1965   3.502   0.376   7.358 -0.0891 -0.2738  0.0437
   15SAPS   H9X 1966   3.409   0.326   7.325  1.4238 -1.6831 -2.3310
   15SAPS   H9Y 1967   3.489   0.425   7.457 -0.2668 -1.3359  0.5579
   15SAPS  C310 1968   3.602   0.261   7.380  0.6283  0.1983 -0.6231
   15SAPS  H10X 1969   3.623   0.208   7.285  1.6521 -0.7932  0.1301
   15SAPS  H10Y 1970   3.555   0.181   7.441  2.3691 -0.9407 -0.7003
   15SAPS  C311 1971   3.734   0.300   7.443  0.1450  0.7499 -1.1841
   15SAPS  H11X 1972   3.717   0.400   7.488 -3.0777  0.3378 -1.2873
   15SAPS  H11Y 1973   3.828   0.294   7.384  2.5260 -2.0935  2.4210
   15SAPS  C312 1974   3.761   0.203   7.558 -0.1158 -0.4102 -0.7372
   15SAPS  H12X 1975   3.782   0.110   7.501 -1.2060 -0.2884 -1.3564
   15SAPS  H12Y 1976   3.670   0.190   7.620  1.5741 -1.7026  1.6330
   15SAPS  C313 1977   3.871   0.257   7.654 -0.3702 -0.4345 -0.4344
   15SAPS  H13X 1978   3.829   0.353   7.693  3.0986 -0.1274  3.1424
   15SAPS  H13Y 1979   3.967   0.276   7.602  0.1771 -0.9821  0.3571
   15SAPS  C314 1980   3.899   0.168   7.768 -0.1668  0.1518  0.2102
   15SAPS  H14X 1981   3.945   0.074   7.734  0.1429  0.9442 -1.6773
   15SAPS  H14Y 1982   3.804   0.143   7.819  0.1641  2.3667  2.1204
   15SAPS  C315 1983   4.007   0.236   7.847 -0.1297  0.1009 -0.0954
   15SAPS  H15X 1984   4.094   0.257   7.782  0.1746 -0.6108  0.0711
   15SAPS  H15Y 1985   4.041   0.174   7.932  2.9275  1.8772  0.1045
   15SAPS  C316 1986   3.957   0.364   7.917 -0.4006 -0.1199  0.1005
   15SAPS  H16X 1987   3.895   0.344   8.007 -0.8359 -3.1749 -0.7549
   15SAPS  H16Y 1988   3.910   0.437   7.847 -1.3583 -0.3295  0.5061
   15SAPS  C317 1989   4.070   0.438   7.998 -0.4443  0.4826  0.2970
   15SAPS  H17X 1990   4.150   0.478   7.933 -1.4545  2.8820  0.4333
   15SAPS  H17Y 1991   4.108   0.354   8.059 -3.2158  0.0448  1.5811
   15SAPS  C318 1992   4.017   0.550   8.081  0.3437 -0.3489  0.3439
   15SAPS  H18X 1993   4.080   0.586   8.166 -0.7899  0.8768  0.6914
   15SAPS  H18Y 1994   3.926   0.528   8.141 -0.2555  0.2087 -0.3452
   15SAPS  H18Z 1995   3.998   0.635   8.012  1.3086 -0.2061  0.2308
   16SAPS     N 1996   5.034   2.134   6.139  0.2769  1.1618  0.4573
   16SAPS   HN1 1997   5.071   2.206   6.073 -1.9102  2.2020  0.2705
   16SAPS   HN2 1998   4.932   2.150   6.136 -0.6377 -3.3832 -2.3094
   16SAPS   HN3 1999   5.066   2.146   6.238 -1.6266  0.2158  1.2280
   16SAPS   C12 2000   5.048   1.990   6.111 -0.5116  0.4729  0.2722
   16SAPS  H12A 2001   4.999   1.936   6.191  1.2040 -0.6933  0.5904
   16SAPS   C13 2002   4.995   1.935   5.977  0.5190 -0.3814 -0.1429
   16SAPS  O13A 2003   4.941   2.017   5.897  0.3332  1.2174  0.3398
   16SAPS  O13B 2004   4.999   1.811   5.954  0.2392 -0.9766 -0.0577
   16SAPS   C11 2005   5.198   1.950   6.110  0.1943  0.3039  0.4374
   16SAPS  H11A 2006   5.252   1.989   6.021 -1.5454  1.7266 -0.0385
   16SAPS  H11B 2007   5.196   1.839   6.096 -3.7939  0.4905 -1.8113
   16SAPS     P 2008   5.340   1.905   6.328  0.0882 -0.3592 -0.3004
   16SAPS   O13 2009   5.440   1.818   6.249 -0.5455 -0.4976 -0.1207
   16SAPS   O14 2010   5.403   1.997   6.431  0.4014 -0.3359  0.1853
   16SAPS   O12 2011   5.261   1.998   6.226 -0.8643  0.5302  0.5098
   16SAPS   O11 2012   5.224   1.825   6.384  0.3162  0.5072  0.3655
   16SAPS    C1 2013   5.123   1.871   6.475 -0.1212 -0.0387 -0.5929
   16SAPS    HA 2014   5.110   1.981   6.468  2.0625  0.3168  0.1407
   16SAPS    HB 2015   5.024   1.824   6.454  1.2233 -3.2098 -0.3125
   16SAPS    C2 2016   5.174   1.841   6.622  0.6514 -0.5205  0.0932
   16SAPS    HS 2017   5.278   1.880   6.623  0.4380  0.2638  3.7741
   16SAPS   O21 2018   5.163   1.697   6.640  0.5445 -0.4643 -0.5945
   16SAPS   C21 2019   5.260   1.646   6.704 -0.0857 -0.8807  0.2106
   16SAPS   O22 2020   5.363   1.708   6.738  0.3914  0.4129  0.4897
   16SAPS   C22 2021   5.252   1.497   6.732  1.0322  0.0568  0.0497
   16SAPS   H2R 2022   5.147   1.474   6.763  0.8076 -1.2491 -1.5536
   16SAPS   H2S 2023   5.251   1.445   6.634 -1.1533  2.7159 -1.4948
   16SAPS    C3 2024   5.089   1.922   6.728  0.4488 -1.2148  0.1029
   16SAPS    HX 2025   4.981   1.897   6.720  0.4653 -1.1354 -0.4281
   16SAPS    HY 2026   5.099   2.031   6.707  1.6459 -1.4895 -0.8073
   16SAPS   O31 2027   5.128   1.884   6.866 -0.1134 -0.1608  0.4346
   16SAPS   C31 2028   5.239   1.946   6.908  0.0013 -0.1459 -0.4969
   16SAPS   O32 2029   5.304   2.029   6.849  0.3779 -0.6300 -0.2842
   16SAPS   C32 2030   5.280   1.896   7.045  0.0494  0.1755 -1.2463
   16SAPS   H2X 2031   5.388   1.870   7.051  0.6820  2.8313  3.0546
   16SAPS   H2Y 2032   5.219   1.805   7.064  0.6930 -0.4271 -1.9591
   16SAPS   C23 2033   5.356   1.448   6.836 -0.3855  0.7993  0.2809
   16SAPS   H3R 2034   5.456   1.495   6.823  0.6715 -1.0315  1.2295
   16SAPS   H3S 2035   5.374   1.338   6.824  0.6533  0.9601  0.2061
   16SAPS   C24 2036   5.304   1.475   6.981 -0.2963 -0.1322 -0.0598
   16SAPS   H4R 2037   5.217   1.414   7.012 -1.3432  1.5435  0.4573
   16SAPS   H4S 2038   5.272   1.582   6.987 -2.0350 -0.6504  0.4930
   16SAPS   C25 2039   5.411   1.449   7.086 -0.2215  0.2238  0.6632
   16SAPS   H5R 2040   5.497   1.392   7.045 -1.5995 -1.8341  0.4966
   16SAPS   C26 2041   5.410   1.479   7.221  0.3272 -0.4190 -0.1052
   16SAPS   H6R 2042   5.497   1.439   7.274  0.1217  0.1425  0.6717
   16SAPS   C27 2043   5.309   1.545   7.304  0.5422 -0.4424  0.3331
   16SAPS   H7R 2044   5.242   1.464   7.340  1.2304 -1.1722 -0.0165
   16SAPS   H7S 2045   5.257   1.619   7.239 -1.4462 -1.0222  1.1973
   16SAPS   C28 2046   5.372   1.612   7.422 -0.1521 -1.2010  0.2251
   16SAPS   H8R 2047   5.479   1.626   7.400  0.2585  0.0735  2.6715
   16SAPS   C29 2048   5.317   1.665   7.533 -0.4984  0.2022 -0.1981
   16SAPS   H9R 2049   5.379   1.727   7.600  0.5943 -1.0209 -0.0384
   16SAPS  C210 2050   5.173   1.665   7.568 -0.0270  0.4398 -0.3633
   16SAPS  H10R 2051   5.170   1.663   7.679 -0.6615  0.1725 -0.3806
   16SAPS  H10S 2052   5.132   1.565   7.542  0.0245  0.3136  0.0216
   16SAPS  C211 2053   5.098   1.784   7.503 -0.0376  0.8189 -0.9748
   16SAPS  H11R 2054   5.093   1.780   7.393  2.4277  3.6636 -1.3103
   16SAPS  C212 2055   5.057   1.890   7.573 -0.2126 -0.2431  0.7745
   16SAPS  H12R 2056   5.017   1.975   7.515  2.1314  0.9064  0.7294
   16SAPS  C213 2057   5.064   1.919   7.725 -0.0768 -1.0122 -0.1437
   16SAPS  H13R 2058   5.152   1.868   7.770  0.4822  1.7409  2.1139
   16SAPS  H13S 2059   4.980   1.879   7.785  0.2031  0.8752  1.5942
   16SAPS  C214 2060   5.073   2.069   7.759  0.4544 -1.0555  0.3901
   16SAPS  H14R 2061   5.165   2.126   7.738 -0.3035  0.0055 -0.1753
   16SAPS  C215 2062   4.975   2.155   7.801  0.9888 -0.0371 -0.0711
   16SAPS  H15R 2063   5.002   2.258   7.825 -0.1440 -0.1275  1.8004
   16SAPS  C216 2064   4.828   2.114   7.818  0.6031  0.3509  0.4216
   16SAPS  H16R 2065   4.802   2.021   7.763 -2.3413  1.0958  0.3538
   16SAPS  H16S 2066   4.774   2.198   7.768 -1.2759 -1.8206 -1.4376
   16SAPS  C217 2067   4.790   2.105   7.966  0.2525  0.0612  0.0336
   16SAPS  H17R 2068   4.865   2.056   8.032 -0.1491 -0.2297  0.2708
   16SAPS  H17S 2069   4.704   2.035   7.966 -0.8947  1.4196  0.7748
   16SAPS  C218 2070   4.738   2.243   8.033 -0.1719  0.1780  0.1538
   16SAPS  H18R 2071   4.710   2.214   8.136  0.0970  0.3655  0.2809
   16SAPS  H18S 2072   4.644   2.265   7.978 -0.1448  0.2719  0.1452
   16SAPS  C219 2073   4.832   2.362   8.030 -0.1155  0.9244  0.4582
   16SAPS  H19R 2074   4.855   2.381   7.923 -0.6688 -0.1985  0.1232
   16SAPS  H19S 2075   4.924   2.336   8.086 -0.2957  0.0909  0.3833
   16SAPS  C220 2076   4.776   2.492   8.083  0.9057 -0.3249 -0.4732
   16SAPS  H20R 2077   4.845   2.576   8.060 -0.9623  1.2697 -0.5911
   16SAPS  H20S 2078   4.759   2.490   8.193  1.7405 -0.5695 -0.3441
   16SAPS  H20T 2079   4.681   2.501   8.027  0.2297 -0.5623  0.6033
   16SAPS   C33 2080   5.259   2.004   7.158 -0.4603 -0.1519  0.8963
   16SAPS   H3X 2081   5.338   2.082   7.156 -0.6675  0.0849  1.6294
   16SAPS   H3Y 2082   5.276   1.957   7.257  1.5184  0.3153  0.8204
   16SAPS   C34 2083   5.121   2.076   7.149  0.1309 -0.3779 -0.4327
   16SAPS   H4X 2084   5.046   1.996   7.166 -0.1529  0.4625  3.2808
   16SAPS   H4Y 2085   5.112   2.108   7.043  0.3673 -0.3846 -0.4561
   16SAPS   C35 2086   5.104   2.187   7.253 -0.0320 -0.2385  0.2132
   16SAPS   H5X 2087   5.141   2.276   7.198 -0.2893 -1.0839 -1.3810
   16SAPS   H5Y 2088   5.152   2.173   7.353 -1.1533  0.1119  0.8226
   16SAPS   C36 2089   4.962   2.224   7.280  0.7887 -0.3667 -0.2022
   16SAPS   H6X 2090   4.917   2.160   7.359 -1.2832  1.2029 -0.0440
   16SAPS   H6Y 2091   4.903   2.205   7.188  0.7392  0.3633 -0.3254
   16SAPS   C37 2092   4.947   2.365   7.333 -0.2709 -1.1525 -0.2808
   16SAPS   H7X 2093   4.840   2.389   7.350  0.2216  1.6689 -0.5500
   16SAPS   H7Y 2094   4.985   2.441   7.262 -2.4975  0.3109 -0.0247
   16SAPS   C38 2095   5.011   2.385   7.468  0.4482 -0.9148  0.0701
   16SAPS   H8X 2096   5.111   2.429   7.451  0.7103 -1.6899 -0.4281
   16SAPS   H8Y 2097   5.025   2.290   7.522 -1.6247 -2.0822 -1.3015
   16SAPS   C39 2098   4.936   2.500   7.549  0.2132 -0.4740  0.3588
   16SAPS   H9X 2099   4.843   2.449   7.582 -1.7088  3.7377  2.2323
   16SAPS   H9Y 2100   4.918   2.590   7.487  0.4461 -1.6551 -1.4715
   16SAPS  C310 2101   5.016   2.543   7.675 -0.9541  0.0465  0.8182
   16SAPS  H10X 2102   5.125   2.547   7.653 -1.6692  2.4977 -3.6036
   16SAPS  H10Y 2103   5.018   2.467   7.756  1.3477 -2.7473 -1.5970
   16SAPS  C311 2104   4.975   2.679   7.733  0.1472 -0.8595  0.2888
   16SAPS  H11X 2105   4.866   2.688   7.754  0.6226  1.2671  2.2325
   16SAPS  H11Y 2106   5.008   2.768   7.675 -0.9463  0.7128  1.9720
   16SAPS  C312 2107   5.045   2.696   7.869 -0.6040 -0.3176  0.3427
   16SAPS  H12X 2108   5.156   2.697   7.856 -0.7381  0.2212 -0.8112
   16SAPS  H12Y 2109   5.014   2.620   7.945  0.2544 -3.8544 -2.5683
   16SAPS  C313 2110   5.018   2.837   7.928 -0.4832  0.1094 -0.0320
   16SAPS  H13X 2111   4.917   2.852   7.970 -0.3955  2.8152 -0.5741
   16SAPS  H13Y 2112   5.031   2.910   7.844  1.4509  0.4896  0.5529
   16SAPS  C314 2113   5.128   2.869   8.027  0.2614  0.3098  0.0134
   16SAPS  H14X 2114   5.224   2.829   7.987  0.0316 -0.1921 -0.0407
   16SAPS  H14Y 2115   5.111   2.800   8.112 -0.4275  0.0656 -0.3193
   16SAPS  C315 2116   5.147   3.015   8.079 -0.3953  0.6890 -0.1009
   16SAPS  H15X 2117   5.046   3.055   8.106 -0.3717  0.4281  0.3870
   16SAPS  H15Y 2118   5.190   3.074   7.995 -2.3783  1.7890 -0.4095
   16SAPS  C316 2119   5.241   3.022   8.195 -0.0219 -0.0245 -0.1928
   16SAPS  H16X 2120   5.345   2.988   8.172  1.3369  2.8203  1.2401
   16SAPS  H16Y 2121   5.221   2.964   8.288 -3.4970  1.2267 -0.0232
   16SAPS  C317 2122   5.268   3.165   8.253 -0.3885  0.2990 -0.3112
   16SAPS  H17X 2123   5.287   3.152   8.362  2.1737 -0.0447 -0.7559
   16SAPS  H17Y 2124   5.168   3.212   8.240 -1.0636 -1.4695 -2.0534
   16SAPS  C318 2125   5.389   3.238   8.194 -0.1546 -0.1104 -0.0033
   16SAPS  H18X 2126   5.485   3.182   8.201 -0.6662 -1.1990 -1.3201
   16SAPS  H18Y 2127   5.408   3.337   8.243 -3.4144  0.5109  0.1916
   16SAPS  H18Z 2128   5.357   3.260   8.090  1.2891 -0.3466 -0.5268
   17SAPC     N 2129   4.025   0.641  10.460  0.0020  0.1544 -0.2959
   17SAPC   C12 2130   4.017   0.564  10.329 -0.1617 -0.9986 -0.3247
   17SAPC  H12A 2131   4.115   0.521  10.312  0.5036  1.1015 -2.4950
   17SAPC  H12B 2132   3.989   0.620  10.241 -1.7551 -2.6565 -0.9097
   17SAPC   C13 2133   4.063   0.561  10.578  0.7924  0.3542 -0.4600
   17SAPC  H13A 2134   4.031   0.601  10.673 -1.7281 -2.3980 -0.0186
   17SAPC  H13B 2135   4.023   0.462  10.564 -1.6977  1.1703  0.4114
   17SAPC  H13C 2136   4.169   0.548  10.593  0.1887 -2.5605  2.1514
   17SAPC   C14 2137   4.125   0.751  10.441 -0.0706 -0.6246  0.0349
   17SAPC  H14A 2138   4.081   0.824  10.376  1.6194  0.6140  0.2164
   17SAPC  H14B 2139   4.167   0.798  10.529 -0.4912  0.2917 -0.2416
   17SAPC  H14C 2140   4.209   0.700  10.398 -0.5444 -1.1941 -0.2359
   17SAPC   C15 2141   3.896   0.703  10.483  0.3770  0.0958 -0.0746
   17SAPC  H15A 2142   3.856   0.753  10.396  0.0113 -1.5478 -0.8937
   17SAPC  H15B 2143   3.820   0.634  10.516  1.4801 -0.6291  1.0415
   17SAPC  H15C 2144   3.904   0.776  10.562 -3.3414 -0.8633  1.3959
   17SAPC   C11 2145   3.921   0.440  10.328 -0.2775 -0.3760 -0.1867
   17SAPC  H11A 2146   3.903   0.403  10.225  0.7367 -0.9478 -0.1732
   17SAPC  H11B 2147   3.821   0.478  10.357  0.7127  1.3282  1.2146
   17SAPC     P 2148   4.079   0.238  10.368  0.3829  0.0513  0.1732
   17SAPC   O13 2149   4.211   0.305  10.360  0.4213 -0.9479  0.7058
   17SAPC   O14 2150   4.070   0.124  10.467 -0.3367 -0.3394  0.3865
   17SAPC   O12 2151   3.962   0.335  10.415 -0.1656  0.3465  0.2562
   17SAPC   O11 2152   4.030   0.184  10.232 -0.0764 -0.3789  0.2175
   17SAPC    C1 2153   4.069   0.062  10.171  0.6434 -0.0471 -0.0750
   17SAPC    HA 2154   4.116  -0.011  10.240  2.4088 -0.6035 -1.7627
   17SAPC    HB 2155   3.977   0.012  10.133 -0.0108 -0.6001  2.1259
   17SAPC    C2 2156   4.162   0.075  10.054  0.1075  0.2496 -0.6600
   17SAPC    HS 2157   4.259   0.097  10.105 -1.4327  0.9641  2.1380
   17SAPC   O21 2158   4.116   0.174   9.961  0.5427 -0.0781  0.1315
   17SAPC   C21 2159   4.187   0.282   9.960  0.6806 -0.0236 -0.8094
   17SAPC   O22 2160   4.296   0.301  10.011 -0.3140 -0.6442  0.7256
   17SAPC   C22 2161   4.095   0.386   9.882  0.4171  0.6363  0.1158
   17SAPC   H2R 2162   4.066   0.336   9.787  2.9150 -2.2652  0.7099
   17SAPC   H2S 2163   4.002   0.411   9.936 -1.1706 -0.3616 -2.0175
   17SAPC    C3 2164   4.184  -0.062   9.976  0.5843 -0.3017 -0.0430
   17SAPC    HX 2165   4.090  -0.093   9.925  1.0688  0.2656 -1.3278
   17SAPC    HY 2166   4.211  -0.135  10.054  0.7710  0.2117  0.3830
   17SAPC   O31 2167   4.279  -0.042   9.869  0.1686 -0.2394 -0.2753
   17SAPC   C31 2168   4.403  -0.077   9.901 -0.5043 -0.3932  0.3061
   17SAPC   O32 2169   4.435  -0.146   9.998 -0.3389  0.1665  0.0925
   17SAPC   C32 2170   4.493  -0.049   9.790 -0.7520 -1.1592 -0.5631
   17SAPC   H2X 2171   4.447  -0.081   9.693 -2.4875 -0.6620  0.0606
   17SAPC   H2Y 2172   4.587  -0.106   9.806  0.0570 -0.0165 -1.1823
   17SAPC   C23 2173   4.175   0.514   9.830  0.8560  0.4421  0.9471
   17SAPC   H3R 2174   4.261   0.472   9.774 -0.9342 -0.8421 -1.0102
   17SAPC   H3S 2175   4.208   0.576   9.916  2.5051 -0.3391  0.9067
   17SAPC   C24 2176   4.093   0.593   9.722  0.1773  0.2660 -0.3451
   17SAPC   H4R 2177   3.995   0.619   9.767 -0.0939 -0.6626 -0.3640
   17SAPC   H4S 2178   4.078   0.509   9.651  1.2868 -0.3519  0.1235
   17SAPC   C25 2179   4.170   0.704   9.666  0.7690  0.0537 -0.6612
   17SAPC   H5R 2180   4.211   0.784   9.730  0.3847  2.1997 -2.9252
   17SAPC   C26 2181   4.184   0.729   9.539 -0.5536  0.0782 -0.2599
   17SAPC   H6R 2182   4.242   0.819   9.515  1.1757 -0.9159  0.0608
   17SAPC   C27 2183   4.143   0.646   9.417 -0.2664  0.0751 -0.1902
   17SAPC   H7R 2184   4.090   0.723   9.358  0.2302  1.7406  1.4596
   17SAPC   H7S 2185   4.064   0.570   9.437  0.1739 -0.2584  0.3432
   17SAPC   C28 2186   4.252   0.589   9.331 -0.5839 -1.0789 -0.3309
   17SAPC   H8R 2187   4.303   0.505   9.381  2.1114  0.8029  0.2515
   17SAPC   C29 2188   4.285   0.632   9.206 -0.3104  0.1403  0.3525
   17SAPC   H9R 2189   4.364   0.579   9.151 -0.3269 -1.0604  1.4431
   17SAPC  C210 2190   4.233   0.748   9.123 -0.0522 -0.6013 -0.2680
   17SAPC  H10R 2191   4.310   0.788   9.054 -0.1040 -0.6247 -0.3404
   17SAPC  H10S 2192   4.205   0.830   9.192 -3.1285 -1.2280 -0.6153
   17SAPC  C211 2193   4.109   0.707   9.041  0.1807 -0.0011  0.7690
   17SAPC  H11R 2194   4.026   0.656   9.092 -1.7160  0.6493 -1.4521
   17SAPC  C212 2195   4.081   0.739   8.910  0.1740  0.9746  0.6870
   17SAPC  H12R 2196   3.981   0.706   8.876  0.3857  0.1432  0.8576
   17SAPC  C213 2197   4.171   0.821   8.818  0.3953  0.3759 -0.3107
   17SAPC  H13R 2198   4.250   0.750   8.788  0.1471 -0.4817  1.0056
   17SAPC  H13S 2199   4.233   0.899   8.869  1.9412 -1.4495  0.7095
   17SAPC  C214 2200   4.098   0.891   8.708  0.8267 -0.3826 -0.3324
   17SAPC  H14R 2201   4.033   0.977   8.729  1.1797  0.0590 -0.9949
   17SAPC  C215 2202   4.114   0.864   8.575 -0.5967 -0.2251  0.2806
   17SAPC  H15R 2203   4.062   0.931   8.505 -0.5808 -1.6480 -1.1512
   17SAPC  C216 2204   4.212   0.766   8.515 -0.1956  0.5296 -0.4772
   17SAPC  H16R 2205   4.166   0.670   8.485 -0.7865  0.0591  1.7412
   17SAPC  H16S 2206   4.278   0.725   8.596  0.1052 -1.8000 -1.8121
   17SAPC  C217 2207   4.307   0.824   8.418  0.3312  0.2965  0.0118
   17SAPC  H17R 2208   4.368   0.894   8.479  1.5717 -0.7593  0.0069
   17SAPC  H17S 2209   4.252   0.878   8.338  1.5276 -3.2914 -3.5691
   17SAPC  C218 2210   4.398   0.729   8.347  0.6609 -0.2199  0.4543
   17SAPC  H18R 2211   4.353   0.658   8.274 -1.4792  1.2856  0.2292
   17SAPC  H18S 2212   4.441   0.674   8.434  0.9595 -1.9853 -0.7428
   17SAPC  C219 2213   4.526   0.812   8.294 -0.6516 -0.1727  0.1599
   17SAPC  H19R 2214   4.561   0.890   8.365  3.5229 -0.4161 -1.3412
   17SAPC  H19S 2215   4.509   0.860   8.195  1.7156  0.3938 -0.0281
   17SAPC  C220 2216   4.634   0.698   8.268  0.1006  0.0441  0.1492
   17SAPC  H20R 2217   4.737   0.731   8.244  0.6748  0.4552  2.8858
   17SAPC  H20S 2218   4.598   0.611   8.208 -0.6207 -1.4115  2.5492
   17SAPC  H20T 2219   4.657   0.646   8.364  1.1740  1.5192  0.7268
   17SAPC   C33 2220   4.521   0.104   9.763 -0.1106 -0.0423  0.2189
   17SAPC   H3X 2221   4.614   0.113   9.701 -0.1496  1.8358  0.3748
   17SAPC   H3Y 2222   4.538   0.157   9.859 -1.5366  0.0414  0.4369
   17SAPC   C34 2223   4.413   0.174   9.678  0.3803 -0.4798 -0.9675
   17SAPC   H4X 2224   4.441   0.281   9.670 -0.1200 -0.3051 -0.4691
   17SAPC   H4Y 2225   4.308   0.166   9.714  0.8065  0.0317  0.4666
   17SAPC   C35 2226   4.403   0.113   9.541 -0.3722  0.6844  0.3626
   17SAPC   H5X 2227   4.319   0.041   9.551  0.2147  0.2961  3.8012
   17SAPC   H5Y 2228   4.487   0.040   9.529  0.0410  1.3363 -0.8553
   17SAPC   C36 2229   4.395   0.225   9.430  0.1390 -0.2636 -0.8747
   17SAPC   H6X 2230   4.490   0.283   9.434  0.6191 -1.1027  0.1710
   17SAPC   H6Y 2231   4.309   0.284   9.466 -0.5958 -1.4609 -0.6209
   17SAPC   C37 2232   4.375   0.169   9.293 -1.1274 -0.3861  0.1189
   17SAPC   H7X 2233   4.296   0.090   9.290  1.3622 -3.0344  0.2064
   17SAPC   H7Y 2234   4.465   0.118   9.252 -1.2456 -0.0135 -0.6317
   17SAPC   C38 2235   4.333   0.279   9.197  0.4613 -0.1199 -0.4383
   17SAPC   H8X 2236   4.403   0.365   9.186 -2.5222  2.4807 -0.4256
   17SAPC   H8Y 2237   4.240   0.326   9.233 -1.3318 -3.3253 -0.4913
   17SAPC   C39 2238   4.306   0.243   9.048 -0.5306 -0.8154 -0.3921
   17SAPC   H9X 2239   4.206   0.196   9.047 -0.8856 -0.1414  0.9693
   17SAPC   H9Y 2240   4.383   0.168   9.018 -0.9102 -1.1873 -0.4465
   17SAPC  C310 2241   4.300   0.366   8.953 -0.7389  0.7133 -0.3134
   17SAPC  H10X 2242   4.398   0.415   8.937 -1.6256  2.1892 -1.3875
   17SAPC  H10Y 2243   4.236   0.446   8.996  0.2247  0.7628  1.1270
   17SAPC  C311 2244   4.241   0.310   8.822  0.0076 -0.0005  0.5868
   17SAPC  H11X 2245   4.138   0.272   8.841  0.0997  0.6230  2.4811
   17SAPC  H11Y 2246   4.298   0.221   8.788  2.4941  1.0879  1.6610
   17SAPC  C312 2247   4.237   0.425   8.715  0.2391  0.0745  0.3558
   17SAPC  H12X 2248   4.328   0.486   8.696 -1.3509  1.8810 -2.2080
   17SAPC  H12Y 2249   4.168   0.508   8.744 -0.8687 -0.8281  0.3709
   17SAPC  C313 2250   4.169   0.383   8.580 -0.0506 -0.6850  0.4171
   17SAPC  H13X 2251   4.212   0.288   8.542  1.4090 -0.0639  0.4612
   17SAPC  H13Y 2252   4.197   0.451   8.497  0.0116 -1.2706 -0.0499
   17SAPC  C314 2253   4.016   0.373   8.592 -0.5395 -0.4712 -0.1125
   17SAPC  H14X 2254   3.974   0.454   8.654  0.0552  0.3929 -0.8199
   17SAPC  H14Y 2255   3.992   0.275   8.640  0.0923  0.2785  1.8150
   17SAPC  C315 2256   3.946   0.397   8.461  0.1378 -0.2473 -0.6134
   17SAPC  H15X 2257   3.954   0.506   8.443 -1.7346  0.1875  0.9358
   17SAPC  H15Y 2258   3.839   0.380   8.483 -0.0584  0.6225 -0.8723
   17SAPC  C316 2259   3.978   0.314   8.338 -0.1417 -0.4491 -0.4792
   17SAPC  H16X 2260   4.086   0.332   8.318 -0.1387  0.0776 -0.0110
   17SAPC  H16Y 2261   3.917   0.342   8.250  0.1430 -1.4409 -1.0066
   17SAPC  C317 2262   3.956   0.160   8.360 -0.7217 -0.2718  0.8790
   17SAPC  H17X 2263   3.845   0.152   8.365 -0.6962 -0.9981  0.4064
   17SAPC  H17Y 2264   4.000   0.137   8.460 -1.5209  1.3376  1.6375
   17SAPC  C318 2265   4.018   0.070   8.252 -0.3116  0.4346  0.5675
   17SAPC  H18X 2266   4.128   0.086   8.247 -0.3170 -0.0279 -1.9974
   17SAPC  H18Y 2267   3.998  -0.037   8.275 -1.9402  1.4374  4.6262
   17SAPC  H18Z 2268   3.974   0.090   8.152  0.6727 -3.0766 -0.7241
   18SAPC     N 2269   4.532   1.126  10.498  0.0958  0.1275 -0.7934
   18SAPC   C12 2270   4.484   1.055  10.371 -0.1383 -0.0111  0.3374
   18SAPC  H12A 2271   4.567   1.022  10.310 -1.7349 -1.2092 -1.3010
   18SAPC  H12B 2272   4.427   1.126  10.313  1.3220 -0.4755 -1.8151
   18SAPC   C13 2273   4.595   1.257  10.470 -0.1305  0.3514  0.3835
   18SAPC  H13A 2274   4.521   1.318  10.420 -0.9553 -0.4984  0.5409
   18SAPC  H13B 2275   4.635   1.308  10.556  1.1453  1.2253 -0.6670
   18SAPC  H13C 2276   4.679   1.234  10.405  0.5834 -1.3802  1.8259
   18SAPC   C14 2277   4.412   1.143  10.590  0.0907  0.2784 -0.8591
   18SAPC  H14A 2278   4.367   1.046  10.608  0.1622  0.4478  0.3331
   18SAPC  H14B 2279   4.434   1.204  10.677  2.0623  3.5072 -3.3879
   18SAPC  H14C 2280   4.331   1.191  10.537 -0.7489  1.5224  1.4111
   18SAPC   C15 2281   4.633   1.046  10.571  0.3668  0.1652 -0.7746
   18SAPC  H15A 2282   4.597   0.945  10.578  2.0419 -0.5850 -2.2194
   18SAPC  H15B 2283   4.729   1.043  10.520  0.2998  0.0163 -0.8893
   18SAPC  H15C 2284   4.644   1.089  10.670 -2.3601  2.7229 -1.4226
   18SAPC   C11 2285   4.399   0.922  10.386  0.1018  0.1522 -0.1423
   18SAPC  H11A 2286   4.356   0.896  10.287  0.9599 -1.0111 -0.2339
   18SAPC  H11B 2287   4.308   0.938  10.449  0.5323 -1.0687  0.8264
   18SAPC     P 2288   4.564   0.736  10.345 -0.2401  0.2280 -0.1363
   18SAPC   O13 2289   4.667   0.831  10.295 -0.2020 -0.1138 -0.1853
   18SAPC   O14 2290   4.601   0.616  10.418  0.3256  0.4848  0.1292
   18SAPC   O12 2291   4.474   0.815  10.445 -0.0754 -0.0294 -0.2966
   18SAPC   O11 2292   4.459   0.692  10.237 -0.4215 -0.3613 -0.2279
   18SAPC    C1 2293   4.483   0.583  10.157  1.1333 -0.1403 -0.6417
   18SAPC    HA 2294   4.529   0.497  10.210 -2.5354 -1.5428  0.6230
   18SAPC    HB 2295   4.381   0.545  10.132  0.7107  0.8943 -0.5643
   18SAPC    C2 2296   4.568   0.605  10.024 -0.1032 -0.5324  0.5059
   18SAPC    HS 2297   4.673   0.597  10.057 -0.9245 -1.1583  3.2945
   18SAPC   O21 2298   4.540   0.724   9.956 -0.2078 -0.1342  0.1199
   18SAPC   C21 2299   4.638   0.774   9.872 -0.1781 -0.2047 -0.0967
   18SAPC   O22 2300   4.751   0.737   9.868  0.1001  0.3653 -0.4651
   18SAPC   C22 2301   4.577   0.867   9.775 -0.4547 -0.2411 -0.2374
   18SAPC   H2R 2302   4.506   0.804   9.716  0.2167 -1.2933  0.0515
   18SAPC   H2S 2303   4.522   0.943   9.836 -0.8537 -0.0076 -0.8792
   18SAPC    C3 2304   4.540   0.484   9.929  0.2149  0.1594 -0.0061
   18SAPC    HX 2305   4.433   0.493   9.903  0.0402  0.1818  0.7032
   18SAPC    HY 2306   4.539   0.387   9.982 -0.1885  1.5631  2.7670
   18SAPC   O31 2307   4.620   0.493   9.809  0.0531  0.4346 -0.0575
   18SAPC   C31 2308   4.721   0.394   9.801 -0.2143 -0.9620  1.2392
   18SAPC   O32 2309   4.757   0.319   9.887 -0.1734  0.5465 -0.3208
   18SAPC   C32 2310   4.773   0.395   9.662 -0.1160  0.4753  0.2647
   18SAPC   H2X 2311   4.825   0.492   9.650  2.2859 -0.6498  1.1131
   18SAPC   H2Y 2312   4.684   0.401   9.595 -0.1580  0.3815  0.3126
   18SAPC   C23 2313   4.687   0.932   9.681 -0.3737 -0.7220  0.0766
   18SAPC   H3R 2314   4.746   0.851   9.635 -0.5634 -2.5576  2.7884
   18SAPC   H3S 2315   4.762   0.989   9.740  0.2330 -0.8641 -0.5531
   18SAPC   C24 2316   4.631   1.018   9.566 -0.6933  0.0504  0.4768
   18SAPC   H4R 2317   4.715   1.064   9.509 -2.0301  3.1426  0.8714
   18SAPC   H4S 2318   4.575   1.099   9.615  1.1879  0.8319  1.4465
   18SAPC   C25 2319   4.537   0.934   9.477  0.0982  0.5663  0.1976
   18SAPC   H5R 2320   4.442   0.895   9.516  0.6305 -1.3149 -0.2799
   18SAPC   C26 2321   4.565   0.883   9.355  0.5525 -0.1993 -0.2831
   18SAPC   H6R 2322   4.489   0.824   9.302  1.9700 -0.9714 -1.5064
   18SAPC   C27 2323   4.695   0.900   9.281  0.5793  0.1144  0.7429
   18SAPC   H7R 2324   4.729   0.797   9.258 -0.4049 -0.0056 -0.2907
   18SAPC   H7S 2325   4.778   0.939   9.343  2.8837  0.0280 -2.0329
   18SAPC   C28 2326   4.706   0.980   9.153 -0.4789  0.2223 -0.2751
   18SAPC   H8R 2327   4.727   1.087   9.167  1.1028 -0.0538 -0.3333
   18SAPC   C29 2328   4.687   0.936   9.026  0.5784  0.0985  0.0975
   18SAPC   H9R 2329   4.692   1.010   8.945 -0.6439 -1.5191 -1.5563
   18SAPC  C210 2330   4.649   0.797   8.983  0.1676  0.2058 -0.3889
   18SAPC  H10R 2331   4.586   0.738   9.052 -0.6011 -0.2031 -1.4176
   18SAPC  H10S 2332   4.738   0.732   8.974 -0.6355 -0.8803 -0.6247
   18SAPC  C211 2333   4.584   0.799   8.850 -0.6522 -0.4660  1.5855
   18SAPC  H11R 2334   4.487   0.850   8.842  0.1732  0.8488 -1.1090
   18SAPC  C212 2335   4.637   0.728   8.743  0.0058  0.0390 -0.2974
   18SAPC  H12R 2336   4.569   0.730   8.657 -0.9883  0.1814  0.4723
   18SAPC  C213 2337   4.759   0.640   8.737 -0.6547  0.3657  0.1217
   18SAPC  H13R 2338   4.838   0.687   8.801  0.1250 -0.8191  0.0690
   18SAPC  H13S 2339   4.804   0.640   8.635 -0.8986 -2.4732 -0.0597
   18SAPC  C214 2340   4.732   0.499   8.786  0.2132  0.6811  0.6028
   18SAPC  H14R 2341   4.716   0.483   8.894 -0.9031 -3.7003 -0.0014
   18SAPC  C215 2342   4.707   0.393   8.701  0.1050  0.8370  0.3054
   18SAPC  H15R 2343   4.684   0.296   8.748 -2.7070  0.6074 -1.3685
   18SAPC  C216 2344   4.707   0.387   8.549 -0.0390 -1.0224 -0.6214
   18SAPC  H16R 2345   4.762   0.474   8.505  1.8981 -2.4102 -1.0761
   18SAPC  H16S 2346   4.599   0.400   8.528  0.0508  2.1283  0.3333
   18SAPC  C217 2347   4.754   0.262   8.486 -1.1339  0.4886  0.4496
   18SAPC  H17R 2348   4.700   0.182   8.541 -1.4864 -0.5796 -1.3581
   18SAPC  H17S 2349   4.864   0.249   8.497 -1.1375  0.3579  0.3334
   18SAPC  C218 2350   4.717   0.250   8.341  0.3221 -0.1168 -0.2566
   18SAPC  H18R 2351   4.765   0.331   8.281 -0.1537  3.2100  3.4299
   18SAPC  H18S 2352   4.606   0.256   8.332  0.3210  1.4537  0.4326
   18SAPC  C219 2353   4.755   0.111   8.282 -0.3059  0.3370  1.0838
   18SAPC  H19R 2354   4.728   0.042   8.364  0.3634 -0.7329  0.4361
   18SAPC  H19S 2355   4.866   0.112   8.273 -0.2842 -1.9206  0.5797
   18SAPC  C220 2356   4.691   0.080   8.147  0.5627  0.4513 -0.3496
   18SAPC  H20R 2357   4.708  -0.028   8.126 -2.0385  0.0436 -0.6482
   18SAPC  H20S 2358   4.735   0.132   8.059 -1.8780 -0.1402 -2.0391
   18SAPC  H20T 2359   4.581   0.095   8.150  0.6336  1.0491 -0.7094
   18SAPC   C33 2360   4.865   0.279   9.629  0.2794 -0.1400 -0.1061
   18SAPC   H3X 2361   4.819   0.179   9.615 -0.7182  0.5842 -2.6144
   18SAPC   H3Y 2362   4.939   0.267   9.711 -0.9621 -0.1981  1.0168
   18SAPC   C34 2363   4.938   0.306   9.493  0.3463  0.2082  0.0549
   18SAPC   H4X 2364   5.017   0.232   9.469 -0.9498 -0.7509 -1.4906
   18SAPC   H4Y 2365   4.987   0.405   9.496 -0.4345  0.5939  2.6110
   18SAPC   C35 2366   4.842   0.299   9.376 -0.4115  0.0854 -0.7612
   18SAPC   H5X 2367   4.739   0.336   9.396 -0.0868  0.3243  0.5682
   18SAPC   H5Y 2368   4.815   0.192   9.369 -2.7463  0.6108 -0.7814
   18SAPC   C36 2369   4.887   0.361   9.245  0.6389  0.3321 -0.5066
   18SAPC   H6X 2370   4.972   0.297   9.213  3.2240  2.9230  0.6966
   18SAPC   H6Y 2371   4.927   0.461   9.273 -1.2156  1.0514 -0.2655
   18SAPC   C37 2372   4.766   0.382   9.148 -0.6057 -0.1795 -0.0106
   18SAPC   H7X 2373   4.789   0.465   9.078 -1.6966  1.0648  1.0565
   18SAPC   H7Y 2374   4.671   0.403   9.202 -0.2541 -1.2223  1.0487
   18SAPC   C38 2375   4.729   0.248   9.081 -0.3569 -0.6172  0.5674
   18SAPC   H8X 2376   4.641   0.257   9.014  1.0383  0.6343 -1.1821
   18SAPC   H8Y 2377   4.730   0.167   9.157 -2.1007  0.2419  1.5631
   18SAPC   C39 2378   4.830   0.200   8.981  0.0799 -0.1189 -0.3910
   18SAPC   H9X 2379   4.930   0.208   9.029 -1.1312 -2.8934  3.0681
   18SAPC   H9Y 2380   4.828   0.265   8.891 -1.8043  0.4041 -0.0133
   18SAPC  C310 2381   4.810   0.065   8.925  0.0098 -0.1509  0.1427
   18SAPC  H10X 2382   4.713   0.054   8.870 -1.6546 -0.2002  2.8816
   18SAPC  H10Y 2383   4.816  -0.003   9.013  1.0239  1.1174  1.0970
   18SAPC  C311 2384   4.918   0.031   8.817 -0.2624 -0.5849 -0.2887
   18SAPC  H11X 2385   5.015   0.072   8.852 -0.2920 -2.2180  1.9506
   18SAPC  H11Y 2386   4.890   0.072   8.718 -0.1983 -1.0482 -0.5035
   18SAPC  C312 2387   4.937  -0.124   8.806 -0.4361  0.3964 -0.6848
   18SAPC  H12X 2388   4.975  -0.164   8.903 -2.1670  0.9047  0.2518
   18SAPC  H12Y 2389   5.014  -0.156   8.733 -1.1175  0.1987 -1.3269
   18SAPC  C313 2390   4.809  -0.206   8.771 -0.5640  0.0838 -0.6857
   18SAPC  H13X 2391   4.739  -0.204   8.858  1.3179 -1.7804  0.9947
   18SAPC  H13Y 2392   4.835  -0.314   8.778 -1.2884  0.0011  1.4252
   18SAPC  C314 2393   4.747  -0.182   8.636  0.4707 -0.6683  0.0848
   18SAPC  H14X 2394   4.828  -0.163   8.563  0.9218 -1.8234  0.2651
   18SAPC  H14Y 2395   4.690  -0.087   8.642  0.7389 -0.5128  0.2101
   18SAPC  C315 2396   4.667  -0.299   8.588  0.2098  0.1549  0.0842
   18SAPC  H15X 2397   4.577  -0.324   8.648  0.2545 -0.5031 -0.1127
   18SAPC  H15Y 2398   4.738  -0.382   8.603  0.5233  0.3547 -0.2680
   18SAPC  C316 2399   4.637  -0.296   8.439 -0.0411  0.1784 -0.5097
   18SAPC  H16X 2400   4.711  -0.238   8.380  0.2493 -0.9956 -1.3212
   18SAPC  H16Y 2401   4.537  -0.249   8.426  0.2077  1.4601  1.7017
   18SAPC  C317 2402   4.627  -0.441   8.377  0.1806  0.4152  0.3706
   18SAPC  H17X 2403   4.582  -0.444   8.276  1.6078  2.7645 -0.4209
   18SAPC  H17Y 2404   4.561  -0.504   8.440  0.5570 -0.1775  0.1870
   18SAPC  C318 2405   4.760  -0.508   8.358  0.5278 -0.1448  0.6142
   18SAPC  H18X 2406   4.825  -0.437   8.303  0.9417 -0.7915  0.2591
   18SAPC  H18Y 2407   4.752  -0.598   8.293 -0.6025 -1.4133  2.4166
   18SAPC  H18Z 2408   4.808  -0.541   8.453  2.2470 -1.5342 -0.6573
   19SAPC     N 2409   2.697   6.391  10.748 -0.1977 -0.2359  0.5184
   19SAPC   C12 2410   2.585   6.347  10.656  0.2632  0.3189 -0.2470
   19SAPC  H12A 2411   2.597   6.251  10.609 -1.0230  1.3316 -2.8273
   19SAPC  H12B 2412   2.585   6.416  10.573 -1.2185  1.6642  0.7948
   19SAPC   C13 2413   2.825   6.387  10.670  0.0807  0.1875 -0.5065
   19SAPC  H13A 2414   2.909   6.419  10.729 -1.3938  2.0012  0.7573
   19SAPC  H13B 2415   2.850   6.290  10.630 -1.0287 -1.7835  3.0669
   19SAPC  H13C 2416   2.819   6.447  10.581 -1.6109 -1.3451 -1.4848
   19SAPC   C14 2417   2.679   6.537  10.786 -0.0559  0.7571  0.1073
   19SAPC  H14A 2418   2.749   6.577  10.859 -3.0738  2.0930  2.5234
   19SAPC  H14B 2419   2.663   6.598  10.699 -2.6602  2.3103  1.5328
   19SAPC  H14C 2420   2.582   6.543  10.833 -0.2124 -0.1314 -0.0827
   19SAPC   C15 2421   2.703   6.301  10.872 -0.7864  0.5793  0.4216
   19SAPC  H15A 2422   2.629   6.330  10.945  1.1213  0.2453  2.5783
   19SAPC  H15B 2423   2.679   6.200  10.841  1.4993 -0.3196  1.3880
   19SAPC  H15C 2424   2.796   6.304  10.927  0.0514  0.5804 -0.9435
   19SAPC   C11 2425   2.450   6.339  10.729  0.2302  0.7111 -0.7233
   19SAPC  H11A 2426   2.457   6.301  10.833  0.2211 -0.8225 -1.2604
   19SAPC  H11B 2427   2.381   6.268  10.679  0.3249  0.0758  0.0400
   19SAPC     P 2428   2.338   6.547  10.620 -0.0100 -0.0284 -0.0251
   19SAPC   O13 2429   2.232   6.635  10.674  0.4472  0.2568  0.5676
   19SAPC   O14 2430   2.451   6.612  10.557 -0.5592  0.1103  0.3075
   19SAPC   O12 2431   2.388   6.469  10.743 -0.0183 -0.1757  0.0661
   19SAPC   O11 2432   2.277   6.436  10.524 -0.2015 -0.1762 -0.3374
   19SAPC    C1 2433   2.268   6.468  10.385 -0.1336 -0.4126 -0.3397
   19SAPC    HA 2434   2.162   6.470  10.350  0.6397  0.4024 -2.8915
   19SAPC    HB 2435   2.335   6.551  10.357  1.1181 -0.8360  1.2729
   19SAPC    C2 2436   2.320   6.346  10.294 -1.4997 -0.5809 -0.5772
   19SAPC    HS 2437   2.430   6.358  10.294 -1.3146 -1.8973 -2.0772
   19SAPC   O21 2438   2.263   6.359  10.167 -0.4186 -0.0670  0.4512
   19SAPC   C21 2439   2.325   6.447  10.091 -0.1367  0.0713 -0.0007
   19SAPC   O22 2440   2.437   6.493  10.114  0.8263 -0.8860 -0.3435
   19SAPC   C22 2441   2.249   6.470   9.965 -0.3022  0.0454 -0.0687
   19SAPC   H2R 2442   2.221   6.374   9.918  0.5519 -0.4622  0.4356
   19SAPC   H2S 2443   2.158   6.528   9.990 -0.6347  0.7230 -2.5829
   19SAPC    C3 2444   2.292   6.213  10.348  0.4426  0.5115 -0.7673
   19SAPC    HX 2445   2.182   6.204  10.363  0.2954  1.2105 -1.4071
   19SAPC    HY 2446   2.344   6.198  10.445  1.1727  0.4113 -1.1705
   19SAPC   O31 2447   2.341   6.118  10.249 -0.5044 -0.0010 -0.0958
   19SAPC   C31 2448   2.266   6.012  10.214 -0.2503 -0.2614  0.4178
   19SAPC   O32 2449   2.154   5.993  10.261  0.0372  0.3497  0.1552
   19SAPC   C32 2450   2.331   5.941  10.099 -0.5090  0.0186 -0.8371
   19SAPC   H2X 2451   2.375   5.845  10.136  0.0515  0.4859 -0.2767
   19SAPC   H2Y 2452   2.414   6.001  10.056 -0.7835  0.1221 -1.2316
   19SAPC   C23 2453   2.331   6.556   9.862 -0.1587 -0.2252  0.6112
   19SAPC   H3R 2454   2.413   6.495   9.820 -0.7460 -0.4422 -0.2452
   19SAPC   H3S 2455   2.378   6.646   9.907  0.6096 -0.6981  0.7768
   19SAPC   C24 2456   2.247   6.613   9.743 -1.1947 -0.1202 -0.0316
   19SAPC   H4R 2457   2.314   6.694   9.706 -0.7628  0.5672  2.1071
   19SAPC   H4S 2458   2.155   6.664   9.780 -0.0164 -0.0367  3.0991
   19SAPC   C25 2459   2.227   6.503   9.641  1.0141 -0.6856  0.7941
   19SAPC   H5R 2460   2.138   6.443   9.663  0.8945 -1.8212 -2.3023
   19SAPC   C26 2461   2.304   6.470   9.539 -0.2680  0.5295  0.4556
   19SAPC   H6R 2462   2.282   6.384   9.474  4.8242 -2.4263  2.0614
   19SAPC   C27 2463   2.443   6.523   9.512  0.3735  0.4330 -0.6743
   19SAPC   H7R 2464   2.463   6.599   9.590  1.6689 -2.2898  1.8087
   19SAPC   H7S 2465   2.436   6.572   9.412  0.6432 -0.4767 -1.1552
   19SAPC   C28 2466   2.560   6.427   9.505  0.3294  0.1155  0.3436
   19SAPC   H8R 2467   2.613   6.417   9.601  1.9457  1.9205 -0.2886
   19SAPC   C29 2468   2.605   6.358   9.393 -0.3313 -0.3342  0.1739
   19SAPC   H9R 2469   2.698   6.299   9.394 -0.6624 -0.8528  0.3159
   19SAPC  C210 2470   2.541   6.359   9.258  0.0583  0.4274  0.5646
   19SAPC  H10R 2471   2.441   6.406   9.259 -1.1655 -1.9969  2.2244
   19SAPC  H10S 2472   2.524   6.258   9.215 -0.0037  0.9241 -0.6145
   19SAPC  C211 2473   2.630   6.442   9.171 -0.0390  0.2023 -0.3541
   19SAPC  H11R 2474   2.599   6.548   9.168  2.1866  0.9238  0.4059
   19SAPC  C212 2475   2.734   6.408   9.095  0.6402  0.1887  0.5289
   19SAPC  H12R 2476   2.775   6.489   9.032 -1.1005 -0.1584 -1.1435
   19SAPC  C213 2477   2.784   6.265   9.067 -1.1507  0.0005  0.4835
   19SAPC  H13R 2478   2.705   6.204   9.018 -1.2188  0.5974 -0.1596
   19SAPC  H13S 2479   2.811   6.220   9.165 -0.9243 -0.4743  0.2053
   19SAPC  C214 2480   2.907   6.268   8.979  0.5355  0.5366  0.1659
   19SAPC  H14R 2481   3.009   6.263   9.019  2.3719 -1.6002 -4.0993
   19SAPC  C215 2482   2.916   6.254   8.846 -0.4698  0.2619 -0.4993
   19SAPC  H15R 2483   3.013   6.262   8.796  0.4645 -1.0178  1.0146
   19SAPC  C216 2484   2.802   6.238   8.752  0.1205 -0.2169 -0.8328
   19SAPC  H16R 2485   2.712   6.208   8.809  0.4354 -0.4276 -0.4452
   19SAPC  H16S 2486   2.823   6.155   8.681 -0.7951  0.6596 -2.1782
   19SAPC  C217 2487   2.765   6.370   8.682 -0.3911  0.2071  0.3044
   19SAPC  H17R 2488   2.839   6.405   8.608 -0.5638 -1.9005 -0.9582
   19SAPC  H17S 2489   2.754   6.448   8.760 -1.2383  1.9081 -1.4230
   19SAPC  C218 2490   2.636   6.350   8.606 -0.5834  0.0340 -0.0986
   19SAPC  H18R 2491   2.606   6.451   8.569  1.4896  0.9501  0.5745
   19SAPC  H18S 2492   2.554   6.299   8.661 -1.3570  2.2652  0.9552
   19SAPC  C219 2493   2.670   6.269   8.476  0.7664  0.1760  0.3259
   19SAPC  H19R 2494   2.684   6.161   8.500 -2.1106 -0.1339  0.9442
   19SAPC  H19S 2495   2.760   6.313   8.427 -0.0374  1.4711 -0.0242
   19SAPC  C220 2496   2.557   6.264   8.368 -0.4657  0.2585  0.0053
   19SAPC  H20R 2497   2.509   6.361   8.340  1.5044  1.0681 -0.7276
   19SAPC  H20S 2498   2.485   6.192   8.411  2.3621 -2.2256  0.9123
   19SAPC  H20T 2499   2.593   6.210   8.278 -2.0398 -0.3660 -0.2796
   19SAPC   C33 2500   2.234   5.919   9.978  0.0726 -0.3457  0.0345
   19SAPC   H3X 2501   2.149   5.854  10.005  0.5007 -0.9617 -0.0795
   19SAPC   H3Y 2502   2.287   5.863   9.898 -0.1339  0.9886 -1.0883
   19SAPC   C34 2503   2.179   6.052   9.920  0.1750  0.1753 -0.0469
   19SAPC   H4X 2504   2.260   6.128   9.914  1.3536 -0.9389  1.0295
   19SAPC   H4Y 2505   2.095   6.083   9.985  0.5189  0.2774  0.3477
   19SAPC   C35 2506   2.112   6.038   9.781 -0.4227 -0.1522  0.0277
   19SAPC   H5X 2507   2.057   6.133   9.765  0.5025  0.4139  0.1315
   19SAPC   H5Y 2508   2.040   5.953   9.782  0.2730 -0.7535  0.8060
   19SAPC   C36 2509   2.207   6.004   9.659 -0.8354 -0.1969  0.1779
   19SAPC   H6X 2510   2.244   5.899   9.663 -1.1238 -0.3103 -0.0482
   19SAPC   H6Y 2511   2.301   6.061   9.671 -0.3622 -1.3359  2.3356
   19SAPC   C37 2512   2.140   6.050   9.522  0.2273 -0.4832 -0.3801
   19SAPC   H7X 2513   2.118   6.156   9.546  0.7475 -0.4658  0.0366
   19SAPC   H7Y 2514   2.048   5.988   9.515 -2.0042  2.5610 -0.1609
   19SAPC   C38 2515   2.225   6.040   9.395 -0.1102 -0.4170 -0.5293
   19SAPC   H8X 2516   2.294   5.953   9.400  2.8387  1.7530 -0.1765
   19SAPC   H8Y 2517   2.301   6.122   9.392  0.0998 -0.5228  1.1716
   19SAPC   C39 2518   2.129   6.015   9.277  0.2406  0.2531  0.6026
   19SAPC   H9X 2519   2.045   5.944   9.291 -1.0261  1.2561 -1.3520
   19SAPC   H9Y 2520   2.193   5.982   9.193 -0.5786  2.4328 -0.9892
   19SAPC  C310 2521   2.074   6.148   9.235  0.4184 -0.5163  0.6794
   19SAPC  H10X 2522   2.159   6.207   9.194  0.0796 -0.0211  0.6826
   19SAPC  H10Y 2523   2.040   6.207   9.323 -0.0800 -0.9129  0.7583
   19SAPC  C311 2524   1.965   6.147   9.126  0.3457 -0.4041 -0.3841
   19SAPC  H11X 2525   1.886   6.079   9.164  1.2677  0.3132  3.1570
   19SAPC  H11Y 2526   2.014   6.102   9.037 -0.0798 -1.1932 -0.2212
   19SAPC  C312 2527   1.896   6.283   9.092 -0.7395  0.2118 -0.1663
   19SAPC  H12X 2528   1.972   6.363   9.082 -1.8263  1.1950 -0.9356
   19SAPC  H12Y 2529   1.843   6.310   9.185 -1.5449 -0.7163 -0.3456
   19SAPC  C313 2530   1.813   6.283   8.956 -0.5569  0.1056  0.0887
   19SAPC  H13X 2531   1.747   6.194   8.966 -1.5593  0.3374 -3.2567
   19SAPC  H13Y 2532   1.885   6.268   8.873 -1.0146  1.6679 -0.6238
   19SAPC  C314 2533   1.732   6.408   8.915  0.5872  0.3401 -0.3063
   19SAPC  H14X 2534   1.671   6.431   9.005  1.3074  0.1028  0.2511
   19SAPC  H14Y 2535   1.660   6.380   8.834  2.9960 -1.2853 -2.0207
   19SAPC  C315 2536   1.824   6.515   8.872 -0.9502  0.5076 -0.2026
   19SAPC  H15X 2537   1.873   6.485   8.777  1.4634  0.1358  1.0843
   19SAPC  H15Y 2538   1.911   6.511   8.942  0.9117  1.4010 -2.3351
   19SAPC  C316 2539   1.767   6.659   8.883 -0.1859  1.0548  0.6943
   19SAPC  H16X 2540   1.747   6.678   8.990  1.0834  2.7143  0.6717
   19SAPC  H16Y 2541   1.675   6.671   8.822 -0.3834  0.6898  0.9176
   19SAPC  C317 2542   1.878   6.763   8.846 -0.0395  0.0691 -0.5565
   19SAPC  H17X 2543   1.902   6.764   8.737  1.2785  0.5761 -0.2859
   19SAPC  H17Y 2544   1.963   6.730   8.910 -1.0505 -1.1763  0.2076
   19SAPC  C318 2545   1.834   6.897   8.898 -0.5041 -0.7079 -0.4332
   19SAPC  H18X 2546   1.915   6.972   8.887  0.1567 -1.2605  0.5815
   19SAPC  H18Y 2547   1.797   6.899   9.002 -0.2442  2.4970 -0.2951
   19SAPC  H18Z 2548   1.752   6.916   8.824  2.0301 -0.4493 -3.3947
   20SAPC     N 2549   0.141   5.648  11.022  0.4455 -0.3524 -0.5736
   20SAPC   C12 2550   0.137   5.645  10.868 -0.0373 -0.2794 -1.1884
   20SAPC  H12A 2551   0.083   5.557  10.836 -2.2004  0.6668 -0.3463
   20SAPC  H12B 2552   0.237   5.638  10.829 -0.0289  1.3682 -1.5461
   20SAPC   C13 2553   0.008   5.621  11.076 -0.2267  0.2941 -0.0603
   20SAPC  H13A 2554  -0.027   5.522  11.050 -0.2125  0.3771 -0.4050
   20SAPC  H13B 2555   0.001   5.634  11.183 -1.6770  2.9639 -0.3895
   20SAPC  H13C 2556  -0.062   5.680  11.018 -0.1382 -0.6625 -1.1888
   20SAPC   C14 2557   0.242   5.555  11.075 -0.0890 -0.7754  0.4018
   20SAPC  H14A 2558   0.243   5.555  11.183 -1.7224  1.1210  0.4739
   20SAPC  H14B 2559   0.236   5.454  11.037 -0.6898 -0.5838 -0.0382
   20SAPC  H14C 2560   0.341   5.590  11.052 -1.2101  1.5224 -1.4239
   20SAPC   C15 2561   0.179   5.781  11.071  0.3951 -1.0760 -0.2583
   20SAPC  H15A 2562   0.277   5.799  11.028  0.5693 -0.0332  0.5534
   20SAPC  H15B 2563   0.117   5.861  11.034 -0.5991 -1.2219  0.9938
   20SAPC  H15C 2564   0.177   5.795  11.178  0.9726  0.8854 -0.4651
   20SAPC   C11 2565   0.065   5.765  10.796 -0.0054 -0.4521  0.2738
   20SAPC  H11A 2566   0.066   5.740  10.687  0.5624 -0.1346  0.2015
   20SAPC  H11B 2567   0.125   5.858  10.808 -0.1156 -0.4522  0.8115
   20SAPC     P 2568  -0.138   5.914  10.870  0.3452 -0.4842 -0.1090
   20SAPC   O13 2569  -0.255   5.884  10.955  0.4122 -0.6737  0.2255
   20SAPC   O14 2570  -0.041   6.006  10.923 -0.7361 -0.2748 -0.1001
   20SAPC   O12 2571  -0.072   5.771  10.838  0.4531  0.2792  0.0717
   20SAPC   O11 2572  -0.188   5.974  10.736  0.1930 -0.0018 -0.7156
   20SAPC    C1 2573  -0.138   5.932  10.610  0.0473 -0.1244 -0.5143
   20SAPC    HA 2574  -0.028   5.939  10.618  0.1903 -2.8086  1.1182
   20SAPC    HB 2575  -0.166   5.826  10.592  0.6721 -1.0401  3.1377
   20SAPC    C2 2576  -0.193   6.016  10.498  0.6979 -1.0057  0.9941
   20SAPC    HS 2577  -0.138   6.112  10.493 -2.4680  0.8531 -1.0252
   20SAPC   O21 2578  -0.340   6.050  10.519 -0.1779 -0.1493 -0.3634
   20SAPC   C21 2579  -0.376   6.156  10.453 -0.5478  0.2286 -0.0438
   20SAPC   O22 2580  -0.309   6.217  10.374 -0.4950  0.3257 -0.3481
   20SAPC   C22 2581  -0.534   6.164  10.460  0.6584 -0.1064 -0.1567
   20SAPC   H2R 2582  -0.580   6.064  10.441 -0.6771  0.2648  0.9801
   20SAPC   H2S 2583  -0.554   6.201  10.563  0.3087  2.8958 -1.1938
   20SAPC    C3 2584  -0.171   5.949  10.364 -0.2028 -0.0962  0.2659
   20SAPC    HX 2585  -0.185   6.024  10.283  0.9814 -0.6766 -0.4881
   20SAPC    HY 2586  -0.247   5.869  10.352  1.0014 -0.8268 -3.3092
   20SAPC   O31 2587  -0.040   5.892  10.349 -0.1036 -0.1134  0.1030
   20SAPC   C31 2588  -0.021   5.850  10.225 -0.2489 -0.3948 -0.2140
   20SAPC   O32 2589  -0.086   5.870  10.126 -0.4310  0.2671 -0.0814
   20SAPC   C32 2590   0.113   5.784  10.224 -0.4773  0.3893  0.7019
   20SAPC   H2X 2591   0.101   5.674  10.229 -0.5775  0.2813 -1.2632
   20SAPC   H2Y 2592   0.171   5.814  10.314  0.7896 -2.6519  1.0301
   20SAPC   C23 2593  -0.587   6.269  10.357 -0.0626  0.8230 -0.4200
   20SAPC   H3R 2594  -0.522   6.359  10.363 -0.4667  1.3181 -2.6008
   20SAPC   H3S 2595  -0.686   6.303  10.394 -0.4809  1.0370 -1.6675
   20SAPC   C24 2596  -0.597   6.227  10.214  0.7132 -0.3503 -0.9254
   20SAPC   H4R 2597  -0.666   6.140  10.206  0.6443 -0.3074 -0.7877
   20SAPC   H4S 2598  -0.493   6.207  10.179  0.6015 -0.4653 -1.1946
   20SAPC   C25 2599  -0.650   6.333  10.123  0.2022 -0.2284 -0.2824
   20SAPC   H5R 2600  -0.617   6.435  10.146 -1.3612  0.3950 -0.6957
   20SAPC   C26 2601  -0.736   6.319  10.017  0.2481 -0.0255 -0.1055
   20SAPC   H6R 2602  -0.757   6.411   9.961  0.6590  1.0399  1.4064
   20SAPC   C27 2603  -0.805   6.191   9.971  0.3316 -0.2507 -0.2232
   20SAPC   H7R 2604  -0.849   6.139  10.058 -0.8686  1.1203  0.0121
   20SAPC   H7S 2605  -0.730   6.114   9.940 -0.9280 -0.0757 -4.3900
   20SAPC   C28 2606  -0.903   6.215   9.866 -0.0698  0.2794  0.0579
   20SAPC   H8R 2607  -1.003   6.234   9.909  0.5387 -0.0193  1.7099
   20SAPC   C29 2608  -0.878   6.244   9.740  0.4265  0.3989  0.1539
   20SAPC   H9R 2609  -0.967   6.264   9.679  1.4490  2.1895 -0.8321
   20SAPC  C210 2610  -0.747   6.246   9.672 -0.3637 -0.0826  0.6065
   20SAPC  H10R 2611  -0.660   6.261   9.739  0.4659 -0.8905 -0.2590
   20SAPC  H10S 2612  -0.754   6.343   9.618  2.0869 -0.2427 -0.1318
   20SAPC  C211 2613  -0.725   6.143   9.564 -0.2676 -0.1184 -1.6585
   20SAPC  H11R 2614  -0.688   6.046   9.602  0.0951  1.1534  1.4817
   20SAPC  C212 2615  -0.758   6.149   9.434 -0.1848 -0.9227 -0.4849
   20SAPC  H12R 2616  -0.739   6.063   9.369 -2.7721 -0.7676 -1.5841
   20SAPC  C213 2617  -0.833   6.264   9.366 -0.6831  0.7012  0.2100
   20SAPC  H13R 2618  -0.766   6.329   9.306 -2.1770  1.1558 -1.0399
   20SAPC  H13S 2619  -0.876   6.335   9.440  0.4976  0.6467  0.9770
   20SAPC  C214 2620  -0.942   6.213   9.271  0.2683 -0.0882  0.0378
   20SAPC  H14R 2621  -1.035   6.184   9.321  0.2315 -0.3101 -0.1568
   20SAPC  C215 2622  -0.929   6.185   9.138 -0.4234 -0.0409 -0.8552
   20SAPC  H15R 2623  -1.014   6.148   9.079  0.0971 -2.2469 -0.2997
   20SAPC  C216 2624  -0.803   6.190   9.055  0.0113  0.3378 -0.0012
   20SAPC  H16R 2625  -0.758   6.089   9.047  1.1551  0.8767 -0.6445
   20SAPC  H16S 2626  -0.716   6.234   9.108  0.4455 -1.1336  0.5539
   20SAPC  C217 2627  -0.807   6.238   8.915  0.1724 -0.4047 -0.3989
   20SAPC  H17R 2628  -0.892   6.188   8.864 -1.4297  2.5447 -0.8860
   20SAPC  H17S 2629  -0.710   6.218   8.865  1.1363  2.0350  0.3377
   20SAPC  C218 2630  -0.818   6.390   8.905 -0.1499 -0.0526 -0.0442
   20SAPC  H18R 2631  -0.726   6.442   8.939  1.5915 -2.6360 -0.5000
   20SAPC  H18S 2632  -0.899   6.411   8.979  0.0003  0.4160 -0.0068
   20SAPC  C219 2633  -0.868   6.443   8.767 -0.0972 -0.8568 -0.0215
   20SAPC  H19R 2634  -0.867   6.554   8.777  0.4241 -1.0137  2.3028
   20SAPC  H19S 2635  -0.977   6.422   8.755  0.2252 -1.5027 -2.1878
   20SAPC  C220 2636  -0.779   6.393   8.647 -0.1323  0.0021  0.0762
   20SAPC  H20R 2637  -0.689   6.454   8.630  0.9879 -1.2618  1.2401
   20SAPC  H20S 2638  -0.830   6.391   8.548 -0.0786  1.5066 -0.0019
   20SAPC  H20T 2639  -0.748   6.288   8.664 -1.1593 -0.2183  0.6979
   20SAPC   C33 2640   0.183   5.826  10.089 -0.5716 -0.6386  0.4570
   20SAPC   H3X 2641   0.155   5.930  10.061  0.6582  0.4212  2.8796
   20SAPC   H3Y 2642   0.147   5.752  10.015  0.5590 -1.2086  0.4626
   20SAPC   C34 2643   0.339   5.834  10.097  0.7813  0.5185  0.1587
   20SAPC   H4X 2644   0.374   5.728  10.100 -1.7038 -0.3790 -0.4394
   20SAPC   H4Y 2645   0.375   5.873  10.195 -0.2015 -2.6813  1.9314
   20SAPC   C35 2646   0.403   5.908   9.979 -0.8781 -0.0429  0.0695
   20SAPC   H5X 2647   0.352   6.005   9.960 -0.8844  0.5610  2.7297
   20SAPC   H5Y 2648   0.391   5.841   9.891  0.6481 -0.5184  0.1955
   20SAPC   C36 2649   0.562   5.932   9.994  0.2111  0.5635 -0.0093
   20SAPC   H6X 2650   0.611   5.852  10.054  0.9415 -0.5540 -2.0083
   20SAPC   H6Y 2651   0.561   6.032  10.042 -1.9572  0.2218  0.7703
   20SAPC   C37 2652   0.641   5.953   9.867  0.0148 -0.8654  0.3499
   20SAPC   H7X 2653   0.643   5.863   9.802 -0.0567 -0.6514  0.0502
   20SAPC   H7Y 2654   0.744   5.977   9.901 -0.3974  0.3532  0.8036
   20SAPC   C38 2655   0.582   6.067   9.785  0.7129  0.4807  0.5541
   20SAPC   H8X 2656   0.558   6.149   9.856 -3.3655  0.9217 -1.0477
   20SAPC   H8Y 2657   0.488   6.026   9.743 -0.7633  2.0570  2.1321
   20SAPC   C39 2658   0.668   6.108   9.670 -0.0945 -0.3181 -0.8303
   20SAPC   H9X 2659   0.699   6.021   9.608  0.5973  0.0351 -0.9911
   20SAPC   H9Y 2660   0.762   6.155   9.706  0.0405 -0.4672 -0.9836
   20SAPC  C310 2661   0.588   6.210   9.584  0.5241  0.6354  0.3423
   20SAPC  H10X 2662   0.584   6.311   9.631 -0.7639  0.3300  0.9230
   20SAPC  H10Y 2663   0.485   6.169   9.579  0.0942  1.7788 -0.5372
   20SAPC  C311 2664   0.621   6.222   9.432 -0.1295 -1.0205 -0.1784
   20SAPC  H11X 2665   0.628   6.122   9.385 -0.0987 -0.1747 -2.1089
   20SAPC  H11Y 2666   0.719   6.276   9.430 -0.4324 -0.4355 -2.2012
   20SAPC  C312 2667   0.520   6.288   9.347  0.0701  0.1006 -0.6843
   20SAPC  H12X 2668   0.520   6.399   9.357  0.0409 -0.0375  0.9992
   20SAPC  H12Y 2669   0.418   6.251   9.368  0.2041 -1.9654 -3.1845
   20SAPC  C313 2670   0.544   6.264   9.197  0.0338 -0.6375 -0.5850
   20SAPC  H13X 2671   0.547   6.155   9.177  2.3427 -0.6238 -0.5608
   20SAPC  H13Y 2672   0.643   6.305   9.169  0.0915 -1.0407 -0.9883
   20SAPC  C314 2673   0.450   6.330   9.096  0.3911  0.2351  0.0649
   20SAPC  H14X 2674   0.425   6.435   9.125  0.3999  0.3027 -0.1696
   20SAPC  H14Y 2675   0.351   6.279   9.100  0.5696 -0.0494  0.9856
   20SAPC  C315 2676   0.501   6.323   8.954  0.0769 -0.7530  0.0632
   20SAPC  H15X 2677   0.506   6.215   8.931  0.6610 -0.3260 -2.0164
   20SAPC  H15Y 2678   0.604   6.365   8.950  0.0923 -0.7962 -0.0018
   20SAPC  C316 2679   0.407   6.370   8.840 -0.4225 -0.4064 -0.0477
   20SAPC  H16X 2680   0.395   6.481   8.849  1.4161 -0.0381 -1.6264
   20SAPC  H16Y 2681   0.304   6.332   8.823 -2.0548  3.1226  0.8991
   20SAPC  C317 2682   0.479   6.367   8.702  0.1419 -0.9300 -0.3797
   20SAPC  H17X 2683   0.467   6.263   8.667  0.6941 -1.0424 -0.2488
   20SAPC  H17Y 2684   0.587   6.374   8.728 -0.3914  3.7933  1.5065
   20SAPC  C318 2685   0.439   6.466   8.599 -0.5261 -0.1120  0.2071
   20SAPC  H18X 2686   0.421   6.565   8.646 -2.0044 -0.6255  0.7931
   20SAPC  H18Y 2687   0.346   6.434   8.548 -1.5076  3.0395 -0.2070
   20SAPC  H18Z 2688   0.517   6.480   8.521 -1.3674  0.8848 -0.4673
   21SAPC     N 2689   5.605   4.168  11.037  0.0553  0.0510 -0.3011
   21SAPC   C12 2690   5.616   4.036  10.959 -0.8655  0.9364  0.4166
   21SAPC  H12A 2691   5.547   3.966  11.004 -0.3382 -0.7929 -1.3459
   21SAPC  H12B 2692   5.711   3.987  10.968 -1.7277 -0.9377 -0.0495
   21SAPC   C13 2693   5.721   4.257  11.005  0.0220 -0.5932  0.1137
   21SAPC  H13A 2694   5.812   4.214  11.044 -0.2445  0.4525  1.9579
   21SAPC  H13B 2695   5.729   4.276  10.899  0.5243 -0.8586  0.0976
   21SAPC  H13C 2696   5.705   4.351  11.056 -1.3514 -0.7489  0.0011
   21SAPC   C14 2697   5.480   4.247  11.007  1.0663  0.1278 -0.1952
   21SAPC  H14A 2698   5.475   4.333  11.072  0.4000  0.4513 -0.6647
   21SAPC  H14B 2699   5.474   4.278  10.903 -1.2901 -1.7950 -0.7344
   21SAPC  H14C 2700   5.390   4.190  11.021  1.7843 -0.8975  0.3501
   21SAPC   C15 2701   5.596   4.138  11.185  1.1660  0.4938 -0.1766
   21SAPC  H15A 2702   5.619   4.224  11.246 -4.0664 -0.9070  4.5835
   21SAPC  H15B 2703   5.499   4.098  11.212  1.7662  0.3591  1.9642
   21SAPC  H15C 2704   5.663   4.056  11.204  1.2588 -0.0909 -2.6323
   21SAPC   C11 2705   5.578   4.044  10.805 -0.6116 -0.0651 -0.1432
   21SAPC  H11A 2706   5.481   4.097  10.796 -0.6773  0.0383  1.0038
   21SAPC  H11B 2707   5.565   3.937  10.779 -0.7523 -0.3544  1.0509
   21SAPC     P 2708   5.795   4.046  10.668  0.3881  0.2792 -0.0783
   21SAPC   O13 2709   5.877   4.131  10.575 -0.7895 -0.4347  0.1637
   21SAPC   O14 2710   5.873   3.978  10.776  0.3218 -0.3321 -0.5690
   21SAPC   O12 2711   5.672   4.122  10.735 -0.1140  0.4742  0.4781
   21SAPC   O11 2712   5.725   3.936  10.574 -0.3808 -0.8455 -0.1135
   21SAPC    C1 2713   5.648   3.987  10.466  0.5619  0.5625 -0.3263
   21SAPC    HA 2714   5.570   4.056  10.502 -1.1731 -1.1954 -0.5458
   21SAPC    HB 2715   5.713   4.046  10.398 -0.1258  1.7025 -0.0218
   21SAPC    C2 2716   5.576   3.876  10.382  0.2386  0.1190 -0.3663
   21SAPC    HS 2717   5.537   3.797  10.450  0.0676  0.6574  0.1792
   21SAPC   O21 2718   5.669   3.822  10.280 -0.2390 -0.4613  0.9285
   21SAPC   C21 2719   5.645   3.701  10.237 -0.4695 -0.7074 -0.1216
   21SAPC   O22 2720   5.552   3.635  10.273  0.7358 -0.0600 -0.1765
   21SAPC   C22 2721   5.740   3.670  10.128 -0.7412 -0.1498  0.2032
   21SAPC   H2R 2722   5.790   3.761  10.089  0.0075  0.3414  2.1761
   21SAPC   H2S 2723   5.812   3.599  10.175  1.3798  1.2071 -0.8623
   21SAPC    C3 2724   5.452   3.951  10.317 -0.3457  0.9001 -0.0200
   21SAPC    HX 2725   5.503   4.020  10.246 -3.0638  0.1368 -2.9530
   21SAPC    HY 2726   5.407   4.011  10.399  1.4421  3.1134 -0.5523
   21SAPC   O31 2727   5.359   3.862  10.263 -0.4721 -0.5139  0.4700
   21SAPC   C31 2728   5.363   3.841  10.132  0.5035 -0.0639 -0.2460
   21SAPC   O32 2729   5.457   3.873  10.059 -0.0119  0.1201 -0.6028
   21SAPC   C32 2730   5.247   3.763  10.086  1.1232  0.1833  0.3121
   21SAPC   H2X 2731   5.211   3.697  10.168 -2.5263  0.3534 -0.9703
   21SAPC   H2Y 2732   5.275   3.698  10.000  1.7705  1.9513 -0.8700
   21SAPC   C23 2733   5.673   3.609  10.004  0.4734  0.3626 -0.2081
   21SAPC   H3R 2734   5.628   3.688   9.940 -0.8040 -0.4582 -0.3806
   21SAPC   H3S 2735   5.592   3.536  10.027  0.6213 -0.0357 -0.8913
   21SAPC   C24 2736   5.771   3.534   9.913  0.4145 -0.0750  1.0627
   21SAPC   H4R 2737   5.720   3.453   9.857  2.1118 -0.8970  0.6585
   21SAPC   H4S 2738   5.838   3.473   9.977  2.0475  0.8006  0.2465
   21SAPC   C25 2739   5.843   3.638   9.826 -0.6747 -1.1625 -0.6831
   21SAPC   H5R 2740   5.850   3.736   9.875 -0.0228 -0.8078 -1.4600
   21SAPC   C26 2741   5.865   3.621   9.695  0.3766 -0.4263  0.3497
   21SAPC   H6R 2742   5.902   3.697   9.625  0.3545 -1.0190 -0.3171
   21SAPC   C27 2743   5.832   3.494   9.612  0.5268 -0.1308  0.6190
   21SAPC   H7R 2744   5.749   3.526   9.545  0.7395  0.0264  0.4288
   21SAPC   H7S 2745   5.789   3.411   9.672  0.8922 -0.9099 -0.1727
   21SAPC   C28 2746   5.951   3.451   9.530 -0.1461 -0.4543  0.7016
   21SAPC   H8R 2747   6.042   3.445   9.592 -0.0983 -0.4559  0.6317
   21SAPC   C29 2748   5.962   3.424   9.396 -0.8179 -0.3191 -0.6381
   21SAPC   H9R 2749   6.064   3.399   9.364 -0.8877 -0.9701 -0.3690
   21SAPC  C210 2750   5.851   3.434   9.300 -0.4072  0.7462  0.0390
   21SAPC  H10R 2751   5.869   3.526   9.241  1.5593 -0.5659 -1.5353
   21SAPC  H10S 2752   5.754   3.450   9.353 -0.5216 -0.5896  0.2677
   21SAPC  C211 2753   5.840   3.303   9.215 -0.6888 -0.1229 -0.0560
   21SAPC  H11R 2754   5.881   3.207   9.250 -0.0237  0.4752  0.8650
   21SAPC  C212 2755   5.773   3.294   9.097  0.7060 -0.7718  0.0011
   21SAPC  H12R 2756   5.767   3.200   9.039 -1.0650  0.5858 -2.1793
   21SAPC  C213 2757   5.691   3.404   9.036  0.1899  0.9089 -0.0982
   21SAPC  H13R 2758   5.685   3.374   8.929 -1.0564 -2.4323  0.8023
   21SAPC  H13S 2759   5.742   3.503   9.030 -0.5166  1.2431 -0.8060
   21SAPC  C214 2760   5.552   3.398   9.093  0.7596 -0.2679 -1.0332
   21SAPC  H14R 2761   5.529   3.312   9.157 -1.6111 -0.6564 -2.2724
   21SAPC  C215 2762   5.445   3.470   9.051 -0.0397 -0.4893 -0.2828
   21SAPC  H15R 2763   5.349   3.470   9.105 -0.7861  0.2220 -1.5655
   21SAPC  C216 2764   5.437   3.582   8.942  0.1902 -0.2851  0.4494
   21SAPC  H16R 2765   5.532   3.591   8.885 -1.2000 -0.6726 -2.0797
   21SAPC  H16S 2766   5.416   3.675   8.999  1.3393  1.6834 -2.1227
   21SAPC  C217 2767   5.330   3.557   8.832 -0.2018 -0.3434  0.4080
   21SAPC  H17R 2768   5.317   3.652   8.775  0.1891  0.1858  1.1731
   21SAPC  H17S 2769   5.224   3.549   8.864  0.2956 -1.5571  1.8579
   21SAPC  C218 2770   5.353   3.449   8.724  0.1649  0.6535  0.1227
   21SAPC  H18R 2771   5.288   3.480   8.639  0.0156  1.2222  0.4368
   21SAPC  H18S 2772   5.308   3.354   8.760  0.6244 -0.7593 -2.7275
   21SAPC  C219 2773   5.496   3.422   8.673 -0.8782  0.1429  0.8207
   21SAPC  H19R 2774   5.562   3.371   8.747 -1.1878 -1.5095  0.0054
   21SAPC  H19S 2775   5.536   3.522   8.649 -0.5769 -0.2449 -0.3433
   21SAPC  C220 2776   5.493   3.337   8.548  0.0530 -0.2589  0.2769
   21SAPC  H20R 2777   5.594   3.314   8.506 -0.5098 -3.1982  0.3166
   21SAPC  H20S 2778   5.432   3.380   8.466  0.8721  1.7132  0.6589
   21SAPC  H20T 2779   5.456   3.235   8.572 -0.4131 -0.6728 -1.9339
   21SAPC   C33 2780   5.130   3.858  10.049  0.3412 -0.2653  0.4433
   21SAPC   H3X 2781   5.121   3.929  10.135  0.3867 -2.8280  2.6967
   21SAPC   H3Y 2782   5.039   3.795  10.049 -1.1050  1.6860 -0.4614
   21SAPC   C34 2783   5.135   3.929   9.912 -0.6998 -0.4939 -0.1546
   21SAPC   H4X 2784   5.241   3.950   9.887  0.3582 -0.5902  3.6011
   21SAPC   H4Y 2785   5.089   4.027   9.937  0.7472  0.2386 -0.3014
   21SAPC   C35 2786   5.070   3.846   9.796  0.3712 -0.4555  0.3509
   21SAPC   H5X 2787   4.981   3.786   9.826 -0.5228  0.6678  0.0258
   21SAPC   H5Y 2788   5.155   3.776   9.780  0.2212 -0.9098  1.4409
   21SAPC   C36 2789   5.045   3.932   9.676 -0.2143  0.5393 -0.6474
   21SAPC   H6X 2790   5.127   4.005   9.661  0.2422  0.0161 -0.7278
   21SAPC   H6Y 2791   4.963   4.007   9.688  1.6917  3.0361 -2.2285
   21SAPC   C37 2792   5.021   3.835   9.556  0.0605 -0.9434  0.3899
   21SAPC   H7X 2793   4.942   3.763   9.588  0.3517 -0.5824  2.0273
   21SAPC   H7Y 2794   5.107   3.766   9.537  0.1979 -0.5437 -0.4742
   21SAPC   C38 2795   4.978   3.913   9.437 -0.7637  0.0316 -0.3236
   21SAPC   H8X 2796   5.054   3.994   9.428  0.6539 -1.1638  0.4990
   21SAPC   H8Y 2797   4.876   3.959   9.440  0.7946  3.7699  0.7881
   21SAPC   C39 2798   4.989   3.827   9.315  0.6570  0.7398  0.2551
   21SAPC   H9X 2799   4.925   3.738   9.328  0.5904  0.7964  0.3126
   21SAPC   H9Y 2800   5.090   3.784   9.294 -0.5248 -1.8639 -0.5404
   21SAPC  C310 2801   4.928   3.889   9.181  0.0346  0.8389 -0.2495
   21SAPC  H10X 2802   4.952   3.824   9.095 -0.4940  0.2044  0.0752
   21SAPC  H10Y 2803   4.976   3.988   9.169  2.8754 -0.2265  1.2503
   21SAPC  C311 2804   4.778   3.910   9.183 -0.5172  0.1667 -0.2099
   21SAPC  H11X 2805   4.739   3.977   9.262 -3.0672 -0.8014 -0.5303
   21SAPC  H11Y 2806   4.728   3.814   9.207  0.5740 -0.8007 -1.6175
   21SAPC  C312 2807   4.731   3.973   9.051 -0.3982 -0.2742  0.2627
   21SAPC  H12X 2808   4.797   4.051   9.009 -0.2802 -0.7972 -0.5588
   21SAPC  H12Y 2809   4.639   4.035   9.058  0.5262  0.9569  2.5823
   21SAPC  C313 2810   4.710   3.869   8.936 -0.1603  0.3312 -0.5823
   21SAPC  H13X 2811   4.656   3.779   8.973  0.6215 -0.8230 -2.1081
   21SAPC  H13Y 2812   4.811   3.835   8.902  0.7080 -0.4386  2.4379
   21SAPC  C314 2813   4.626   3.928   8.823  0.5709  0.3800  1.0494
   21SAPC  H14X 2814   4.677   4.012   8.771 -0.2576  0.6322  0.6399
   21SAPC  H14Y 2815   4.533   3.974   8.862  1.3942  2.0860  1.1097
   21SAPC  C315 2816   4.582   3.827   8.715 -0.9232 -0.2404 -0.8411
   21SAPC  H15X 2817   4.546   3.892   8.632  0.8716  1.1564 -0.5963
   21SAPC  H15Y 2818   4.501   3.764   8.758 -2.1718  1.4096 -0.6351
   21SAPC  C316 2819   4.696   3.753   8.650 -0.0581  0.4562 -0.6517
   21SAPC  H16X 2820   4.652   3.660   8.607  0.4229  0.0104 -0.1959
   21SAPC  H16Y 2821   4.768   3.722   8.728 -1.4517 -1.8771 -0.1634
   21SAPC  C317 2822   4.770   3.831   8.544 -0.3593  0.1481  0.5174
   21SAPC  H17X 2823   4.862   3.771   8.526  0.0018  1.4757 -2.6899
   21SAPC  H17Y 2824   4.798   3.931   8.584  2.8849 -1.0746  1.6937
   21SAPC  C318 2825   4.697   3.842   8.408  0.0759  0.4282  1.2697
   21SAPC  H18X 2826   4.740   3.912   8.334 -0.8128 -0.7212 -0.3860
   21SAPC  H18Y 2827   4.589   3.858   8.426 -0.1707 -0.7117  0.8863
   21SAPC  H18Z 2828   4.711   3.741   8.365 -1.3987  0.8674 -0.3238
   22SAPC     N 2829   5.550   3.438  10.709 -0.5295  0.1425  0.9267
   22SAPC   C12 2830   5.495   3.341  10.605 -0.7015  1.1553  0.3743
   22SAPC  H12A 2831   5.525   3.241  10.630 -1.2755  0.9485  0.2329
   22SAPC  H12B 2832   5.550   3.356  10.513  0.3784 -1.7760  0.4478
   22SAPC   C13 2833   5.700   3.424  10.719 -0.5957 -0.1593 -0.2754
   22SAPC  H13A 2834   5.727   3.331  10.767 -1.7553  0.6135  2.0260
   22SAPC  H13B 2835   5.745   3.418  10.621 -0.3910  0.3525 -0.2164
   22SAPC  H13C 2836   5.733   3.512  10.772  0.0680 -0.3442 -0.3736
   22SAPC   C14 2837   5.525   3.584  10.664  0.1824 -0.3011  0.0659
   22SAPC  H14A 2838   5.560   3.656  10.736 -1.3763  0.9310 -0.3588
   22SAPC  H14B 2839   5.578   3.607  10.573  0.3462 -2.3520 -0.3991
   22SAPC  H14C 2840   5.421   3.610  10.653  0.4399  0.6556 -0.2202
   22SAPC   C15 2841   5.494   3.404  10.842  0.1116  0.3648  0.3263
   22SAPC  H15A 2842   5.519   3.303  10.869 -0.1739  0.3699  0.6100
   22SAPC  H15B 2843   5.533   3.462  10.924  1.3051 -1.7430  1.3298
   22SAPC  H15C 2844   5.386   3.401  10.843  0.0874 -3.3523 -0.4375
   22SAPC   C11 2845   5.343   3.344  10.572  0.3619  0.2236 -0.2861
   22SAPC  H11A 2846   5.345   3.256  10.505  1.5236 -0.2961  0.3834
   22SAPC  H11B 2847   5.326   3.435  10.511 -1.7066  0.4415  0.5510
   22SAPC     P 2848   5.222   3.188  10.742  0.0341  0.0091  0.1056
   22SAPC   O13 2849   5.351   3.125  10.772  0.1243  0.2560  0.3842
   22SAPC   O14 2850   5.122   3.195  10.854  0.0031 -0.0932  0.3344
   22SAPC   O12 2851   5.248   3.338  10.685 -0.2102 -0.0549  0.4804
   22SAPC   O11 2852   5.153   3.109  10.623 -0.2893 -0.5461  0.0143
   22SAPC    C1 2853   5.025   3.161  10.571  0.0581  0.1158  0.1950
   22SAPC    HA 2854   4.959   3.074  10.595  1.4703 -1.0754 -0.0704
   22SAPC    HB 2855   4.978   3.248  10.621 -0.3747 -0.2530  0.4435
   22SAPC    C2 2856   5.019   3.189  10.412  0.1678 -0.5013  0.1689
   22SAPC    HS 2857   4.930   3.150  10.359  0.4840 -2.8840  1.2555
   22SAPC   O21 2858   5.140   3.135  10.347  0.2065  0.6147  0.6013
   22SAPC   C21 2859   5.143   3.002  10.353  0.3781 -1.0533  0.6210
   22SAPC   O22 2860   5.054   2.930  10.385  0.2418  0.7671  0.3507
   22SAPC   C22 2861   5.281   2.955  10.308  0.1534 -0.4035  0.3745
   22SAPC   H2R 2862   5.351   3.008  10.376 -0.4041 -0.7265  1.2186
   22SAPC   H2S 2863   5.291   2.845  10.319 -0.7334 -0.6993 -1.4258
   22SAPC    C3 2864   5.021   3.339  10.383  0.4769  0.1097 -0.3521
   22SAPC    HX 2865   5.104   3.389  10.439  2.6680 -0.3671 -2.9777
   22SAPC    HY 2866   4.929   3.390  10.419  2.2261  2.8742  0.5684
   22SAPC   O31 2867   5.027   3.366  10.241  0.0629 -0.4589  0.1013
   22SAPC   C31 2868   5.147   3.393  10.191 -0.6897 -0.3131  0.3798
   22SAPC   O32 2869   5.246   3.429  10.261  0.6500  0.2275  0.3872
   22SAPC   C32 2870   5.148   3.365  10.039 -0.4282 -0.5717 -0.8326
   22SAPC   H2X 2871   5.087   3.448   9.998 -1.0848 -0.0125  1.1454
   22SAPC   H2Y 2872   5.098   3.270  10.011 -1.5254 -0.2501 -0.0371
   22SAPC   C23 2873   5.316   2.990  10.160 -0.3113  0.1971  0.2305
   22SAPC   H3R 2874   5.309   3.098  10.139 -0.3793 -0.1215 -1.5082
   22SAPC   H3S 2875   5.230   2.942  10.108 -0.4287 -3.2661  3.1773
   22SAPC   C24 2876   5.448   2.925  10.117  0.1420 -0.8287 -0.2889
   22SAPC   H4R 2877   5.453   2.942  10.007 -3.2810  2.5032 -0.1336
   22SAPC   H4S 2878   5.427   2.818  10.135 -0.5715 -0.4003  1.6967
   22SAPC   C25 2879   5.554   2.991  10.196  0.4600  0.1935 -0.2212
   22SAPC   H5R 2880   5.559   2.957  10.300 -0.9451 -1.1498 -0.5695
   22SAPC   C26 2881   5.636   3.090  10.160  0.5236 -0.1076  0.2800
   22SAPC   H6R 2882   5.710   3.124  10.234  0.4908  0.3323  0.1143
   22SAPC   C27 2883   5.646   3.154  10.026  0.5047 -0.4798 -0.3497
   22SAPC   H7R 2884   5.594   3.252  10.037  2.1797  0.2448  2.0158
   22SAPC   H7S 2885   5.593   3.093   9.951  0.9281 -0.7186 -0.4601
   22SAPC   C28 2886   5.793   3.185   9.999 -0.3509  0.5717  0.2003
   22SAPC   H8R 2887   5.845   3.231  10.084 -2.4183 -0.8843  2.4062
   22SAPC   C29 2888   5.862   3.172   9.884 -0.0727  0.3440 -0.2932
   22SAPC   H9R 2889   5.971   3.184   9.897  0.0632 -0.4837 -0.6066
   22SAPC  C210 2890   5.796   3.122   9.758 -0.5947  0.1450  0.5733
   22SAPC  H10R 2891   5.838   3.185   9.676 -0.1265 -0.3346  0.4420
   22SAPC  H10S 2892   5.688   3.148   9.758 -0.5780  0.2945 -0.6093
   22SAPC  C211 2893   5.823   2.972   9.739 -0.1148  0.6975 -0.0157
   22SAPC  H11R 2894   5.830   2.919   9.835  3.2784  0.2430 -0.3867
   22SAPC  C212 2895   5.856   2.901   9.625  0.4478 -0.5275 -0.7852
   22SAPC  H12R 2896   5.860   2.792   9.631 -1.7174 -0.6547 -0.8888
   22SAPC  C213 2897   5.861   2.954   9.491 -0.1606  0.6723  0.6486
   22SAPC  H13R 2898   5.809   3.050   9.474 -3.2455 -0.8379  0.7219
   22SAPC  H13S 2899   5.805   2.878   9.432  1.8583 -0.9916  0.7643
   22SAPC  C214 2900   5.998   2.973   9.432 -0.6468  0.0343  0.4173
   22SAPC  H14R 2901   6.066   3.035   9.492  2.0067 -2.0520 -0.1966
   22SAPC  C215 2902   6.033   2.934   9.309  0.5288 -0.1385  0.2551
   22SAPC  H15R 2903   6.138   2.951   9.281  0.0298 -0.2253 -1.8171
   22SAPC  C216 2904   5.933   2.878   9.212  0.1778  0.3547  0.5854
   22SAPC  H16R 2905   5.857   2.957   9.199  1.2424  1.6418  1.8864
   22SAPC  H16S 2906   5.883   2.790   9.258 -0.7408  0.9155  0.6772
   22SAPC  C217 2907   5.989   2.853   9.070  0.7762 -0.3470 -0.3567
   22SAPC  H17R 2908   5.913   2.824   8.995  0.3331  0.7813 -0.3621
   22SAPC  H17S 2909   6.060   2.768   9.072  1.2872  0.0396 -1.3687
   22SAPC  C218 2910   6.074   2.980   9.017 -0.1698  0.0258 -0.0919
   22SAPC  H18R 2911   6.168   2.982   9.075  0.9316  1.4695 -1.8170
   22SAPC  H18S 2912   6.026   3.080   9.020  0.6559  0.4218  0.2514
   22SAPC  C219 2913   6.131   2.958   8.881 -0.2401  0.2609  0.0284
   22SAPC  H19R 2914   6.175   2.856   8.879  0.2515  0.3232  3.2119
   22SAPC  H19S 2915   6.221   3.021   8.871  0.3849 -0.7697 -1.1213
   22SAPC  C220 2916   6.030   2.965   8.768  0.0474  0.2318  0.5703
   22SAPC  H20R 2917   5.955   2.885   8.786 -2.0373  2.2231  1.1140
   22SAPC  H20S 2918   6.089   2.942   8.677  0.5694 -0.3418  1.0447
   22SAPC  H20T 2919   5.977   3.062   8.763 -2.9331 -1.2227  1.6379
   22SAPC   C33 2920   5.296   3.387   9.983  0.6371  0.3044  0.4036
   22SAPC   H3X 2921   5.368   3.305  10.005 -0.1020 -0.2876  0.6543
   22SAPC   H3Y 2922   5.339   3.477  10.032  3.7440 -0.2521 -1.0476
   22SAPC   C34 2923   5.288   3.412   9.832 -0.1321 -0.5154  0.4508
   22SAPC   H4X 2924   5.220   3.497   9.807 -0.1083 -1.3615 -2.8438
   22SAPC   H4Y 2925   5.240   3.319   9.795  1.7342 -1.2865 -0.1413
   22SAPC   C35 2926   5.424   3.426   9.759  0.2630 -0.5015 -0.5713
   22SAPC   H5X 2927   5.473   3.326   9.770  1.4358 -0.0671 -1.5707
   22SAPC   H5Y 2928   5.486   3.502   9.810 -0.6035  0.1442 -0.4778
   22SAPC   C36 2929   5.411   3.461   9.607  0.3952 -0.1568  0.1334
   22SAPC   H6X 2930   5.348   3.380   9.566  0.9796 -0.5718  0.0348
   22SAPC   H6Y 2931   5.512   3.454   9.561  0.2877  1.5704 -0.4454
   22SAPC   C37 2932   5.357   3.602   9.581  0.2912 -0.5519  0.1121
   22SAPC   H7X 2933   5.273   3.620   9.651  0.5441 -1.4550  0.6562
   22SAPC   H7Y 2934   5.308   3.600   9.481 -0.5554  0.1998  0.5069
   22SAPC   C38 2935   5.464   3.714   9.589  0.5598 -0.1509  0.4381
   22SAPC   H8X 2936   5.544   3.692   9.663  1.8721  1.8926 -0.2744
   22SAPC   H8Y 2937   5.403   3.798   9.627 -0.2102 -0.4145 -0.1938
   22SAPC   C39 2938   5.531   3.759   9.452  0.0662  0.5387  0.7210
   22SAPC   H9X 2939   5.587   3.669   9.418  0.2822  0.3046  1.6563
   22SAPC   H9Y 2940   5.617   3.824   9.481 -0.2084  0.8882  0.7586
   22SAPC  C310 2941   5.430   3.811   9.342 -0.5378  0.4219 -0.4959
   22SAPC  H10X 2942   5.381   3.902   9.382 -2.2187 -0.1332 -1.2326
   22SAPC  H10Y 2943   5.351   3.737   9.320 -2.5319  2.0237  0.9824
   22SAPC  C311 2944   5.496   3.847   9.211  0.3805 -0.3612 -0.0921
   22SAPC  H11X 2945   5.540   3.753   9.170  0.1155 -0.4522 -0.1672
   22SAPC  H11Y 2946   5.583   3.914   9.232  2.3665 -3.0102  0.8006
   22SAPC  C312 2947   5.404   3.928   9.116  0.7397 -0.7487  0.0577
   22SAPC  H12X 2948   5.325   3.863   9.072 -1.3426  1.3592  0.5223
   22SAPC  H12Y 2949   5.460   3.963   9.027 -1.0514 -0.2739 -0.9413
   22SAPC  C313 2950   5.340   4.055   9.172 -0.6806 -0.7233 -0.1485
   22SAPC  H13X 2951   5.416   4.115   9.227 -1.0779 -0.9671  0.6765
   22SAPC  H13Y 2952   5.272   4.013   9.249 -0.6602  0.8395  0.7782
   22SAPC  C314 2953   5.253   4.131   9.071 -0.1833 -0.4019 -0.3989
   22SAPC  H14X 2954   5.182   4.067   9.016  2.2805 -2.8556 -0.9600
   22SAPC  H14Y 2955   5.321   4.174   8.994  0.6607 -3.1487 -1.3261
   22SAPC  C315 2956   5.174   4.245   9.128 -0.1745  0.2457  0.1290
   22SAPC  H15X 2957   5.241   4.330   9.152  0.2574  0.0922 -0.5426
   22SAPC  H15Y 2958   5.125   4.211   9.222  2.1979 -1.8557  0.6883
   22SAPC  C316 2959   5.061   4.301   9.039 -0.1563 -0.3317  1.1507
   22SAPC  H16X 2960   4.992   4.218   9.011 -0.5489  0.1039  0.8020
   22SAPC  H16Y 2961   5.106   4.351   8.951  0.0085  3.4667  3.1896
   22SAPC  C317 2962   4.982   4.407   9.105 -0.7323 -0.4693 -0.5166
   22SAPC  H17X 2963   5.049   4.490   9.138  0.6772 -1.9474  0.5388
   22SAPC  H17Y 2964   4.925   4.361   9.188 -1.9453 -1.9696 -2.1381
   22SAPC  C318 2965   4.875   4.462   9.009  0.1782  0.4526 -0.1916
   22SAPC  H18X 2966   4.820   4.547   9.055 -1.3412 -1.2201  1.2211
   22SAPC  H18Y 2967   4.797   4.393   8.971 -0.2957 -0.7120  2.6104
   22SAPC  H18Z 2968   4.916   4.487   8.909 -1.9875 -1.1332 -1.5584
   23SAPC     N 2969   0.859   1.278  10.504  0.4380  0.5772  0.7827
   23SAPC   C12 2970   0.788   1.148  10.545 -0.3580 -0.4068 -0.3412
   23SAPC  H12A 2971   0.752   1.162  10.646  0.0868  0.3345 -0.2778
   23SAPC  H12B 2972   0.855   1.065  10.558  0.6549  0.0086 -2.5094
   23SAPC   C13 2973   0.955   1.314  10.606  0.5194 -0.1308  0.5549
   23SAPC  H13A 2974   1.007   1.402  10.572 -0.4117  0.5127  0.7461
   23SAPC  H13B 2975   0.909   1.328  10.702 -0.6253  1.3431 -0.1494
   23SAPC  H13C 2976   1.028   1.237  10.624  1.7115  0.4760 -1.3626
   23SAPC   C14 2977   0.930   1.266  10.369 -0.1845 -0.1400  0.0186
   23SAPC  H14A 2978   1.030   1.226  10.372  0.1929  0.6897 -0.9717
   23SAPC  H14B 2979   0.874   1.205  10.299 -2.1345  0.3633  1.0647
   23SAPC  H14C 2980   0.929   1.365  10.325 -1.1045  0.0481  0.4390
   23SAPC   C15 2981   0.757   1.388  10.487 -0.0405 -0.6678  0.1153
   23SAPC  H15A 2982   0.815   1.472  10.453  1.4452 -1.5196  0.4412
   23SAPC  H15B 2983   0.679   1.364  10.416 -1.2186 -2.2599  1.8334
   23SAPC  H15C 2984   0.690   1.394  10.572 -0.0114 -3.0710  0.3768
   23SAPC   C11 2985   0.672   1.107  10.445  0.1870  0.2219  0.1740
   23SAPC  H11A 2986   0.654   0.998  10.456 -2.9293  0.7175  0.9007
   23SAPC  H11B 2987   0.691   1.136  10.340 -3.5512 -2.3108 -1.4200
   23SAPC     P 2988   0.444   1.123  10.568 -0.1047  0.3997  0.0551
   23SAPC   O13 2989   0.404   0.980  10.536  0.1825 -0.1235  0.0005
   23SAPC   O14 2990   0.488   1.153  10.706  0.4380 -0.0353  0.0628
   23SAPC   O12 2991   0.552   1.171  10.472  0.5632 -0.1180 -0.1566
   23SAPC   O11 2992   0.320   1.220  10.542 -0.0180  0.0410  0.1974
   23SAPC    C1 2993   0.220   1.192  10.439  0.0060  0.2335 -0.1659
   23SAPC    HA 2994   0.224   1.085  10.411  1.9840 -0.6268  2.8711
   23SAPC    HB 2995   0.121   1.195  10.490  0.8471 -1.4628  1.7126
   23SAPC    C2 2996   0.218   1.295  10.325 -0.6706  0.5554 -0.1290
   23SAPC    HS 2997   0.164   1.250  10.239 -1.7059  1.5943 -0.0444
   23SAPC   O21 2998   0.350   1.322  10.279  0.2749  0.7656 -0.1668
   23SAPC   C21 2999   0.407   1.228  10.197 -0.6326  0.7782 -0.1164
   23SAPC   O22 3000   0.363   1.115  10.174  0.6643 -0.6408  0.3413
   23SAPC   C22 3001   0.541   1.278  10.142 -0.7019  0.0619 -0.6507
   23SAPC   H2R 3002   0.530   1.367  10.076  5.0496  1.3550 -0.4072
   23SAPC   H2S 3003   0.600   1.309  10.231 -1.3122 -0.6212  0.0050
   23SAPC    C3 3004   0.154   1.430  10.361 -0.5237  0.5793  0.0024
   23SAPC    HX 3005   0.233   1.483  10.419  0.2796 -0.4801 -0.0819
   23SAPC    HY 3006   0.060   1.426  10.420 -0.8765 -0.0735 -0.5862
   23SAPC   O31 3007   0.123   1.496  10.231  0.0451 -0.1193  0.0128
   23SAPC   C31 3008   0.209   1.592  10.199  0.3018  0.2278  0.0393
   23SAPC   O32 3009   0.327   1.608  10.245  0.2308  0.1197  0.5266
   23SAPC   C32 3010   0.148   1.676  10.079  0.4478  0.1792  0.2967
   23SAPC   H2X 3011   0.190   1.777  10.096  1.4948 -0.3500  0.9610
   23SAPC   H2Y 3012   0.039   1.696  10.090  0.7169  2.4274 -0.6367
   23SAPC   C23 3013   0.625   1.184  10.065 -0.6118  0.0369 -0.1510
   23SAPC   H3R 3014   0.622   1.082  10.110  0.1341  1.1747  2.6822
   23SAPC   H3S 3015   0.727   1.218  10.092 -0.7624 -0.7679  1.5775
   23SAPC   C24 3016   0.610   1.182   9.918 -0.4295 -0.3916 -0.0970
   23SAPC   H4R 3017   0.681   1.121   9.858  0.0880  2.4083 -2.5501
   23SAPC   H4S 3018   0.625   1.287   9.886  1.6569 -0.8873 -0.9298
   23SAPC   C25 3019   0.480   1.120   9.876 -0.2788 -0.7070 -0.3960
   23SAPC   H5R 3020   0.438   1.045   9.945 -0.9213  0.2260  0.2412
   23SAPC   C26 3021   0.420   1.154   9.762  0.4128  0.3515 -0.1880
   23SAPC   H6R 3022   0.323   1.108   9.736 -0.0445  0.4723  1.2050
   23SAPC   C27 3023   0.466   1.251   9.654 -0.2915  0.4277  1.0470
   23SAPC   H7R 3024   0.528   1.336   9.692 -0.0029 -0.0396  1.6344
   23SAPC   H7S 3025   0.379   1.312   9.622 -1.4218 -0.7507  1.7905
   23SAPC   C28 3026   0.543   1.198   9.537 -0.1710  0.3174 -0.3509
   23SAPC   H8R 3027   0.618   1.126   9.573  0.2204  1.3877  1.0702
   23SAPC   C29 3028   0.543   1.238   9.409  0.5320 -0.0111 -1.1221
   23SAPC   H9R 3029   0.598   1.174   9.338  0.7068 -1.3054  0.1261
   23SAPC  C210 3030   0.455   1.341   9.340 -0.4453 -0.0458  0.3171
   23SAPC  H10R 3031   0.518   1.388   9.261  2.9155 -1.6830  1.7867
   23SAPC  H10S 3032   0.423   1.414   9.418 -0.6411 -0.4590  0.6251
   23SAPC  C211 3033   0.322   1.278   9.288  0.1192 -0.4902 -0.0100
   23SAPC  H11R 3034   0.273   1.202   9.351  2.0601 -0.1819  1.9823
   23SAPC  C212 3035   0.275   1.292   9.163 -0.3608  0.2213  0.2316
   23SAPC  H12R 3036   0.185   1.231   9.145 -0.9152  0.4565  2.0070
   23SAPC  C213 3037   0.323   1.368   9.045 -0.2876 -0.2593 -0.0209
   23SAPC  H13R 3038   0.427   1.405   9.050 -0.2300 -0.5094  3.4814
   23SAPC  H13S 3039   0.252   1.452   9.026 -0.4085 -0.2010  0.6518
   23SAPC  C214 3040   0.322   1.276   8.921 -0.5219 -0.5785 -0.2997
   23SAPC  H14R 3041   0.336   1.169   8.942  2.2263 -0.0542  1.0609
   23SAPC  C215 3042   0.300   1.314   8.795  0.3141 -0.4924  0.0587
   23SAPC  H15R 3043   0.297   1.235   8.719 -0.6192  0.4310 -0.8957
   23SAPC  C216 3044   0.277   1.457   8.743  0.8519 -0.0830  0.1025
   23SAPC  H16R 3045   0.206   1.511   8.809 -1.3226 -1.8302 -0.6679
   23SAPC  H16S 3046   0.224   1.458   8.645 -0.0393  1.5872  0.5666
   23SAPC  C217 3047   0.404   1.536   8.709 -0.5083 -0.0094  0.3894
   23SAPC  H17R 3048   0.475   1.529   8.795 -1.7765 -1.1818  1.3753
   23SAPC  H17S 3049   0.366   1.639   8.691  0.4905  0.5987  1.5582
   23SAPC  C218 3050   0.474   1.501   8.580  0.0920  0.6383 -0.1658
   23SAPC  H18R 3051   0.398   1.506   8.499 -1.8359 -1.3104  1.4208
   23SAPC  H18S 3052   0.501   1.394   8.588 -1.2478  0.2144 -0.8623
   23SAPC  C219 3053   0.593   1.581   8.541  0.2922  0.1246  0.1686
   23SAPC  H19R 3054   0.575   1.691   8.544  0.3621  0.2702 -2.6452
   23SAPC  H19S 3055   0.614   1.574   8.432 -0.6508  0.5791 -0.0522
   23SAPC  C220 3056   0.710   1.553   8.629 -0.2850  0.5505 -0.1698
   23SAPC  H20R 3057   0.742   1.447   8.630  1.1994  0.9802  0.8417
   23SAPC  H20S 3058   0.681   1.577   8.734 -0.8967 -4.9188  1.2276
   23SAPC  H20T 3059   0.790   1.624   8.599  0.3723 -0.6837 -1.4581
   23SAPC   C33 3060   0.182   1.617   9.943  0.2212  0.3586 -0.4856
   23SAPC   H3X 3061   0.128   1.523   9.924 -0.3576  0.2992  1.3333
   23SAPC   H3Y 3062   0.292   1.601   9.934  0.3477  0.8333  0.1293
   23SAPC   C34 3063   0.152   1.713   9.827 -0.2310 -0.2307 -0.9470
   23SAPC   H4X 3064   0.222   1.796   9.851 -1.6890  0.6350  0.3974
   23SAPC   H4Y 3065   0.049   1.753   9.835 -0.0716 -0.1963  1.6829
   23SAPC   C35 3066   0.176   1.657   9.687  0.0463 -0.1318 -0.3322
   23SAPC   H5X 3067   0.111   1.568   9.672 -0.5311 -0.3062  2.6041
   23SAPC   H5Y 3068   0.281   1.619   9.686 -0.0505 -0.6974  2.3763
   23SAPC   C36 3069   0.162   1.755   9.569  0.0173  0.3666  0.2667
   23SAPC   H6X 3070   0.227   1.845   9.570  0.1782  0.2548  2.0591
   23SAPC   H6Y 3071   0.059   1.797   9.566 -0.2031 -0.0236 -3.4649
   23SAPC   C37 3072   0.184   1.687   9.438  0.9409  0.4012 -0.4080
   23SAPC   H7X 3073   0.113   1.603   9.426  2.1470 -0.5058 -1.6027
   23SAPC   H7Y 3074   0.282   1.634   9.437  0.4646 -0.4920 -0.4310
   23SAPC   C38 3075   0.167   1.781   9.323 -0.2741 -0.2587  0.1620
   23SAPC   H8X 3076   0.244   1.860   9.329 -0.6947  1.0570 -5.7365
   23SAPC   H8Y 3077   0.073   1.838   9.338 -0.0204  0.3752 -0.6167
   23SAPC   C39 3078   0.183   1.721   9.182 -0.7693 -0.7689  0.6447
   23SAPC   H9X 3079   0.110   1.643   9.152  0.6432 -1.7842 -0.3274
   23SAPC   H9Y 3080   0.280   1.667   9.183  0.0692  0.6995  0.8868
   23SAPC  C310 3081   0.201   1.827   9.062 -0.8437  0.5745 -0.1680
   23SAPC  H10X 3082   0.265   1.773   8.989  1.3454  1.5111  0.9754
   23SAPC  H10Y 3083   0.272   1.906   9.095  1.0199 -0.7010 -0.9665
   23SAPC  C311 3084   0.074   1.876   9.004  0.3431 -0.0200  0.4123
   23SAPC  H11X 3085   0.036   1.950   9.078 -0.5865  1.7286 -1.7208
   23SAPC  H11Y 3086  -0.000   1.795   8.988 -0.4380  0.2214  2.4845
   23SAPC  C312 3087   0.081   1.963   8.877  0.1499 -0.1247 -0.2375
   23SAPC  H12X 3088   0.042   1.904   8.791 -1.3685  1.2186 -0.5337
   23SAPC  H12Y 3089   0.182   1.999   8.848 -0.8298  1.7100 -1.5994
   23SAPC  C313 3090  -0.001   2.095   8.891  0.0237 -0.4019 -0.3909
   23SAPC  H13X 3091  -0.099   2.077   8.940 -0.3900  1.3248 -0.5022
   23SAPC  H13Y 3092  -0.014   2.134   8.787  1.0828 -1.0346 -0.7768
   23SAPC  C314 3093   0.076   2.200   8.969  0.4199  0.3135 -0.2720
   23SAPC  H14X 3094   0.177   2.216   8.926  0.7920  1.4340  0.9513
   23SAPC  H14Y 3095   0.089   2.158   9.071  3.6732 -1.9180 -1.4211
   23SAPC  C315 3096   0.007   2.341   8.968 -0.8005  0.3149  0.0758
   23SAPC  H15X 3097   0.012   2.368   8.861 -2.4729  0.2993 -0.0194
   23SAPC  H15Y 3098   0.073   2.413   9.022 -0.6077 -1.0837  1.8095
   23SAPC  C316 3099  -0.134   2.359   9.026 -0.7445  0.0555  0.2285
   23SAPC  H16X 3100  -0.143   2.327   9.132  1.1670  0.5529  0.5868
   23SAPC  H16Y 3101  -0.197   2.289   8.967  1.6507 -1.8123 -0.2668
   23SAPC  C317 3102  -0.188   2.507   9.004 -0.2442 -0.3705 -0.0465
   23SAPC  H17X 3103  -0.112   2.574   9.051 -1.2261  2.0050 -1.6882
   23SAPC  H17Y 3104  -0.287   2.518   9.052 -0.1024  1.8727 -0.1543
   23SAPC  C318 3105  -0.198   2.540   8.856  0.1004  0.0308  0.8628
   23SAPC  H18X 3106  -0.234   2.642   8.828  0.4115 -0.1046 -0.0780
   23SAPC  H18Y 3107  -0.252   2.458   8.803 -0.1534  0.9545 -0.3809
   23SAPC  H18Z 3108  -0.099   2.549   8.805 -1.1969 -1.0621 -2.1272
   24SAPC     N 3109   3.204   2.749  10.974 -0.0431  0.3651 -0.8746
   24SAPC   C12 3110   3.202   2.801  10.831  0.3931  0.0603 -0.3734
   24SAPC  H12A 3111   3.135   2.886  10.831  2.0934  1.5048  1.4360
   24SAPC  H12B 3112   3.156   2.725  10.769  0.8332 -0.3463 -0.2136
   24SAPC   C13 3113   3.235   2.858  11.069 -0.6567 -0.9453 -0.1951
   24SAPC  H13A 3114   3.321   2.917  11.042  0.1494 -1.6081  0.8156
   24SAPC  H13B 3115   3.151   2.925  11.079  1.6478  2.0094  0.6477
   24SAPC  H13C 3116   3.265   2.824  11.167  0.8742  2.2419  0.5786
   24SAPC   C14 3117   3.074   2.681  11.012  0.1592  0.1335  0.5133
   24SAPC  H14A 3118   2.978   2.723  10.985  1.1778  0.1389 -3.7887
   24SAPC  H14B 3119   3.079   2.581  10.970  2.1889  0.5923 -0.4461
   24SAPC  H14C 3120   3.067   2.653  11.116 -0.3869  0.8225  0.6637
   24SAPC   C15 3121   3.319   2.651  10.986 -0.3814  0.1438 -0.5055
   24SAPC  H15A 3122   3.324   2.610  11.085 -2.1140 -0.4296 -0.6322
   24SAPC  H15B 3123   3.302   2.572  10.915 -1.1409  0.5213 -0.7482
   24SAPC  H15C 3124   3.408   2.711  10.970 -1.3998  2.5544  1.9977
   24SAPC   C11 3125   3.328   2.850  10.752  0.1605 -0.5684  0.5336
   24SAPC  H11A 3126   3.298   2.904  10.660 -1.7783  0.7708  1.8948
   24SAPC  H11B 3127   3.384   2.764  10.710  0.3562  0.3948 -1.2614
   24SAPC     P 3128   3.415   3.093  10.813  0.1320 -0.0481 -0.3965
   24SAPC   O13 3129   3.299   3.156  10.875 -0.1214 -0.1523  0.0817
   24SAPC   O14 3130   3.539   3.144  10.875 -0.0387 -0.7538 -0.5802
   24SAPC   O12 3131   3.399   2.936  10.833 -0.1184 -0.3350  0.4570
   24SAPC   O11 3132   3.417   3.113  10.654 -0.2786  0.2527 -0.2492
   24SAPC    C1 3133   3.537   3.099  10.576 -0.1703 -0.3069 -0.1041
   24SAPC    HA 3134   3.576   3.200  10.552  0.5903 -0.3627  0.8197
   24SAPC    HB 3135   3.618   3.042  10.626 -1.1698 -1.0059  0.7633
   24SAPC    C2 3136   3.493   3.020  10.446 -0.0272  0.0217  0.9198
   24SAPC    HS 3137   3.477   2.915  10.479  1.2639  0.5233  3.4526
   24SAPC   O21 3138   3.603   3.026  10.355 -0.3199 -0.2391 -0.7201
   24SAPC   C21 3139   3.706   2.956  10.385  0.2791  0.5004 -0.0280
   24SAPC   O22 3140   3.709   2.863  10.471  0.3375 -0.6416 -0.2213
   24SAPC   C22 3141   3.808   2.991  10.275 -0.2869  0.2451  0.2472
   24SAPC   H2R 3142   3.897   2.925  10.280 -1.1959 -1.0508 -0.2120
   24SAPC   H2S 3143   3.753   2.975  10.180  1.4291 -0.4409 -0.6827
   24SAPC    C3 3144   3.369   3.081  10.380  0.2624  0.2531  0.2597
   24SAPC    HX 3145   3.404   3.183  10.354  0.2752  0.5304  1.3025
   24SAPC    HY 3146   3.292   3.088  10.460  0.2436  0.1568  0.2509
   24SAPC   O31 3147   3.330   3.005  10.263  0.4172  0.0748 -0.5295
   24SAPC   C31 3148   3.278   2.892  10.281 -0.2679  0.3615  0.0670
   24SAPC   O32 3149   3.252   2.847  10.388 -0.6077 -0.0496  0.0838
   24SAPC   C32 3150   3.251   2.826  10.143  0.4568 -0.2201 -0.0576
   24SAPC   H2X 3151   3.155   2.770  10.150  1.3566 -2.2684 -2.6387
   24SAPC   H2Y 3152   3.321   2.741  10.138 -1.0667 -1.8459  3.0394
   24SAPC   C23 3153   3.859   3.138  10.280 -0.6681 -0.2267 -1.0435
   24SAPC   H3R 3154   3.932   3.146  10.363 -0.9330 -1.6305 -0.6457
   24SAPC   H3S 3155   3.774   3.206  10.305  0.4762  0.6825  0.5609
   24SAPC   C24 3156   3.908   3.192  10.146  0.2341 -0.2938 -0.0652
   24SAPC   H4R 3157   3.917   3.303  10.147  0.1717 -0.2930  0.4561
   24SAPC   H4S 3158   3.821   3.175  10.079 -0.7754  1.4524  0.7284
   24SAPC   C25 3159   4.032   3.118  10.104 -0.3662  0.7593  0.9630
   24SAPC   H5R 3160   4.122   3.133  10.167  0.8393  0.2127 -0.5794
   24SAPC   C26 3161   4.053   3.021  10.006 -0.1730  0.2842  0.9604
   24SAPC   H6R 3162   4.157   2.990   9.989  0.1415  1.7586  0.0086
   24SAPC   C27 3163   3.961   2.962   9.906  0.0413 -0.1243 -0.0070
   24SAPC   H7R 3164   3.864   2.967   9.959  0.1181  0.1698  0.1140
   24SAPC   H7S 3165   3.977   2.854   9.889 -2.3418 -1.4104  4.4155
   24SAPC   C28 3166   3.959   3.045   9.779 -0.5292 -0.7067 -0.1175
   24SAPC   H8R 3167   3.922   3.145   9.807 -1.1681 -0.6823 -1.0041
   24SAPC   C29 3168   4.004   3.002   9.660  0.5002  0.1084  0.9626
   24SAPC   H9R 3169   4.003   3.070   9.574 -2.9936  0.2982  1.0268
   24SAPC  C210 3170   4.062   2.869   9.621 -0.0533 -0.3253 -0.5199
   24SAPC  H10R 3171   4.123   2.831   9.706  0.2269  1.0773 -0.0577
   24SAPC  H10S 3172   4.137   2.876   9.540  1.3075 -0.9924  0.6472
   24SAPC  C211 3173   3.968   2.755   9.584  0.1412  0.0143  0.4845
   24SAPC  H11R 3174   3.928   2.688   9.662 -0.7974  0.1336  0.1192
   24SAPC  C212 3175   3.907   2.745   9.466 -0.2446  0.7559  0.4129
   24SAPC  H12R 3176   3.842   2.656   9.452 -0.1146  0.6775  0.3059
   24SAPC  C213 3177   3.913   2.846   9.348  0.5657  0.4221 -0.6292
   24SAPC  H13R 3178   3.866   2.937   9.389  0.3947 -0.3361  0.9173
   24SAPC  H13S 3179   3.844   2.799   9.274  1.7999  0.3826 -1.7875
   24SAPC  C214 3180   4.043   2.876   9.271 -0.0479  0.5336 -0.8608
   24SAPC  H14R 3181   4.131   2.829   9.317 -1.3034  1.0268  2.3472
   24SAPC  C215 3182   4.046   2.946   9.159 -0.3119 -0.5129  0.2544
   24SAPC  H15R 3183   4.145   2.978   9.123 -0.6436  1.6285  1.1004
   24SAPC  C216 3184   3.933   3.013   9.089 -0.3130  0.0216 -0.6520
   24SAPC  H16R 3185   3.899   3.089   9.163  1.5546  2.2285 -1.8996
   24SAPC  H16S 3186   3.857   2.935   9.068  0.0432 -0.4234 -0.3208
   24SAPC  C217 3187   3.976   3.065   8.958  0.0177 -0.2608 -0.3964
   24SAPC  H17R 3188   4.054   3.144   8.960 -1.4570  1.2658 -1.0538
   24SAPC  H17S 3189   3.894   3.128   8.918 -0.0374 -0.6668 -0.9360
   24SAPC  C218 3190   4.027   2.955   8.856  0.0564 -0.0329 -0.0774
   24SAPC  H18R 3191   3.976   2.862   8.886  2.8492 -1.7205 -0.2182
   24SAPC  H18S 3192   4.129   2.927   8.890 -0.4191  0.4807  1.9391
   24SAPC  C219 3193   4.008   3.000   8.714 -0.0736  0.1194  0.0531
   24SAPC  H19R 3194   4.047   3.102   8.693 -0.2024 -0.2090 -1.9186
   24SAPC  H19S 3195   3.899   2.997   8.690  0.2471 -0.8794 -1.3488
   24SAPC  C220 3196   4.084   2.917   8.619  0.1512 -0.0722 -0.0774
   24SAPC  H20R 3197   4.036   2.935   8.521  0.1569 -2.9382 -0.6985
   24SAPC  H20S 3198   4.073   2.810   8.645 -2.9031  0.6180  2.0761
   24SAPC  H20T 3199   4.193   2.938   8.620  0.3682 -1.1038  1.4793
   24SAPC   C33 3200   3.265   2.914  10.019  0.1600  0.3212 -0.2890
   24SAPC   H3X 3201   3.367   2.956  10.006  0.7616 -0.3137  1.9788
   24SAPC   H3Y 3202   3.190   2.995  10.023 -1.2495 -0.9879  0.7018
   24SAPC   C34 3203   3.235   2.835   9.892 -0.5517  0.0665  0.2578
   24SAPC   H4X 3204   3.288   2.739   9.904 -1.8724 -0.7888 -0.5012
   24SAPC   H4Y 3205   3.269   2.890   9.801  2.7968 -0.6569  0.9449
   24SAPC   C35 3206   3.086   2.820   9.865  0.1290  0.0509  0.1568
   24SAPC   H5X 3207   3.030   2.916   9.859 -1.4733 -0.9127 -1.3464
   24SAPC   H5Y 3208   3.047   2.763   9.953 -1.1025  1.3850  0.5104
   24SAPC   C36 3209   3.045   2.730   9.749 -0.2310 -0.0771 -0.0465
   24SAPC   H6X 3210   2.936   2.711   9.762 -0.1635  0.6990  1.8309
   24SAPC   H6Y 3211   3.092   2.630   9.755 -0.4263 -0.1243  0.8328
   24SAPC   C37 3212   3.071   2.799   9.616  0.1476 -0.4557 -0.1584
   24SAPC   H7X 3213   3.176   2.825   9.592  0.1078 -0.9550 -0.8965
   24SAPC   H7Y 3214   3.008   2.891   9.614 -0.4673 -0.8579  0.4323
   24SAPC   C38 3215   3.029   2.704   9.502  0.0865  0.7929 -0.1283
   24SAPC   H8X 3216   2.934   2.656   9.535  1.4376 -1.1418  1.1696
   24SAPC   H8Y 3217   3.107   2.628   9.481  0.9228  1.6376 -0.1404
   24SAPC   C39 3218   3.017   2.772   9.359 -0.3061  0.5812 -0.3570
   24SAPC   H9X 3219   2.989   2.879   9.373  0.4292  0.9211 -1.3475
   24SAPC   H9Y 3220   2.937   2.725   9.299 -0.7050  1.3152 -0.4145
   24SAPC  C310 3221   3.139   2.762   9.262 -0.3265 -0.3590 -0.0797
   24SAPC  H10X 3222   3.146   2.659   9.222  0.8861 -0.7489  1.0489
   24SAPC  H10Y 3223   3.236   2.778   9.315  0.8771 -1.1712 -1.9304
   24SAPC  C311 3224   3.136   2.880   9.161 -0.1368  0.5230 -0.1768
   24SAPC  H11X 3225   3.242   2.878   9.126  0.7477 -1.5169  2.2833
   24SAPC  H11Y 3226   3.124   2.979   9.209  0.2042  0.2843  0.4083
   24SAPC  C312 3227   3.027   2.885   9.051  0.2627  0.1297  0.2408
   24SAPC  H12X 3228   3.020   2.982   8.998 -2.2146 -0.3863 -0.5205
   24SAPC  H12Y 3229   2.926   2.872   9.096 -0.5288  1.0415 -1.2017
   24SAPC  C313 3230   3.057   2.788   8.934  0.5185 -0.6094  0.3664
   24SAPC  H13X 3231   3.056   2.685   8.975  1.8867 -0.5194  0.6755
   24SAPC  H13Y 3232   3.156   2.799   8.885  1.2206  0.6440  1.9420
   24SAPC  C314 3233   2.943   2.794   8.829 -0.5223  0.2825 -0.3542
   24SAPC  H14X 3234   2.844   2.795   8.880 -0.4961 -2.1061 -0.1636
   24SAPC  H14Y 3235   2.945   2.708   8.758  1.9891  0.7822 -0.9730
   24SAPC  C315 3236   2.953   2.913   8.733 -0.2813  0.4363 -0.2611
   24SAPC  H15X 3237   2.939   3.008   8.789 -1.6520 -0.6880  1.4194
   24SAPC  H15Y 3238   2.861   2.909   8.671 -0.1217  3.5826 -0.9065
   24SAPC  C316 3239   3.079   2.914   8.641  0.1573 -0.3992  0.1489
   24SAPC  H16X 3240   3.114   2.809   8.639 -0.0762 -0.4774  0.1441
   24SAPC  H16Y 3241   3.159   2.967   8.697  0.7989 -0.5615 -0.5958
   24SAPC  C317 3242   3.060   2.969   8.497 -0.3790 -0.1542  0.3656
   24SAPC  H17X 3243   2.974   2.921   8.446  1.6239 -0.1971 -3.3550
   24SAPC  H17Y 3244   3.152   2.946   8.438  0.0198  0.1482  0.8582
   24SAPC  C318 3245   3.050   3.122   8.493  0.5650  0.4829  0.5267
   24SAPC  H18X 3246   3.137   3.170   8.542  0.6692  1.5087 -0.6066
   24SAPC  H18Y 3247   2.955   3.151   8.544  0.0897  1.0371 -0.6354
   24SAPC  H18Z 3248   3.057   3.148   8.385  2.8995 -0.1663  0.4709
   25SAPC     N 3249   2.155   6.164   5.670 -0.6551 -0.3860 -0.1858
   25SAPC   C12 3250   2.231   6.197   5.793  0.1709 -0.7993  0.1215
   25SAPC  H12A 3251   2.187   6.283   5.840 -1.3070 -1.8418  0.7182
   25SAPC  H12B 3252   2.332   6.222   5.763 -1.5419  2.8160 -3.4532
   25SAPC   C13 3253   2.012   6.161   5.702  0.8338 -0.8832 -0.6287
   25SAPC  H13A 3254   1.979   6.248   5.758  3.4116 -2.2139  3.4287
   25SAPC  H13B 3255   1.956   6.143   5.612  1.0660 -0.0643 -0.9437
   25SAPC  H13C 3256   1.978   6.078   5.762 -0.9467 -1.0958 -1.8630
   25SAPC   C14 3257   2.200   6.263   5.564 -0.2306  0.9592 -0.1438
   25SAPC  H14A 3258   2.301   6.248   5.530  0.0849  2.6855 -0.0697
   25SAPC  H14B 3259   2.140   6.253   5.475 -1.8888 -0.8545  1.0955
   25SAPC  H14C 3260   2.191   6.365   5.598 -0.8712  0.2520  1.9833
   25SAPC   C15 3261   2.194   6.020   5.620  0.7969 -0.5085 -0.4054
   25SAPC  H15A 3262   2.294   6.014   5.579  1.1954  1.2368  0.2484
   25SAPC  H15B 3263   2.187   5.946   5.699 -0.8311 -0.4991 -0.5157
   25SAPC  H15C 3264   2.123   5.986   5.546 -1.3504  1.0263  0.8450
   25SAPC   C11 3265   2.237   6.093   5.916 -0.3603 -0.2722 -0.4052
   25SAPC  H11A 3266   2.138   6.050   5.944 -1.4708  0.8575 -2.3569
   25SAPC  H11B 3267   2.274   6.146   6.006  1.3527 -2.1526  0.0900
   25SAPC     P 3268   2.479   5.976   5.935  0.0130  0.2809 -0.0694
   25SAPC   O13 3269   2.520   5.833   5.923  0.4938 -0.1947  0.0606
   25SAPC   O14 3270   2.567   6.074   5.871  0.4708  0.2031 -0.2641
   25SAPC   O12 3271   2.330   5.991   5.880 -0.4419  0.1243 -0.9089
   25SAPC   O11 3272   2.470   5.991   6.100  1.0581  0.1570 -0.1897
   25SAPC    C1 3273   2.374   5.924   6.177 -0.1819  0.4705  0.1332
   25SAPC    HA 3274   2.287   5.887   6.119  0.1214  0.3678 -0.2629
   25SAPC    HB 3275   2.439   5.841   6.214 -0.2923 -0.3312 -1.4006
   25SAPC    C2 3276   2.323   6.000   6.299 -0.1078 -0.4881  0.0195
   25SAPC    HS 3277   2.235   6.057   6.265 -2.6550 -4.5457 -0.8701
   25SAPC   O21 3278   2.431   6.074   6.356 -0.4649 -0.0655  0.3691
   25SAPC   C21 3279   2.402   6.175   6.435  0.5762  0.3328  0.3018
   25SAPC   O22 3280   2.289   6.221   6.455 -0.0631 -0.4976  0.0124
   25SAPC   C22 3281   2.533   6.221   6.500  0.7977 -0.0775 -1.0055
   25SAPC   H2R 3282   2.575   6.147   6.571  2.8010  1.7345 -0.1899
   25SAPC   H2S 3283   2.605   6.248   6.420  2.9964  0.4831  1.0448
   25SAPC    C3 3284   2.261   5.902   6.400  0.0418 -0.7616 -0.2645
   25SAPC    HX 3285   2.347   5.857   6.454  1.2303  0.9276 -0.6764
   25SAPC    HY 3286   2.207   5.824   6.341 -1.3046  0.7757 -1.1253
   25SAPC   O31 3287   2.165   5.970   6.486  0.0290  0.3344 -0.3470
   25SAPC   C31 3288   2.188   5.967   6.613 -0.1053  0.1565 -0.4865
   25SAPC   O32 3289   2.272   5.900   6.674  0.3254 -0.6462 -0.6809
   25SAPC   C32 3290   2.087   6.052   6.682  0.0058  0.5667 -0.2276
   25SAPC   H2X 3291   1.987   6.041   6.636 -0.5806  1.8171  0.6974
   25SAPC   H2Y 3292   2.102   6.160   6.659  0.5437  0.4660 -0.3618
   25SAPC   C23 3293   2.507   6.358   6.569 -0.0714 -0.9815 -0.6415
   25SAPC   H3R 3294   2.455   6.341   6.666  2.0483 -1.2804  0.4805
   25SAPC   H3S 3295   2.463   6.429   6.495 -0.8003  0.9792  1.5253
   25SAPC   C24 3296   2.645   6.436   6.601 -0.8264 -0.2065 -0.3456
   25SAPC   H4R 3297   2.610   6.538   6.632 -4.8459 -1.2400 -0.9033
   25SAPC   H4S 3298   2.687   6.452   6.500  0.8980 -0.5187  0.2857
   25SAPC   C25 3299   2.742   6.356   6.687 -0.6634 -0.3603 -0.1186
   25SAPC   H5R 3300   2.819   6.300   6.632  0.4245  2.6681 -1.9235
   25SAPC   C26 3301   2.753   6.359   6.821 -0.0389  0.1930  0.2190
   25SAPC   H6R 3302   2.830   6.294   6.866  0.3111  1.0269  0.8429
   25SAPC   C27 3303   2.668   6.444   6.915  0.2083  0.2048  0.7607
   25SAPC   H7R 3304   2.594   6.508   6.861 -0.2939 -0.1865  0.9672
   25SAPC   H7S 3305   2.738   6.517   6.960  1.2043 -0.7095  0.7305
   25SAPC   C28 3306   2.586   6.365   7.019  0.0968 -0.1456  0.0639
   25SAPC   H8R 3307   2.549   6.273   6.973 -0.2338  1.1097 -2.3773
   25SAPC   C29 3308   2.575   6.405   7.148  0.8691  0.1777  0.5469
   25SAPC   H9R 3309   2.519   6.343   7.220 -0.1132  0.0418 -0.3104
   25SAPC  C210 3310   2.632   6.532   7.207 -0.9200  0.2356 -0.8734
   25SAPC  H10R 3311   2.687   6.598   7.137 -1.8579  1.1959 -0.7268
   25SAPC  H10S 3312   2.706   6.494   7.280  0.6982 -0.8551 -2.9486
   25SAPC  C211 3313   2.531   6.615   7.268 -0.4832 -0.0481  0.2022
   25SAPC  H11R 3314   2.459   6.658   7.197 -1.3666  2.0917  2.2176
   25SAPC  C212 3315   2.533   6.668   7.392  0.4680 -0.0781 -0.4748
   25SAPC  H12R 3316   2.455   6.741   7.418  0.1990  0.4392 -2.5823
   25SAPC  C213 3317   2.633   6.633   7.505 -0.4899  0.6215  1.1943
   25SAPC  H13R 3318   2.719   6.700   7.484 -0.2586 -0.5754 -2.5465
   25SAPC  H13S 3319   2.665   6.528   7.484 -0.9482  1.1572 -3.2268
   25SAPC  C214 3320   2.589   6.649   7.644 -0.3094 -0.4635  0.7668
   25SAPC  H14R 3321   2.551   6.751   7.656  2.4890  0.4212  4.0602
   25SAPC  C215 3322   2.598   6.576   7.756  0.5990 -0.5658  0.3140
   25SAPC  H15R 3323   2.547   6.604   7.849  1.4385 -1.1721  0.9709
   25SAPC  C216 3324   2.662   6.438   7.759 -0.4931  0.5911 -1.0229
   25SAPC  H16R 3325   2.687   6.404   7.656  0.3940  1.6722 -1.1849
   25SAPC  H16S 3326   2.589   6.367   7.803 -0.0499  0.2509 -0.8311
   25SAPC  C217 3327   2.791   6.427   7.849  0.6736 -0.9867  0.1942
   25SAPC  H17R 3328   2.862   6.500   7.805 -1.1491  0.7686  0.0279
   25SAPC  H17S 3329   2.836   6.328   7.827  2.4269 -0.2477  0.3250
   25SAPC  C218 3330   2.756   6.470   7.999 -0.0197 -0.5181 -0.1408
   25SAPC  H18R 3331   2.667   6.405   8.016 -1.3129  0.6896 -1.8331
   25SAPC  H18S 3332   2.726   6.576   8.015  3.9433  0.4728  2.0734
   25SAPC  C219 3333   2.869   6.444   8.098  0.4837 -0.6230  1.2593
   25SAPC  H19R 3334   2.845   6.489   8.196 -1.6904  2.3926 -0.4612
   25SAPC  H19S 3335   2.967   6.481   8.058 -0.0149 -0.0039  0.5660
   25SAPC  C220 3336   2.871   6.297   8.135  0.2734 -0.2644 -0.4666
   25SAPC  H20R 3337   2.878   6.231   8.045 -1.2418 -0.2548 -0.6236
   25SAPC  H20S 3338   2.787   6.261   8.199  0.3673  0.8644  0.3088
   25SAPC  H20T 3339   2.961   6.293   8.200  0.4224 -0.2351 -0.6701
   25SAPC   C33 3340   2.088   6.019   6.832 -0.2022  0.1283 -0.0168
   25SAPC   H3X 3341   2.188   6.041   6.876  0.6040 -1.6376 -0.8367
   25SAPC   H3Y 3342   2.068   5.911   6.850  1.1504 -0.0049  0.8543
   25SAPC   C34 3343   1.975   6.101   6.908 -0.0483 -0.3475  0.1108
   25SAPC   H4X 3344   1.884   6.084   6.847 -0.2057  1.5000 -0.2274
   25SAPC   H4Y 3345   1.995   6.210   6.906 -0.3822 -0.2481 -3.0529
   25SAPC   C35 3346   1.963   6.060   7.058 -0.5522 -0.4024  0.7507
   25SAPC   H5X 3347   1.955   5.950   7.070  1.4511 -0.5249  1.3219
   25SAPC   H5Y 3348   1.875   6.109   7.106  0.4853  0.6197  1.6882
   25SAPC   C36 3349   2.084   6.114   7.136  0.1140 -0.3108  0.3944
   25SAPC   H6X 3350   2.126   6.211   7.104 -0.7131  0.8034  2.5547
   25SAPC   H6Y 3351   2.162   6.035   7.120  1.3235  0.9922 -0.4110
   25SAPC   C37 3352   2.045   6.114   7.279 -0.3027  0.2357 -0.1155
   25SAPC   H7X 3353   1.970   6.039   7.313 -1.9671  0.8415 -2.2354
   25SAPC   H7Y 3354   1.995   6.211   7.299  1.5116  0.7436  2.4634
   25SAPC   C38 3355   2.166   6.113   7.375  0.2962  0.6391 -0.0864
   25SAPC   H8X 3356   2.234   6.197   7.348  1.4284 -1.0263 -2.8166
   25SAPC   H8Y 3357   2.222   6.018   7.360  1.6274  1.4130 -0.1875
   25SAPC   C39 3358   2.134   6.111   7.525  0.2234  0.5072  0.0254
   25SAPC   H9X 3359   2.059   6.032   7.546  0.9034  0.2169  1.4405
   25SAPC   H9Y 3360   2.099   6.212   7.555  0.7102  0.5703  0.3850
   25SAPC  C310 3361   2.261   6.090   7.613  0.2418 -0.3032 -0.1616
   25SAPC  H10X 3362   2.321   6.183   7.621 -0.2222 -0.0072 -0.0925
   25SAPC  H10Y 3363   2.336   6.023   7.565  1.0604 -0.2928  1.0642
   25SAPC  C311 3364   2.226   6.034   7.753 -0.5320 -0.2588  0.1561
   25SAPC  H11X 3365   2.166   5.941   7.746 -2.1079  0.7520 -0.2572
   25SAPC  H11Y 3366   2.162   6.111   7.801 -1.1739 -0.2863 -0.6404
   25SAPC  C312 3367   2.343   6.023   7.850 -0.5396  0.5746  0.4511
   25SAPC  H12X 3368   2.431   6.085   7.823 -0.3941  1.6434  3.0399
   25SAPC  H12Y 3369   2.391   5.923   7.845  1.1023  1.3820 -1.4581
   25SAPC  C313 3370   2.321   6.053   7.998  0.3569  0.1076  0.2420
   25SAPC  H13X 3371   2.291   6.160   8.005  1.4083  0.5551 -1.6354
   25SAPC  H13Y 3372   2.406   6.026   8.064 -1.2971 -1.9963  1.6662
   25SAPC  C314 3373   2.204   5.975   8.052  0.0437  0.7315  0.2080
   25SAPC  H14X 3374   2.111   5.994   7.996  1.8248 -0.2731 -3.3805
   25SAPC  H14Y 3375   2.186   6.002   8.158  0.1526  0.3346  0.3267
   25SAPC  C315 3376   2.235   5.822   8.040  0.1981 -0.0813  0.2004
   25SAPC  H15X 3377   2.229   5.796   7.932  3.1039 -0.0975 -0.0383
   25SAPC  H15Y 3378   2.148   5.766   8.080  0.1581 -1.0479 -1.1552
   25SAPC  C316 3379   2.361   5.758   8.109 -0.1366  1.8142 -0.4608
   25SAPC  H16X 3380   2.364   5.778   8.218  1.6851 -1.1340  0.1339
   25SAPC  H16Y 3381   2.454   5.791   8.058  0.4113 -2.1064 -2.3588
   25SAPC  C317 3382   2.342   5.612   8.095  0.0263  0.5305 -0.2589
   25SAPC  H17X 3383   2.298   5.592   7.995 -0.1427  1.1773 -0.3179
   25SAPC  H17Y 3384   2.278   5.573   8.177 -0.9159  0.2391 -1.1116
   25SAPC  C318 3385   2.474   5.536   8.098 -0.0684  0.6710  0.5671
   25SAPC  H18X 3386   2.521   5.554   8.197  1.2468  1.1121 -0.1317
   25SAPC  H18Y 3387   2.545   5.577   8.024  0.9276 -0.1317  1.0478
   25SAPC  H18Z 3388   2.457   5.427   8.084  1.9116  0.4332 -0.1961
   26SAPC     N 3389   3.132   2.771   5.970  0.0277  0.1756 -1.3075
   26SAPC   C12 3390   3.122   2.667   6.083 -0.0729 -0.0074 -0.1759
   26SAPC  H12A 3391   3.017   2.666   6.106  0.1421 -2.0230  0.9395
   26SAPC  H12B 3392   3.175   2.703   6.170 -0.9967  0.6148  0.1452
   26SAPC   C13 3393   3.081   2.897   6.032  0.5108 -0.1642 -0.2917
   26SAPC  H13A 3394   3.090   2.983   5.967 -1.9263  0.6398  0.3357
   26SAPC  H13B 3395   2.973   2.892   6.041  0.5584 -1.2002 -0.1787
   26SAPC  H13C 3396   3.135   2.915   6.124  2.4329 -2.1315 -0.9681
   26SAPC   C14 3397   3.273   2.788   5.933 -0.0888 -0.3622  0.5795
   26SAPC  H14A 3398   3.283   2.861   5.854 -0.5973 -0.4760  0.4048
   26SAPC  H14B 3399   3.336   2.825   6.012  2.8530 -1.7298 -0.9289
   26SAPC  H14C 3400   3.324   2.699   5.899  1.9430  0.5184  1.1927
   26SAPC   C15 3401   3.046   2.730   5.857 -0.5429 -0.2241 -0.7594
   26SAPC  H15A 3402   2.954   2.686   5.893  1.9712 -2.4003  3.8613
   26SAPC  H15B 3403   3.020   2.818   5.799  2.1589 -0.8349 -3.1099
   26SAPC  H15C 3404   3.101   2.665   5.791  0.4201 -1.3231  1.0586
   26SAPC   C11 3405   3.156   2.513   6.062 -0.3723  0.1852 -0.0798
   26SAPC  H11A 3406   3.264   2.502   6.039  0.0838  0.1392  1.8449
   26SAPC  H11B 3407   3.111   2.476   5.968  1.5828  1.0539 -1.4248
   26SAPC     P 3408   2.986   2.398   6.209  0.0834 -0.3711  0.2717
   26SAPC   O13 3409   2.921   2.372   6.076 -0.0915  0.4973 -0.0968
   26SAPC   O14 3410   2.975   2.289   6.309  0.0494 -0.7599 -0.2065
   26SAPC   O12 3411   3.138   2.432   6.174  0.4768 -0.3265 -0.3477
   26SAPC   O11 3412   2.943   2.537   6.265 -0.6860  0.2255  0.0570
   26SAPC    C1 3413   2.897   2.560   6.393  0.3377  0.9691  0.1326
   26SAPC    HA 3414   2.806   2.623   6.405 -0.2099  0.2942 -0.3362
   26SAPC    HB 3415   2.868   2.462   6.436  1.6298 -0.4521 -2.0632
   26SAPC    C2 3416   2.992   2.633   6.485  0.0232  0.1438 -0.7540
   26SAPC    HS 3417   2.960   2.615   6.590 -0.3585  1.3599 -0.6459
   26SAPC   O21 3418   2.995   2.773   6.450  0.5570 -0.0314  0.1791
   26SAPC   C21 3419   2.899   2.847   6.504 -0.4539  0.3418  0.4733
   26SAPC   O22 3420   2.812   2.802   6.570 -0.3761  0.2032 -0.3829
   26SAPC   C22 3421   2.915   2.993   6.477 -0.6290  0.1908  0.2232
   26SAPC   H2R 3422   3.022   3.019   6.496  0.4243 -2.6258 -1.1892
   26SAPC   H2S 3423   2.895   2.997   6.368  1.5198  0.3979 -0.2242
   26SAPC    C3 3424   3.131   2.568   6.464  0.3973  0.2056  0.3860
   26SAPC    HX 3425   3.148   2.579   6.355 -2.9874 -0.3884 -0.3198
   26SAPC    HY 3426   3.121   2.458   6.476  0.4074  0.2764  1.0645
   26SAPC   O31 3427   3.240   2.621   6.543  0.2866 -0.6761 -0.2326
   26SAPC   C31 3428   3.316   2.707   6.482 -0.2673  0.0932 -0.6862
   26SAPC   O32 3429   3.309   2.743   6.363  0.3129  0.5671  0.4968
   26SAPC   C32 3430   3.400   2.777   6.593 -0.5369 -0.3879  0.7067
   26SAPC   H2X 3431   3.484   2.795   6.522 -1.2378 -1.7490 -0.5413
   26SAPC   H2Y 3432   3.440   2.702   6.665  3.1902  1.1923  0.5405
   26SAPC   C23 3433   2.827   3.092   6.559  0.2828 -0.4889 -0.0934
   26SAPC   H3R 3434   2.738   3.030   6.586  0.0328  0.4429  1.3238
   26SAPC   H3S 3435   2.791   3.176   6.496  0.1618  1.0173  1.8872
   26SAPC   C24 3436   2.904   3.150   6.680  0.3589  0.3714 -0.4291
   26SAPC   H4R 3437   2.984   3.211   6.632  1.0064  0.2933  0.5113
   26SAPC   H4S 3438   2.955   3.069   6.736 -2.5609 -1.3486 -0.0772
   26SAPC   C25 3439   2.822   3.231   6.776  0.2791 -0.3222 -0.7823
   26SAPC   H5R 3440   2.806   3.338   6.754 -1.5533 -0.7723 -1.9045
   26SAPC   C26 3441   2.771   3.185   6.891  0.3367  0.0019  1.0058
   26SAPC   H6R 3442   2.711   3.254   6.953 -0.0979  0.6846 -0.1291
   26SAPC   C27 3443   2.766   3.041   6.938 -0.2230 -0.7468  0.4580
   26SAPC   H7R 3444   2.842   3.025   7.016 -0.7286 -2.0317  0.7247
   26SAPC   H7S 3445   2.798   2.977   6.852  2.4928  1.4947 -0.3222
   26SAPC   C28 3446   2.633   3.012   6.990  0.5324  0.4067 -0.3937
   26SAPC   H8R 3447   2.571   2.942   6.931 -3.3978 -0.5061  4.1401
   26SAPC   C29 3448   2.584   3.045   7.110 -0.7084  0.4640 -0.2365
   26SAPC   H9R 3449   2.481   3.011   7.128 -1.6547  0.2396 -4.7905
   26SAPC  C210 3450   2.657   3.124   7.220 -0.1836  0.1971  0.2714
   26SAPC  H10R 3451   2.756   3.149   7.176 -0.2981 -0.4933 -0.4141
   26SAPC  H10S 3452   2.671   3.056   7.306 -2.0731  0.7811  1.0873
   26SAPC  C211 3453   2.581   3.248   7.243 -0.2973 -0.0181  0.0341
   26SAPC  H11R 3454   2.551   3.298   7.149  2.0250 -1.3870 -1.5544
   26SAPC  C212 3455   2.539   3.302   7.358 -0.2577 -0.2243  0.3567
   26SAPC  H12R 3456   2.485   3.396   7.340 -1.9626 -1.1102  0.6821
   26SAPC  C213 3457   2.558   3.255   7.497 -0.4761  0.7743 -0.3129
   26SAPC  H13R 3458   2.637   3.317   7.544 -0.9691  0.8250  0.4795
   26SAPC  H13S 3459   2.588   3.148   7.493 -2.9204  0.0776 -1.8612
   26SAPC  C214 3460   2.443   3.256   7.597  0.2160 -0.3153 -0.3079
   26SAPC  H14R 3461   2.344   3.239   7.552  0.7985  0.6266 -2.0396
   26SAPC  C215 3462   2.443   3.263   7.731 -0.9723 -0.4501 -0.1857
   26SAPC  H15R 3463   2.348   3.268   7.786 -1.2779 -0.7560 -0.6878
   26SAPC  C216 3464   2.567   3.274   7.821 -1.0448 -0.3516 -0.4457
   26SAPC  H16R 3465   2.660   3.276   7.760 -1.2959  1.9004 -0.8488
   26SAPC  H16S 3466   2.565   3.198   7.901 -0.6399 -0.1605 -0.2544
   26SAPC  C217 3467   2.562   3.413   7.887  0.0022  0.0252  0.5424
   26SAPC  H17R 3468   2.471   3.415   7.950 -0.2232 -0.5630  0.2455
   26SAPC  H17S 3469   2.558   3.491   7.808 -0.0553 -1.0136 -0.5104
   26SAPC  C218 3470   2.682   3.451   7.971 -0.0886 -0.4625 -0.6720
   26SAPC  H18R 3471   2.775   3.448   7.911  1.8068  0.6612  2.0061
   26SAPC  H18S 3472   2.696   3.372   8.048 -0.0862  0.5264  0.3662
   26SAPC  C219 3473   2.650   3.582   8.044 -0.3039  0.3410  0.1467
   26SAPC  H19R 3474   2.715   3.593   8.134  0.6849  0.4747 -0.5667
   26SAPC  H19S 3475   2.547   3.566   8.081 -0.1368 -1.9899 -0.2680
   26SAPC  C220 3476   2.660   3.700   7.957 -0.8898 -0.0285  0.7938
   26SAPC  H20R 3477   2.564   3.719   7.906  0.2579  1.2139 -1.0452
   26SAPC  H20S 3478   2.744   3.686   7.886 -1.0485  0.4567  0.5023
   26SAPC  H20T 3479   2.689   3.784   8.025  0.4166  1.2961 -1.2664
   26SAPC   C33 3480   3.341   2.906   6.656  0.0814 -0.9049  0.0891
   26SAPC   H3X 3481   3.286   2.961   6.577  1.4720 -3.4436 -2.8382
   26SAPC   H3Y 3482   3.424   2.972   6.689 -0.0227  1.4973 -3.8030
   26SAPC   C34 3483   3.244   2.864   6.767 -0.3142 -0.3877  0.4813
   26SAPC   H4X 3484   3.287   2.777   6.822  1.0208  0.3162  0.5879
   26SAPC   H4Y 3485   3.153   2.831   6.712 -0.5989 -2.4961  2.0574
   26SAPC   C35 3486   3.223   2.966   6.878  0.0088 -0.0323 -0.9018
   26SAPC   H5X 3487   3.171   3.050   6.827 -1.3754 -0.8097 -0.8268
   26SAPC   H5Y 3488   3.322   2.995   6.919  0.7003 -0.1232 -2.4272
   26SAPC   C36 3489   3.137   2.914   6.991 -0.7323 -0.5671 -1.0420
   26SAPC   H6X 3490   3.184   2.817   7.020  1.5201  0.4836 -0.9316
   26SAPC   H6Y 3491   3.038   2.895   6.944 -1.1742  1.0428 -0.8043
   26SAPC   C37 3492   3.124   3.012   7.107  0.0638 -0.0752  0.7514
   26SAPC   H7X 3493   3.063   3.101   7.079  0.7207  0.2447  0.3001
   26SAPC   H7Y 3494   3.228   3.046   7.128  0.9721 -1.7295 -0.8635
   26SAPC   C38 3495   3.066   2.955   7.233 -0.4362  0.7487 -0.5179
   26SAPC   H8X 3496   3.088   2.848   7.254  1.7541  1.2762  0.1073
   26SAPC   H8Y 3497   2.955   2.964   7.238 -0.4764  0.6664 -1.1314
   26SAPC   C39 3498   3.123   3.034   7.356 -0.5831  0.2671 -0.6216
   26SAPC   H9X 3499   3.121   3.141   7.328  2.7527  0.7065  0.3987
   26SAPC   H9Y 3500   3.232   3.014   7.366 -0.8434 -1.3138 -0.6656
   26SAPC  C310 3501   3.041   3.013   7.486 -0.8238 -0.6093  0.1352
   26SAPC  H10X 3502   3.049   2.905   7.508  2.1694 -0.5434 -0.2819
   26SAPC  H10Y 3503   2.936   3.049   7.476 -0.0095  1.4804 -1.4682
   26SAPC  C311 3504   3.111   3.074   7.609  0.4331  0.5485  0.4953
   26SAPC  H11X 3505   3.136   3.177   7.577  1.3663 -0.5200 -2.5934
   26SAPC  H11Y 3506   3.212   3.033   7.632  1.2344  0.5710 -2.4524
   26SAPC  C312 3507   3.028   3.053   7.739 -0.3618 -0.9138  0.0374
   26SAPC  H12X 3508   3.093   2.992   7.805 -1.5178 -1.3741  0.7849
   26SAPC  H12Y 3509   2.930   3.013   7.705 -0.4461  0.2949 -1.2220
   26SAPC  C313 3510   3.008   3.194   7.808  0.8107  0.2228  0.1653
   26SAPC  H13X 3511   2.905   3.178   7.847  0.9939 -3.6612 -0.5158
   26SAPC  H13Y 3512   2.994   3.266   7.724 -0.0181 -0.4250 -0.2737
   26SAPC  C314 3513   3.109   3.231   7.914 -0.3041 -0.4433 -0.3493
   26SAPC  H14X 3514   3.205   3.231   7.858  0.2565 -2.6562  0.5047
   26SAPC  H14Y 3515   3.111   3.158   7.998  0.9141  1.9354  1.8267
   26SAPC  C315 3516   3.082   3.367   7.967  0.6043  0.8543 -0.0806
   26SAPC  H15X 3517   3.014   3.346   8.053  0.5782 -1.8518 -0.6657
   26SAPC  H15Y 3518   3.030   3.434   7.895 -3.2435 -1.9971 -0.2999
   26SAPC  C316 3519   3.210   3.439   8.003 -0.5384  0.2244 -0.4521
   26SAPC  H16X 3520   3.175   3.534   8.049  2.6770  0.0570  2.8193
   26SAPC  H16Y 3521   3.267   3.464   7.911  0.8962  1.2235  0.6389
   26SAPC  C317 3522   3.304   3.368   8.104  0.2884  0.0437 -0.1452
   26SAPC  H17X 3523   3.363   3.284   8.061  1.3993 -0.6543  2.5450
   26SAPC  H17Y 3524   3.239   3.326   8.184 -3.1340  1.0950 -2.1639
   26SAPC  C318 3525   3.414   3.460   8.162 -0.4711 -0.2685  0.1618
   26SAPC  H18X 3526   3.362   3.543   8.215  0.5051  0.5248 -0.0968
   26SAPC  H18Y 3527   3.487   3.501   8.089  2.3268 -3.6170  0.7892
   26SAPC  H18Z 3528   3.481   3.407   8.233  0.0621  0.2132  0.0256
   27SAPC     N 3529   4.272   1.781   6.295  0.1968  0.3389  1.1076
   27SAPC   C12 3530   4.271   1.644   6.239  0.0815 -0.4824  0.0653
   27SAPC  H12A 3531   4.373   1.613   6.223  0.2716  0.9555 -1.9040
   27SAPC  H12B 3532   4.221   1.650   6.143 -0.8526  0.1071  0.5760
   27SAPC   C13 3533   4.135   1.834   6.279 -0.0315  0.1988 -0.0773
   27SAPC  H13A 3534   4.060   1.772   6.325 -2.2190  0.6955 -2.6732
   27SAPC  H13B 3535   4.133   1.934   6.322  1.2684  0.0701  0.3361
   27SAPC  H13C 3536   4.095   1.843   6.179  0.7848  0.0197 -0.4309
   27SAPC   C14 3537   4.318   1.787   6.437  0.7214 -0.2211  0.4393
   27SAPC  H14A 3538   4.270   1.713   6.498 -0.9805  0.8485  0.4600
   27SAPC  H14B 3539   4.422   1.757   6.442  0.6252 -0.6646 -0.1103
   27SAPC  H14C 3540   4.304   1.884   6.482 -1.9693  0.1665 -1.0460
   27SAPC   C15 3541   4.359   1.883   6.220 -0.3690 -0.2493 -0.9800
   27SAPC  H15A 3542   4.385   1.851   6.120 -1.5611  3.0149 -2.4382
   27SAPC  H15B 3543   4.305   1.975   6.207  0.6445  0.4294 -0.4874
   27SAPC  H15C 3544   4.444   1.912   6.279  0.1528  0.7239 -2.1610
   27SAPC   C11 3545   4.200   1.535   6.322 -0.1509  0.6441  0.1576
   27SAPC  H11A 3546   4.264   1.519   6.411  1.4820 -0.6620 -1.1858
   27SAPC  H11B 3547   4.213   1.439   6.267  0.8202 -0.0012  1.4582
   27SAPC     P 3548   3.997   1.547   6.486  0.0418 -0.1706 -0.1730
   27SAPC   O13 3549   3.867   1.612   6.473 -0.0979  0.4274  0.0141
   27SAPC   O14 3550   3.993   1.401   6.507  0.0771 -0.6957 -0.7035
   27SAPC   O12 3551   4.061   1.557   6.343 -0.9575  0.3913  0.4616
   27SAPC   O11 3552   4.088   1.636   6.577 -0.2404  0.1790 -0.0276
   27SAPC    C1 3553   4.051   1.772   6.615 -0.3052  0.6770  0.7505
   27SAPC    HA 3554   4.083   1.846   6.538  0.8370 -0.0856  0.4660
   27SAPC    HB 3555   3.942   1.789   6.631 -0.2392 -0.6767  3.0258
   27SAPC    C2 3556   4.119   1.813   6.749  0.0907 -0.4822  0.3357
   27SAPC    HS 3557   4.227   1.808   6.727  0.0174 -0.9283  0.0618
   27SAPC   O21 3558   4.073   1.741   6.862  0.2394  0.0748 -0.3493
   27SAPC   C21 3559   4.167   1.695   6.943 -0.0298 -0.6843 -0.4180
   27SAPC   O22 3560   4.289   1.690   6.923  0.2294 -0.1457 -0.1046
   27SAPC   C22 3561   4.100   1.634   7.071 -0.6790  0.0331 -0.5734
   27SAPC   H2R 3562   4.057   1.713   7.136 -0.6655 -0.3256 -0.1148
   27SAPC   H2S 3563   4.028   1.562   7.025 -1.1142 -0.2141  0.4526
   27SAPC    C3 3564   4.097   1.970   6.763  0.8369 -0.0277  1.0673
   27SAPC    HX 3565   3.992   2.005   6.753  1.3261  0.9079 -1.6924
   27SAPC    HY 3566   4.143   2.006   6.669 -0.6360 -2.7802 -0.8537
   27SAPC   O31 3567   4.157   2.018   6.883 -0.1957 -0.3200 -0.2158
   27SAPC   C31 3568   4.269   2.094   6.872  0.0175  0.2006 -0.1200
   27SAPC   O32 3569   4.323   2.131   6.769 -0.2995  0.7696 -0.1546
   27SAPC   C32 3570   4.315   2.131   7.008 -1.0193 -0.0125 -0.1774
   27SAPC   H2X 3571   4.426   2.127   7.014 -1.0932 -1.9930  0.8908
   27SAPC   H2Y 3572   4.277   2.065   7.090 -1.9398  0.8981  0.1490
   27SAPC   C23 3573   4.202   1.543   7.151 -0.4104 -0.2904  0.6231
   27SAPC   H3R 3574   4.284   1.515   7.083 -1.3822  0.2714 -0.8330
   27SAPC   H3S 3575   4.165   1.441   7.173 -0.6198 -0.8364 -1.9979
   27SAPC   C24 3576   4.269   1.610   7.272 -0.2431  0.4340  0.2834
   27SAPC   H4R 3577   4.331   1.533   7.323 -1.0614  0.9716  2.1867
   27SAPC   H4S 3578   4.194   1.644   7.347  0.2824  1.0623  0.5295
   27SAPC   C25 3579   4.366   1.719   7.234 -0.5476  0.2211  0.2186
   27SAPC   H5R 3580   4.449   1.682   7.172  1.6909 -1.6152  3.9331
   27SAPC   C26 3581   4.363   1.845   7.281  0.1408 -0.3229  0.3115
   27SAPC   H6R 3582   4.453   1.902   7.254  0.2620 -0.6423  0.0255
   27SAPC   C27 3583   4.277   1.921   7.389 -0.4713  0.3787 -0.2853
   27SAPC   H7R 3584   4.340   2.009   7.415  1.4837 -0.1693 -2.7836
   27SAPC   H7S 3585   4.268   1.857   7.479 -0.3431 -1.0502 -1.2409
   27SAPC   C28 3586   4.137   1.966   7.354  0.1302 -0.1918  0.2952
   27SAPC   H8R 3587   4.124   2.003   7.251  3.2931  0.0510 -0.1068
   27SAPC   C29 3588   4.028   1.968   7.433 -0.7403  0.6124  0.2641
   27SAPC   H9R 3589   3.937   2.012   7.389 -0.3263  2.8701  1.5312
   27SAPC  C210 3590   4.021   1.904   7.574  0.4373  0.3513 -0.0334
   27SAPC  H10R 3591   4.118   1.928   7.623  0.9791  0.3616 -1.0919
   27SAPC  H10S 3592   4.031   1.794   7.581 -2.3177  0.0525  0.2505
   27SAPC  C211 3593   3.896   1.938   7.658 -0.3326  0.4469  0.2032
   27SAPC  H11R 3594   3.804   1.895   7.616  0.2124 -2.8477  2.0552
   27SAPC  C212 3595   3.877   2.018   7.766  0.1117 -0.5833 -0.1252
   27SAPC  H12R 3596   3.779   2.016   7.815  1.2175 -1.0757  2.2120
   27SAPC  C213 3597   3.983   2.102   7.837  0.1695  0.4880  0.1904
   27SAPC  H13R 3598   4.015   2.183   7.768 -2.7038  0.7775 -0.9408
   27SAPC  H13S 3599   4.077   2.047   7.858 -0.5780 -0.4714  1.0960
   27SAPC  C214 3600   3.924   2.162   7.964  0.4087 -0.8445  0.1309
   27SAPC  H14R 3601   3.886   2.265   7.950  1.3258 -0.5036  0.0919
   27SAPC  C215 3602   3.921   2.111   8.087  0.3359 -0.5338  0.0236
   27SAPC  H15R 3603   3.882   2.177   8.167  2.3684  3.1997 -1.8012
   27SAPC  C216 3604   3.989   1.984   8.142  0.1814  0.3950  0.8522
   27SAPC  H16R 3605   4.060   1.940   8.068  0.5533  0.0058  1.4300
   27SAPC  H16S 3606   3.918   1.899   8.150  0.6995 -0.1040  0.3109
   27SAPC  C217 3607   4.049   1.992   8.280 -0.6600 -0.2548 -0.5164
   27SAPC  H17R 3608   4.113   2.081   8.293 -0.8921 -0.4361  2.7088
   27SAPC  H17S 3609   4.117   1.905   8.293  1.6046  1.4200 -0.7016
   27SAPC  C218 3610   3.950   1.994   8.399 -0.4107  0.4036  0.2320
   27SAPC  H18R 3611   3.902   1.894   8.395  1.8035 -0.7960  1.6874
   27SAPC  H18S 3612   3.870   2.067   8.374  1.1254  2.6446  1.4844
   27SAPC  C219 3613   4.028   2.026   8.531 -0.0570 -0.2636 -0.2605
   27SAPC  H19R 3614   4.081   2.122   8.515 -1.8210  1.1876  2.0594
   27SAPC  H19S 3615   4.114   1.956   8.536  0.5545  0.2017 -2.8496
   27SAPC  C220 3616   3.935   2.026   8.662 -0.3201  0.3325  0.4887
   27SAPC  H20R 3617   3.999   2.044   8.751  0.2315 -0.2605  0.2131
   27SAPC  H20S 3618   3.889   1.926   8.680 -1.4811  0.5370 -1.0583
   27SAPC  H20T 3619   3.874   2.118   8.647  2.7437  2.2280 -1.5569
   27SAPC   C33 3620   4.268   2.278   7.034  0.3705 -0.8849  0.6886
   27SAPC   H3X 3621   4.160   2.280   7.059  0.0588  0.3968 -0.6350
   27SAPC   H3Y 3622   4.269   2.337   6.940  3.5841  1.3739  1.9571
   27SAPC   C34 3623   4.339   2.358   7.151  0.3154 -0.2716 -0.0503
   27SAPC   H4X 3624   4.296   2.460   7.136  0.7553  0.0752  0.9243
   27SAPC   H4Y 3625   4.448   2.376   7.135  0.2960 -0.4298 -0.3785
   27SAPC   C35 3626   4.310   2.296   7.292 -0.5661 -0.1522 -0.6501
   27SAPC   H5X 3627   4.362   2.198   7.299 -3.2476 -1.6954 -1.1940
   27SAPC   H5Y 3628   4.205   2.265   7.309 -0.5264 -1.5813 -2.6608
   27SAPC   C36 3629   4.340   2.400   7.402 -0.2551  0.2566  0.1322
   27SAPC   H6X 3630   4.257   2.472   7.390 -1.0589 -0.5637  0.6051
   27SAPC   H6Y 3631   4.438   2.450   7.388 -0.1287  0.1105  0.4849
   27SAPC   C37 3632   4.329   2.339   7.543  0.3090  0.9446  0.2590
   27SAPC   H7X 3633   4.413   2.278   7.582 -0.8257  0.4288  2.0242
   27SAPC   H7Y 3634   4.235   2.279   7.541 -0.3483  1.9534 -1.8014
   27SAPC   C38 3635   4.306   2.455   7.634 -0.0960  0.1418 -0.1314
   27SAPC   H8X 3636   4.211   2.507   7.607 -0.9046 -1.1002  0.2529
   27SAPC   H8Y 3637   4.386   2.531   7.641  0.3951 -0.5099  2.1812
   27SAPC   C39 3638   4.280   2.406   7.773  0.3192 -0.9632 -0.7117
   27SAPC   H9X 3639   4.373   2.361   7.815  0.6506  1.4413  1.3698
   27SAPC   H9Y 3640   4.209   2.321   7.778 -0.4559 -0.2582  2.4237
   27SAPC  C310 3641   4.218   2.515   7.859  0.0580 -0.5383  0.5298
   27SAPC  H10X 3642   4.115   2.528   7.820  0.1980 -1.8524 -0.3476
   27SAPC  H10Y 3643   4.274   2.611   7.862  1.3949 -1.3164  1.3631
   27SAPC  C311 3644   4.211   2.465   8.004 -0.5165  0.1467 -0.4524
   27SAPC  H11X 3645   4.159   2.367   7.994 -0.2354  0.0057 -0.5325
   27SAPC  H11Y 3646   4.142   2.523   8.069  0.6611  0.8983  0.1719
   27SAPC  C312 3647   4.343   2.447   8.086 -0.1183 -0.4580 -0.3232
   27SAPC  H12X 3648   4.419   2.517   8.044 -0.5058  1.2413  1.6513
   27SAPC  H12Y 3649   4.375   2.343   8.064 -0.9249 -0.4558 -1.6119
   27SAPC  C313 3650   4.323   2.472   8.229  0.1821 -0.1588 -0.3439
   27SAPC  H13X 3651   4.224   2.434   8.260  0.4515 -0.0494  0.6913
   27SAPC  H13Y 3652   4.337   2.582   8.239 -0.1383 -0.2688  1.7180
   27SAPC  C314 3653   4.425   2.394   8.315 -0.6264  0.2709  0.1859
   27SAPC  H14X 3654   4.529   2.420   8.284 -0.4063 -2.1164 -1.3327
   27SAPC  H14Y 3655   4.404   2.285   8.311 -2.3875  0.6009 -0.3408
   27SAPC  C315 3656   4.408   2.433   8.460  0.7380 -0.0097  0.0782
   27SAPC  H15X 3657   4.299   2.429   8.479  0.8568 -2.0706  0.5088
   27SAPC  H15Y 3658   4.434   2.541   8.465 -2.6068  1.0936 -2.6227
   27SAPC  C316 3659   4.491   2.355   8.557  0.7481 -0.1484  0.3719
   27SAPC  H16X 3660   4.493   2.406   8.656 -1.6176  3.7043 -1.3101
   27SAPC  H16Y 3661   4.595   2.347   8.519  1.7945  2.8925  2.2445
   27SAPC  C317 3662   4.441   2.214   8.571 -0.8418 -0.2187  0.9052
   27SAPC  H17X 3663   4.530   2.152   8.593 -0.2803  0.3705  0.3175
   27SAPC  H17Y 3664   4.406   2.174   8.474  0.8174  2.4788 -0.9439
   27SAPC  C318 3665   4.337   2.211   8.690  0.3339 -0.2088 -0.0912
   27SAPC  H18X 3666   4.306   2.107   8.712 -0.6919  0.0661 -0.1874
   27SAPC  H18Y 3667   4.244   2.267   8.668  0.4359  0.3751  0.8827
   27SAPC  H18Z 3668   4.372   2.255   8.786 -0.0525  0.9702 -0.4740
   28SAPC     N 3669   5.118   0.094   6.115 -0.3840 -0.5569  0.1344
   28SAPC   C12 3670   5.263   0.082   6.167 -0.3270  0.1383 -0.2846
   28SAPC  H12A 3671   5.258   0.066   6.274  2.1389  1.0847  0.0609
   28SAPC  H12B 3672   5.309   0.180   6.159  1.1125 -0.5143 -0.4515
   28SAPC   C13 3673   5.050  -0.034   6.133 -0.6504 -0.3130  0.2429
   28SAPC  H13A 3674   4.960  -0.047   6.075 -0.6331  2.7183 -0.6336
   28SAPC  H13B 3675   5.107  -0.120   6.102  2.1072 -0.8130  5.5475
   28SAPC  H13C 3676   5.031  -0.059   6.236  0.2630  0.9588  0.7557
   28SAPC   C14 3677   5.029   0.200   6.191  0.1385  0.6729 -0.1743
   28SAPC  H14A 3678   5.077   0.296   6.178 -2.3468  1.7665 -2.1618
   28SAPC  H14B 3679   4.933   0.210   6.144  0.5193 -1.0745 -1.4527
   28SAPC  H14C 3680   5.018   0.176   6.295  0.7895 -0.6244 -0.3835
   28SAPC   C15 3681   5.115   0.130   5.971 -0.1834  0.1547  0.1852
   28SAPC  H15A 3682   5.170   0.221   5.954 -0.2816  0.1405 -0.2365
   28SAPC  H15B 3683   5.176   0.053   5.926  0.2946  0.0015  1.0868
   28SAPC  H15C 3684   5.010   0.133   5.945 -0.9049  2.4221  2.9408
   28SAPC   C11 3685   5.355  -0.030   6.120  0.0134  0.5312  0.2518
   28SAPC  H11A 3686   5.460  -0.012   6.151  0.0981  0.8709 -0.2301
   28SAPC  H11B 3687   5.355  -0.032   6.009  2.3222 -2.4347  0.1749
   28SAPC     P 3688   5.363  -0.225   6.303 -0.0918  0.0087 -0.1323
   28SAPC   O13 3689   5.250  -0.281   6.381  0.1141  0.1639 -0.0284
   28SAPC   O14 3690   5.470  -0.317   6.268 -0.3556 -0.4958 -0.0546
   28SAPC   O12 3691   5.314  -0.157   6.175  0.7193 -0.2000 -0.1581
   28SAPC   O11 3692   5.419  -0.106   6.383 -0.1573 -0.3661  0.2867
   28SAPC    C1 3693   5.563  -0.088   6.411 -0.4988 -0.0987  0.1157
   28SAPC    HA 3694   5.618  -0.150   6.337  0.3137 -0.9106  1.3611
   28SAPC    HB 3695   5.588   0.020   6.407  1.9431 -0.6379 -1.4835
   28SAPC    C2 3696   5.593  -0.144   6.552 -0.0046 -0.4107  0.3171
   28SAPC    HS 3697   5.602  -0.254   6.546 -0.3010 -0.3844 -0.8814
   28SAPC   O21 3698   5.499  -0.101   6.654 -0.1135  0.3550 -0.0724
   28SAPC   C21 3699   5.459  -0.200   6.737 -0.5051 -0.3849  0.5789
   28SAPC   O22 3700   5.491  -0.312   6.723  0.4866 -0.2481 -0.0415
   28SAPC   C22 3701   5.376  -0.133   6.844  0.1295  0.2277 -0.2649
   28SAPC   H2R 3702   5.430  -0.055   6.904 -1.7511  0.6937  0.9128
   28SAPC   H2S 3703   5.291  -0.081   6.794 -0.6843 -0.6813  0.1402
   28SAPC    C3 3704   5.734  -0.094   6.592  0.0811 -0.0352 -0.8826
   28SAPC    HX 3705   5.732   0.012   6.559  0.3047 -1.0570 -4.7417
   28SAPC    HY 3706   5.811  -0.137   6.524 -1.6429  0.4320 -3.2970
   28SAPC   O31 3707   5.757  -0.125   6.730  0.5996  0.3628  0.1901
   28SAPC   C31 3708   5.864  -0.067   6.774  0.1733 -0.6083 -0.0395
   28SAPC   O32 3709   5.939   0.005   6.711  0.7126 -0.6006 -0.0874
   28SAPC   C32 3710   5.896  -0.103   6.920  0.4276  0.7703  0.6414
   28SAPC   H2X 3711   6.000  -0.081   6.952  0.1117  0.0881  2.1899
   28SAPC   H2Y 3712   5.881  -0.213   6.928 -1.2503  0.8705 -0.5311
   28SAPC   C23 3713   5.338  -0.235   6.956 -0.0929  0.8175  0.1922
   28SAPC   H3R 3714   5.321  -0.185   7.054 -0.6703 -1.3212  1.2330
   28SAPC   H3S 3715   5.414  -0.316   6.953  0.0641  0.9406 -3.4132
   28SAPC   C24 3716   5.194  -0.293   6.929  0.9231 -0.3440  0.3615
   28SAPC   H4R 3717   5.164  -0.353   7.017 -2.5195 -1.1222 -1.1855
   28SAPC   H4S 3718   5.123  -0.208   6.931  1.3034 -0.0247  0.5436
   28SAPC   C25 3719   5.195  -0.371   6.806  1.1346  0.1468  0.1541
   28SAPC   H5R 3720   5.290  -0.423   6.785  1.1147  0.0721  0.2456
   28SAPC   C26 3721   5.093  -0.378   6.724  0.8388 -0.3915 -0.2679
   28SAPC   H6R 3722   5.104  -0.439   6.633 -0.7105 -0.5655 -0.3619
   28SAPC   C27 3723   4.962  -0.314   6.757 -0.2751 -0.2288 -0.5772
   28SAPC   H7R 3724   4.965  -0.204   6.744 -1.4588 -0.1957 -0.6799
   28SAPC   H7S 3725   4.946  -0.330   6.866 -4.0509  0.1995 -0.9236
   28SAPC   C28 3726   4.847  -0.374   6.676 -0.5873 -0.1958  0.5020
   28SAPC   H8R 3727   4.877  -0.412   6.577  0.7991  0.4583  0.6423
   28SAPC   C29 3728   4.723  -0.378   6.722  0.5458  0.3960  0.1896
   28SAPC   H9R 3729   4.657  -0.448   6.668  3.8179 -2.6648 -0.1886
   28SAPC  C210 3730   4.677  -0.339   6.862 -0.0059  0.1539  0.2196
   28SAPC  H10R 3731   4.737  -0.255   6.904 -0.3829  0.4166  0.2300
   28SAPC  H10S 3732   4.697  -0.432   6.919  0.6220  0.0620 -0.1377
   28SAPC  C211 3733   4.533  -0.295   6.868  0.8155  0.4991 -0.4429
   28SAPC  H11R 3734   4.463  -0.330   6.791  2.9641 -0.6424 -1.9935
   28SAPC  C212 3735   4.476  -0.237   6.977 -0.1007 -0.1893  0.4071
   28SAPC  H12R 3736   4.374  -0.199   6.967  0.3719  1.2337  0.7577
   28SAPC  C213 3737   4.552  -0.185   7.099 -0.0967  0.2909 -0.0763
   28SAPC  H13R 3738   4.660  -0.173   7.077  0.0290 -2.0551 -1.0308
   28SAPC  H13S 3739   4.555  -0.266   7.175  0.2674  0.7531  0.4038
   28SAPC  C214 3740   4.510  -0.059   7.162  0.0322 -0.2553 -0.2897
   28SAPC  H14R 3741   4.435  -0.003   7.103 -0.2609  1.0485  1.2627
   28SAPC  C215 3742   4.566  -0.006   7.271 -0.7064  0.1463 -0.7014
   28SAPC  H15R 3743   4.521   0.089   7.304 -0.3246  0.9426 -2.3654
   28SAPC  C216 3744   4.690  -0.056   7.349  0.0038 -0.0933 -0.2631
   28SAPC  H16R 3745   4.694  -0.167   7.364  3.6567 -0.0089  0.2927
   28SAPC  H16S 3746   4.691  -0.002   7.446 -1.8627 -1.8393  0.8054
   28SAPC  C217 3747   4.821  -0.024   7.281 -0.3132  0.0090  0.4763
   28SAPC  H17R 3748   4.833   0.086   7.285 -0.2934  0.2324 -2.8224
   28SAPC  H17S 3749   4.809  -0.049   7.173 -0.2477 -1.2228  0.7386
   28SAPC  C218 3750   4.942  -0.109   7.330 -0.4221  0.2350  0.0336
   28SAPC  H18R 3751   4.920  -0.203   7.276  0.1602 -0.0135  0.2203
   28SAPC  H18S 3752   4.937  -0.130   7.439 -0.1086 -0.7347 -0.1315
   28SAPC  C219 3753   5.077  -0.036   7.302  0.1067  0.1944 -0.2277
   28SAPC  H19R 3754   5.060   0.064   7.346 -3.1349 -0.7157  0.9021
   28SAPC  H19S 3755   5.079   0.001   7.197 -0.0882  1.2476  0.1235
   28SAPC  C220 3756   5.195  -0.121   7.353 -0.1350  0.5998  0.4933
   28SAPC  H20R 3757   5.292  -0.072   7.333  0.7129  0.9746  4.5703
   28SAPC  H20S 3758   5.189  -0.226   7.317 -0.2608  0.2807  1.3989
   28SAPC  H20T 3759   5.186  -0.141   7.462  2.2698 -1.3792  0.4087
   28SAPC   C33 3760   5.798  -0.043   7.028  0.5579 -0.1531  0.2440
   28SAPC   H3X 3761   5.689  -0.055   7.015  0.6273  0.1231 -0.6662
   28SAPC   H3Y 3762   5.811   0.068   7.027  1.4023 -0.2450 -0.3828
   28SAPC   C34 3763   5.804  -0.113   7.170  0.6572 -0.0615  0.0304
   28SAPC   H4X 3764   5.909  -0.099   7.204  1.0943 -1.5345 -0.6184
   28SAPC   H4Y 3765   5.788  -0.222   7.159  0.9564 -0.1092  0.0532
   28SAPC   C35 3766   5.690  -0.061   7.268 -0.1721 -0.1654 -0.4776
   28SAPC   H5X 3767   5.589  -0.074   7.223 -1.1894  1.6757  1.1192
   28SAPC   H5Y 3768   5.691   0.047   7.293 -2.1392 -0.1110 -0.4471
   28SAPC   C36 3769   5.692  -0.144   7.400 -0.0443  0.3824 -0.5288
   28SAPC   H6X 3770   5.678  -0.249   7.368  0.1125  0.7902 -1.9979
   28SAPC   H6Y 3771   5.595  -0.118   7.449 -0.5861 -1.2403 -0.6852
   28SAPC   C37 3772   5.814  -0.134   7.494 -0.0195 -0.2262 -0.6433
   28SAPC   H7X 3773   5.857  -0.032   7.497  0.5948 -0.4967  1.5390
   28SAPC   H7Y 3774   5.895  -0.191   7.443  2.3476  2.7694 -0.5595
   28SAPC   C38 3775   5.788  -0.194   7.636 -0.7806  0.0626 -0.4896
   28SAPC   H8X 3776   5.771  -0.303   7.629  4.1681 -0.9327 -0.5108
   28SAPC   H8Y 3777   5.711  -0.139   7.694  1.2905  2.9546 -0.2630
   28SAPC   C39 3778   5.915  -0.171   7.726  0.4531 -0.0013  1.2023
   28SAPC   H9X 3779   5.939  -0.064   7.744 -1.3740  0.3712  1.6049
   28SAPC   H9Y 3780   6.000  -0.221   7.676 -0.0654 -0.4059  0.7073
   28SAPC  C310 3781   5.883  -0.233   7.861 -0.5402  0.0929  0.2615
   28SAPC  H10X 3782   5.867  -0.341   7.840  0.7658 -0.4143  1.6857
   28SAPC  H10Y 3783   5.796  -0.173   7.894 -1.0563  0.3518 -1.4490
   28SAPC  C311 3784   6.002  -0.236   7.968  0.5128 -0.4747 -0.3783
   28SAPC  H11X 3785   6.017  -0.132   8.005 -1.2177 -0.1127 -0.6201
   28SAPC  H11Y 3786   6.091  -0.274   7.913 -0.3260 -0.3330 -1.8854
   28SAPC  C312 3787   5.948  -0.319   8.085  0.2398 -0.2930  0.2161
   28SAPC  H12X 3788   5.840  -0.301   8.105  0.8272 -0.1216  4.1923
   28SAPC  H12Y 3789   5.997  -0.272   8.173  1.1887  0.1568 -0.5363
   28SAPC  C313 3790   5.963  -0.472   8.083  0.5295 -0.1183  0.6391
   28SAPC  H13X 3791   5.920  -0.516   7.991  0.8212  0.4494  0.2307
   28SAPC  H13Y 3792   5.912  -0.513   8.173  1.9019 -0.0439  1.4756
   28SAPC  C314 3793   6.106  -0.521   8.087 -0.0753 -0.2431  0.0566
   28SAPC  H14X 3794   6.159  -0.462   8.008 -0.9740 -0.1179 -0.4603
   28SAPC  H14Y 3795   6.110  -0.628   8.059  2.1883  0.0526 -1.0417
   28SAPC  C315 3796   6.163  -0.518   8.235 -0.0502 -0.2719 -0.2147
   28SAPC  H15X 3797   6.081  -0.547   8.304 -0.8064  3.2509  0.5848
   28SAPC  H15Y 3798   6.187  -0.411   8.250 -0.6944 -0.1720  0.1574
   28SAPC  C316 3799   6.280  -0.621   8.251 -0.0010 -0.5655  0.2346
   28SAPC  H16X 3800   6.355  -0.590   8.175 -0.0752 -0.8956  0.0268
   28SAPC  H16Y 3801   6.252  -0.726   8.227  1.0535 -0.5916 -1.0193
   28SAPC  C317 3802   6.357  -0.619   8.378 -0.1673 -0.4460 -0.0070
   28SAPC  H17X 3803   6.281  -0.625   8.459 -0.5004  2.2706 -0.0469
   28SAPC  H17Y 3804   6.400  -0.519   8.402  0.8558 -0.7361 -0.5605
   28SAPC  C318 3805   6.465  -0.728   8.391 -0.3351  0.8907 -0.3418
   28SAPC  H18X 3806   6.429  -0.830   8.368  2.0358 -0.8775  2.8498
   28SAPC  H18Y 3807   6.517  -0.713   8.489 -0.2484  1.5854 -0.4854
   28SAPC  H18Z 3808   6.543  -0.713   8.313  0.8569 -1.4891  0.3076
   29SAPC     N 3809   1.427   4.506   6.248  0.1625 -0.5478 -0.2034
   29SAPC   C12 3810   1.524   4.426   6.334  0.2736 -0.5123  0.3283
   29SAPC  H12A 3811   1.564   4.488   6.413  0.4167  0.6367 -0.6151
   29SAPC  H12B 3812   1.610   4.387   6.280  1.0854  2.1022 -0.4287
   29SAPC   C13 3813   1.487   4.611   6.173 -0.1723 -0.6106 -0.3617
   29SAPC  H13A 3814   1.549   4.571   6.094  2.2786  1.2826  0.4637
   29SAPC  H13B 3815   1.412   4.671   6.125 -0.1672 -1.1313 -1.0324
   29SAPC  H13C 3816   1.550   4.677   6.232 -0.0784 -1.2265  0.2380
   29SAPC   C14 3817   1.353   4.420   6.150 -0.1337  0.6115 -0.2661
   29SAPC  H14A 3818   1.333   4.469   6.056  1.0902 -0.1107 -0.9297
   29SAPC  H14B 3819   1.412   4.333   6.127  0.4115  1.0333 -0.4789
   29SAPC  H14C 3820   1.259   4.379   6.184 -0.4534  0.8198 -0.8919
   29SAPC   C15 3821   1.322   4.559   6.337 -0.4376 -0.4305  0.5432
   29SAPC  H15A 3822   1.249   4.613   6.278 -1.1415 -0.3326  1.4842
   29SAPC  H15B 3823   1.265   4.488   6.396  0.7721 -0.7226  1.3822
   29SAPC  H15C 3824   1.354   4.637   6.404  0.1890 -0.5327  0.3701
   29SAPC   C11 3825   1.466   4.304   6.399  0.0471  0.5636 -0.2495
   29SAPC  H11A 3826   1.432   4.231   6.323 -0.8129  1.3427 -0.6274
   29SAPC  H11B 3827   1.379   4.327   6.464  1.6745  1.6516  1.6807
   29SAPC     P 3828   1.644   4.126   6.472 -0.1027  0.1256 -0.0485
   29SAPC   O13 3829   1.633   4.077   6.336 -0.2772 -0.7298 -0.5782
   29SAPC   O14 3830   1.780   4.138   6.520 -0.3145 -0.5944 -0.0633
   29SAPC   O12 3831   1.578   4.266   6.479  0.0652  0.1820 -0.2213
   29SAPC   O11 3832   1.569   4.027   6.574  0.1399 -0.0258 -0.1776
   29SAPC    C1 3833   1.467   4.067   6.656  0.3757 -0.1381  0.2543
   29SAPC    HA 3834   1.402   4.146   6.613 -0.1824 -0.4653  0.4806
   29SAPC    HB 3835   1.393   3.985   6.668  1.2556 -0.9770  0.0164
   29SAPC    C2 3836   1.514   4.120   6.792 -0.4473 -1.0658  0.0135
   29SAPC    HS 3837   1.424   4.125   6.858 -1.3927  1.4068 -1.3288
   29SAPC   O21 3838   1.574   4.252   6.774 -0.4551  0.5133  0.2619
   29SAPC   C21 3839   1.487   4.347   6.772 -0.6152 -0.3150  0.2406
   29SAPC   O22 3840   1.369   4.336   6.796 -0.3697 -0.1933 -0.4294
   29SAPC   C22 3841   1.548   4.483   6.730 -0.6164  0.6551 -0.6997
   29SAPC   H2R 3842   1.593   4.476   6.629  2.0389 -0.8669  0.4839
   29SAPC   H2S 3843   1.477   4.569   6.734  0.1271  1.2462  2.0122
   29SAPC    C3 3844   1.607   4.019   6.852 -0.4994 -0.0673 -0.3030
   29SAPC    HX 3845   1.697   4.023   6.787  0.2433 -2.3833  0.4848
   29SAPC    HY 3846   1.577   3.913   6.839  2.1528 -0.9674  0.3301
   29SAPC   O31 3847   1.656   4.043   6.984  0.4636 -0.9831  0.2395
   29SAPC   C31 3848   1.559   4.037   7.079  0.5405 -0.9062  0.0239
   29SAPC   O32 3849   1.453   3.988   7.060 -0.0773  0.4418  0.1399
   29SAPC   C32 3850   1.607   4.122   7.194 -0.2157 -0.4341  0.3966
   29SAPC   H2X 3851   1.559   4.221   7.178  0.3373  0.7805  4.7161
   29SAPC   H2Y 3852   1.717   4.131   7.207 -0.1845 -0.4888  0.1663
   29SAPC   C23 3853   1.662   4.532   6.823 -0.3806  0.3315 -0.5952
   29SAPC   H3R 3854   1.684   4.628   6.772 -4.0093  0.6250 -1.8964
   29SAPC   H3S 3855   1.738   4.453   6.805 -0.3040  0.3208 -0.2250
   29SAPC   C24 3856   1.618   4.547   6.968 -0.5951  0.1566 -0.5626
   29SAPC   H4R 3857   1.655   4.455   7.017  0.6992  0.5618 -0.7614
   29SAPC   H4S 3858   1.507   4.556   6.975 -0.4935  0.4260  0.9206
   29SAPC   C25 3859   1.683   4.662   7.040 -0.1754 -0.7419  0.8595
   29SAPC   H5R 3860   1.715   4.745   6.975 -0.0680  0.0340  1.8609
   29SAPC   C26 3861   1.701   4.669   7.171  0.1066  0.4062  0.1023
   29SAPC   H6R 3862   1.753   4.756   7.213  1.3592  0.4832 -1.4898
   29SAPC   C27 3863   1.666   4.566   7.274  0.6916 -0.0948 -0.0505
   29SAPC   H7R 3864   1.754   4.512   7.314  0.8304  0.1510 -0.0199
   29SAPC   H7S 3865   1.600   4.494   7.221  0.4971 -0.4764  0.6874
   29SAPC   C28 3866   1.578   4.633   7.376  0.5031 -0.3524 -0.4361
   29SAPC   H8R 3867   1.476   4.667   7.351  0.2720  0.8908  1.8879
   29SAPC   C29 3868   1.602   4.649   7.507  0.0473 -0.4954  0.4773
   29SAPC   H9R 3869   1.522   4.706   7.557 -3.3349 -2.7847 -1.9065
   29SAPC  C210 3870   1.723   4.608   7.587 -0.6014  0.1860  0.0167
   29SAPC  H10R 3871   1.788   4.697   7.598 -1.8108  1.0020  0.7975
   29SAPC  H10S 3872   1.783   4.537   7.526 -1.9756 -0.7598 -0.2784
   29SAPC  C211 3873   1.700   4.545   7.728 -0.0961 -0.0808 -0.0690
   29SAPC  H11R 3874   1.726   4.438   7.727  0.4530  0.0550 -0.4726
   29SAPC  C212 3875   1.649   4.602   7.838 -0.1138  0.1620  0.3453
   29SAPC  H12R 3876   1.642   4.540   7.929 -2.8949 -1.0292 -0.5684
   29SAPC  C213 3877   1.617   4.743   7.855 -0.4450 -0.1362 -0.2602
   29SAPC  H13R 3878   1.656   4.803   7.771 -2.0339  0.8900 -0.3048
   29SAPC  H13S 3879   1.665   4.776   7.950 -0.7326  0.5534 -0.3543
   29SAPC  C214 3880   1.467   4.764   7.868 -0.4074 -0.3501 -0.6362
   29SAPC  H14R 3881   1.411   4.766   7.774 -4.6645  0.7525  1.6423
   29SAPC  C215 3882   1.399   4.795   7.980  0.2896 -0.7319 -1.0943
   29SAPC  H15R 3883   1.295   4.826   7.965  0.3684  0.2022  0.1605
   29SAPC  C216 3884   1.456   4.820   8.118  0.1826 -0.3375  0.0674
   29SAPC  H16R 3885   1.438   4.928   8.140  2.2183 -0.1198  0.8845
   29SAPC  H16S 3886   1.567   4.815   8.122  0.2033  0.5408  0.9925
   29SAPC  C217 3887   1.421   4.745   8.243  1.1674 -0.9650  0.0776
   29SAPC  H17R 3888   1.315   4.756   8.275  0.2197  0.4255 -3.0771
   29SAPC  H17S 3889   1.485   4.793   8.320 -0.2974  0.4066  0.4884
   29SAPC  C218 3890   1.467   4.596   8.238  0.5375 -0.2152  0.4015
   29SAPC  H18R 3891   1.574   4.596   8.209 -0.2867 -1.5340 -3.1376
   29SAPC  H18S 3892   1.408   4.537   8.164  1.1355 -0.3755  0.0475
   29SAPC  C219 3893   1.446   4.522   8.375  0.0296  0.8629  0.1925
   29SAPC  H19R 3894   1.335   4.515   8.381  0.1332 -1.5299  0.6468
   29SAPC  H19S 3895   1.493   4.576   8.459  0.5879 -1.6853  1.6349
   29SAPC  C220 3896   1.491   4.373   8.370 -0.7224  0.2720  0.2722
   29SAPC  H20R 3897   1.425   4.307   8.310  1.3446 -2.7849  1.0804
   29SAPC  H20S 3898   1.503   4.332   8.473 -1.3020  1.8732  1.0145
   29SAPC  H20T 3899   1.595   4.375   8.329 -0.4820  3.2365  0.8069
   29SAPC   C33 3900   1.568   4.057   7.324 -0.0230  0.5402 -0.5813
   29SAPC   H3X 3901   1.609   3.954   7.328 -1.8071 -0.1651  2.4823
   29SAPC   H3Y 3902   1.458   4.048   7.334 -0.1124  0.3573 -1.6550
   29SAPC   C34 3903   1.623   4.131   7.442 -0.1641  0.0501  0.0822
   29SAPC   H4X 3904   1.572   4.228   7.457  0.7291  0.3380  1.3766
   29SAPC   H4Y 3905   1.729   4.156   7.424 -0.6946  2.1103 -0.3890
   29SAPC   C35 3906   1.608   4.051   7.573  0.0407 -0.1441  0.1861
   29SAPC   H5X 3907   1.681   3.968   7.574  1.7128  1.2522 -0.7410
   29SAPC   H5Y 3908   1.503   4.017   7.585  0.0707 -0.3356 -0.0884
   29SAPC   C36 3909   1.644   4.139   7.688  0.2165 -0.7882 -0.1006
   29SAPC   H6X 3910   1.580   4.230   7.692 -2.8129 -2.7310 -0.8052
   29SAPC   H6Y 3911   1.745   4.180   7.666 -0.6079  0.2581 -2.3582
   29SAPC   C37 3912   1.645   4.069   7.825  0.5637 -0.0546  1.0284
   29SAPC   H7X 3913   1.702   3.974   7.824 -0.2048 -0.5253  1.0541
   29SAPC   H7Y 3914   1.537   4.051   7.841  0.5883 -1.2569 -0.0356
   29SAPC   C38 3915   1.711   4.156   7.935 -0.3164 -0.6199 -0.3698
   29SAPC   H8X 3916   1.643   4.230   7.983  1.8070  0.9199  0.3845
   29SAPC   H8Y 3917   1.799   4.202   7.886  0.9870 -2.5290  0.0640
   29SAPC   C39 3918   1.770   4.055   8.050  0.0780 -0.0716 -0.2602
   29SAPC   H9X 3919   1.856   4.001   8.005 -0.4949  0.2821 -1.8670
   29SAPC   H9Y 3920   1.686   3.984   8.064 -0.0453  0.0794 -0.2229
   29SAPC  C310 3921   1.799   4.112   8.187  0.1438 -0.2161 -0.5350
   29SAPC  H10X 3922   1.792   4.029   8.261 -0.4349  0.0610 -0.2724
   29SAPC  H10Y 3923   1.732   4.194   8.222  0.3310 -0.1075 -0.4251
   29SAPC  C311 3924   1.948   4.166   8.197  0.0731 -0.2256  0.0547
   29SAPC  H11X 3925   1.958   4.258   8.135 -0.4534  0.4285  0.9154
   29SAPC  H11Y 3926   2.019   4.093   8.154 -1.5689 -1.9533  0.1487
   29SAPC  C312 3927   1.984   4.201   8.345 -0.0381  0.3651 -0.3850
   29SAPC  H12X 3928   1.988   4.108   8.407  3.3067  0.9134  0.4309
   29SAPC  H12Y 3929   1.917   4.278   8.389  1.6391  0.6141  1.9574
   29SAPC  C313 3930   2.126   4.262   8.355  0.9828  0.3241 -0.2518
   29SAPC  H13X 3931   2.152   4.345   8.287  0.1056  0.5817 -0.2786
   29SAPC  H13Y 3932   2.188   4.177   8.319 -0.8462 -0.8073 -0.8994
   29SAPC  C314 3933   2.156   4.305   8.500 -0.2289  0.1380  0.9784
   29SAPC  H14X 3934   2.143   4.214   8.564 -1.3872 -2.5300 -2.6768
   29SAPC  H14Y 3935   2.063   4.361   8.526 -2.2293 -1.4713 -2.0562
   29SAPC  C315 3936   2.287   4.373   8.517  0.3560  0.6374  0.3455
   29SAPC  H15X 3937   2.282   4.457   8.445 -1.6502 -0.1216 -0.4731
   29SAPC  H15Y 3938   2.375   4.309   8.494  2.2573  1.8529  3.4803
   29SAPC  C316 3939   2.311   4.446   8.648  0.0973  0.5773  0.2123
   29SAPC  H16X 3940   2.307   4.373   8.732 -0.2406  2.0349  1.5113
   29SAPC  H16Y 3941   2.236   4.526   8.664 -0.3238  0.8006 -2.3990
   29SAPC  C317 3942   2.448   4.520   8.653 -0.0062  0.2336 -0.0514
   29SAPC  H17X 3943   2.444   4.592   8.569 -4.2166 -1.0366 -1.2165
   29SAPC  H17Y 3944   2.533   4.450   8.640  0.5960  1.3924 -3.0522
   29SAPC  C318 3945   2.464   4.599   8.780 -0.1768  0.3709 -0.9288
   29SAPC  H18X 3946   2.395   4.685   8.787 -3.7792 -2.3565  0.0674
   29SAPC  H18Y 3947   2.573   4.620   8.795 -0.1697 -1.0601  1.6056
   29SAPC  H18Z 3948   2.458   4.530   8.867  2.0470  1.2374  0.0063
   30SAPC     N 3949   1.206   1.683   5.886  0.5881 -0.4509 -0.7023
   30SAPC   C12 3950   1.155   1.673   6.029 -0.2504 -0.2523 -0.3939
   30SAPC  H12A 3951   1.088   1.589   6.026 -0.2790 -0.3287  1.6153
   30SAPC  H12B 3952   1.095   1.757   6.059  0.7877 -0.8581  4.0359
   30SAPC   C13 3953   1.291   1.804   5.876 -0.2681  0.5050  0.5703
   30SAPC  H13A 3954   1.247   1.903   5.882  0.7925  0.9611  1.1784
   30SAPC  H13B 3955   1.354   1.797   5.964 -1.6391 -0.3416  1.5154
   30SAPC  H13C 3956   1.345   1.804   5.783 -0.9454 -1.9166  0.1054
   30SAPC   C14 3957   1.290   1.560   5.843  0.0085 -0.1107 -0.1827
   30SAPC  H14A 3958   1.233   1.469   5.847  0.3946 -0.2958  1.4334
   30SAPC  H14B 3959   1.326   1.568   5.741  2.3297  0.5207  0.6173
   30SAPC  H14C 3960   1.383   1.552   5.897  0.1614  1.0890 -0.2359
   30SAPC   C15 3961   1.089   1.718   5.794  1.1804 -0.1847  0.0088
   30SAPC  H15A 3962   1.017   1.770   5.855 -0.0676 -0.8156 -0.8721
   30SAPC  H15B 3963   1.111   1.779   5.708  1.6312 -0.3434  0.0079
   30SAPC  H15C 3964   1.037   1.630   5.758  0.6814 -0.1234  0.5644
   30SAPC   C11 3965   1.262   1.635   6.135  0.0064  0.1248  0.3629
   30SAPC  H11A 3966   1.319   1.547   6.097  0.0309  0.7806 -1.1588
   30SAPC  H11B 3967   1.204   1.592   6.220 -0.8736 -1.6006 -1.0529
   30SAPC     P 3968   1.291   1.860   6.247 -0.2162  0.0815 -0.4019
   30SAPC   O13 3969   1.408   1.945   6.270 -0.4847 -0.4131  0.0494
   30SAPC   O14 3970   1.165   1.914   6.197 -0.2039 -0.1136 -0.1061
   30SAPC   O12 3971   1.344   1.745   6.160 -0.2570  0.5811 -0.0724
   30SAPC   O11 3972   1.253   1.798   6.383 -0.4621 -0.0528  0.0333
   30SAPC    C1 3973   1.337   1.711   6.457  0.1006 -0.4566  0.0668
   30SAPC    HA 3974   1.275   1.624   6.484 -1.3002  0.9030  1.4212
   30SAPC    HB 3975   1.428   1.681   6.400 -0.1775  0.9040 -1.1834
   30SAPC    C2 3976   1.372   1.786   6.591  0.0868 -0.2133  0.5513
   30SAPC    HS 3977   1.428   1.877   6.561  0.1039  0.3070  2.0754
   30SAPC   O21 3978   1.455   1.696   6.667  0.1880 -0.3015 -0.0879
   30SAPC   C21 3979   1.562   1.744   6.729  0.0028 -0.1714  0.5520
   30SAPC   O22 3980   1.592   1.863   6.742  0.6283  0.1671 -0.1192
   30SAPC   C22 3981   1.647   1.634   6.783 -0.5850  0.3226 -0.1125
   30SAPC   H2R 3982   1.589   1.572   6.855 -3.9239  3.0776 -0.1464
   30SAPC   H2S 3983   1.672   1.567   6.698 -1.5693 -0.0855 -0.0882
   30SAPC    C3 3984   1.239   1.813   6.673 -0.2576  0.2872  0.0107
   30SAPC    HX 3985   1.179   1.720   6.669  0.7693 -0.3542 -1.5222
   30SAPC    HY 3986   1.183   1.892   6.618 -1.3187 -1.7395 -1.9918
   30SAPC   O31 3987   1.266   1.847   6.812  0.5814  0.4593 -0.1657
   30SAPC   C31 3988   1.258   1.970   6.849 -0.4607 -0.5008 -0.3659
   30SAPC   O32 3989   1.239   2.064   6.771  0.5980 -0.3554  0.8516
   30SAPC   C32 3990   1.273   1.988   6.998 -0.4464 -0.6633  0.1160
   30SAPC   H2X 3991   1.248   1.891   7.047 -1.4771 -0.2669  0.4030
   30SAPC   H2Y 3992   1.181   2.044   7.026 -0.4805 -1.1611  1.0298
   30SAPC   C23 3993   1.783   1.687   6.846  0.7678 -0.3143  0.3127
   30SAPC   H3R 3994   1.817   1.781   6.796 -0.3947 -0.8805 -1.6200
   30SAPC   H3S 3995   1.870   1.619   6.832  0.4324 -0.6562 -0.1028
   30SAPC   C24 3996   1.775   1.705   7.002  0.0232 -0.3119  0.3528
   30SAPC   H4R 3997   1.698   1.782   7.023  0.6882  0.7935 -1.1312
   30SAPC   H4S 3998   1.863   1.763   7.034  0.0979  0.3903 -1.0797
   30SAPC   C25 3999   1.752   1.581   7.091  0.1969 -0.4476 -0.3026
   30SAPC   H5R 4000   1.715   1.494   7.036 -0.8930  1.4915 -2.8587
   30SAPC   C26 4001   1.775   1.570   7.224  0.4957  1.1058  0.2171
   30SAPC   H6R 4002   1.746   1.469   7.257  3.0054 -0.3329 -1.5614
   30SAPC   C27 4003   1.819   1.668   7.328  0.1615 -0.9150 -0.2479
   30SAPC   H7R 4004   1.828   1.771   7.287 -1.5661  0.0213  1.5917
   30SAPC   H7S 4005   1.926   1.642   7.345  0.6457 -0.1618 -1.9205
   30SAPC   C28 4006   1.729   1.672   7.454  0.2561 -0.1376  0.9187
   30SAPC   H8R 4007   1.628   1.692   7.417  0.8200  1.3141  0.0573
   30SAPC   C29 4008   1.762   1.653   7.583  0.1560  0.2453  0.0118
   30SAPC   H9R 4009   1.693   1.678   7.666  1.6882 -3.8595  2.8706
   30SAPC  C210 4010   1.900   1.616   7.631  0.2756  0.5641 -0.8584
   30SAPC  H10R 4011   1.964   1.699   7.594 -4.5545  4.8283 -0.6704
   30SAPC  H10S 4012   1.935   1.518   7.592 -0.2164 -0.7740  1.8137
   30SAPC  C211 4013   1.918   1.616   7.782 -0.2773 -0.2294 -0.4973
   30SAPC  H11R 4014   1.828   1.622   7.845 -0.2235 -3.0209 -0.0542
   30SAPC  C212 4015   2.036   1.614   7.851 -0.3305  0.0399  0.3732
   30SAPC  H12R 4016   2.035   1.607   7.961  0.7787  0.5544  0.4276
   30SAPC  C213 4017   2.176   1.624   7.796 -0.1093  0.0635  0.4248
   30SAPC  H13R 4018   2.233   1.685   7.870  1.0410 -0.1029 -0.2992
   30SAPC  H13S 4019   2.178   1.682   7.701  1.0277 -1.6546 -0.6631
   30SAPC  C214 4020   2.242   1.485   7.794  0.0840  0.3408 -0.5275
   30SAPC  H14R 4021   2.277   1.452   7.892 -0.0474  0.3085 -0.4912
   30SAPC  C215 4022   2.273   1.419   7.683  0.7694  0.2724 -0.2130
   30SAPC  H15R 4023   2.325   1.323   7.691  1.3019  0.5015 -0.8646
   30SAPC  C216 4024   2.238   1.459   7.535 -0.4307  0.1504  0.0014
   30SAPC  H16R 4025   2.320   1.525   7.499 -0.7996  1.6109  1.6973
   30SAPC  H16S 4026   2.150   1.527   7.540  0.2612  0.9876  1.6747
   30SAPC  C217 4027   2.206   1.335   7.441 -0.1557 -0.2527  0.2245
   30SAPC  H17R 4028   2.147   1.365   7.352 -1.3745  0.6929  1.2930
   30SAPC  H17S 4029   2.136   1.264   7.492 -1.3034  1.2765  0.8727
   30SAPC  C218 4030   2.325   1.245   7.401 -0.0573  0.5186 -1.1067
   30SAPC  H18R 4031   2.413   1.239   7.468 -0.7821 -1.7672 -0.2748
   30SAPC  H18S 4032   2.358   1.282   7.301  0.9873  1.8924 -0.2918
   30SAPC  C219 4033   2.277   1.093   7.393 -0.3701 -0.1781  0.2689
   30SAPC  H19R 4034   2.192   1.092   7.322  0.2633 -0.4111 -0.5077
   30SAPC  H19S 4035   2.239   1.069   7.495  2.4167  1.4578  1.8348
   30SAPC  C220 4036   2.391   1.006   7.349 -0.1828 -0.3656  0.4659
   30SAPC  H20R 4037   2.416   1.019   7.242  0.6648 -0.7410  0.6106
   30SAPC  H20S 4038   2.366   0.898   7.354  2.5879 -1.0541  1.2211
   30SAPC  H20T 4039   2.482   1.030   7.408 -0.6822  1.0415  0.7146
   30SAPC   C33 4040   1.407   2.051   7.032 -1.0495 -0.6541  0.2739
   30SAPC   H3X 4041   1.418   2.148   6.980 -0.0841 -1.4487 -1.0815
   30SAPC   H3Y 4042   1.486   1.981   6.997  0.2635  0.6668  0.5158
   30SAPC   C34 4043   1.404   2.076   7.185 -0.0575 -0.0300 -0.3531
   30SAPC   H4X 4044   1.317   2.136   7.219 -0.2979 -0.3629 -0.3732
   30SAPC   H4Y 4045   1.498   2.132   7.207 -0.7179  0.4942  1.2148
   30SAPC   C35 4046   1.411   1.944   7.272  0.0727 -0.4178 -0.5869
   30SAPC   H5X 4047   1.509   1.897   7.250  0.7179  0.1376  0.9832
   30SAPC   H5Y 4048   1.343   1.864   7.237  2.2464 -2.5965 -0.0989
   30SAPC   C36 4049   1.382   1.971   7.418 -0.2508 -0.5200 -0.6164
   30SAPC   H6X 4050   1.284   2.023   7.419  1.4962  3.1400 -1.9739
   30SAPC   H6Y 4051   1.457   2.050   7.440  0.6269 -0.7750 -2.4563
   30SAPC   C37 4052   1.388   1.855   7.516  0.3763 -0.2990  0.8023
   30SAPC   H7X 4053   1.467   1.783   7.485  1.9789  2.1103 -1.1401
   30SAPC   H7Y 4054   1.296   1.793   7.515 -0.1894  0.5422 -0.1737
   30SAPC   C38 4055   1.423   1.909   7.661  0.1968  0.5467 -0.5782
   30SAPC   H8X 4056   1.344   1.981   7.692 -0.8820 -1.1778  0.8845
   30SAPC   H8Y 4057   1.516   1.968   7.673 -0.2258  1.4224 -1.4490
   30SAPC   C39 4058   1.411   1.795   7.765 -0.0319  0.8763  0.5754
   30SAPC   H9X 4059   1.459   1.701   7.730 -2.3848 -0.7617  1.4908
   30SAPC   H9Y 4060   1.304   1.767   7.762  0.7148 -2.2714 -1.3544
   30SAPC  C310 4061   1.466   1.830   7.903 -0.0358  0.1072 -0.4118
   30SAPC  H10X 4062   1.555   1.896   7.893  0.5503 -0.9625 -3.2214
   30SAPC  H10Y 4063   1.499   1.738   7.954  0.1102 -0.7136 -1.9385
   30SAPC  C311 4064   1.371   1.916   7.990  0.9193  0.1475  0.2576
   30SAPC  H11X 4065   1.304   1.981   7.930 -0.1269 -1.5678 -0.5388
   30SAPC  H11Y 4066   1.436   1.973   8.059 -2.0438  0.8767  2.6259
   30SAPC  C312 4067   1.274   1.831   8.079  0.5189 -0.3324 -0.1997
   30SAPC  H12X 4068   1.328   1.747   8.128  0.3438 -0.3367 -0.0126
   30SAPC  H12Y 4069   1.201   1.773   8.018 -2.0562  2.9822 -0.5389
   30SAPC  C313 4070   1.195   1.915   8.180  0.2404  0.7939 -0.1733
   30SAPC  H13X 4071   1.147   2.002   8.130  0.1998  2.4682  2.5543
   30SAPC  H13Y 4072   1.260   1.952   8.263  0.3953 -1.3160  0.6899
   30SAPC  C314 4073   1.088   1.838   8.245 -0.0416  0.0249  0.0681
   30SAPC  H14X 4074   1.127   1.751   8.302  0.2204 -0.1738 -0.4087
   30SAPC  H14Y 4075   1.033   1.788   8.162 -2.4264 -0.3345  1.7692
   30SAPC  C315 4076   0.992   1.915   8.335 -0.2320  0.4828 -0.1398
   30SAPC  H15X 4077   0.888   1.922   8.296 -0.3156  0.8990  0.1592
   30SAPC  H15Y 4078   1.018   2.020   8.357 -0.5053  0.8444 -1.4495
   30SAPC  C316 4079   0.969   1.832   8.464  0.1170 -0.9261  0.7608
   30SAPC  H16X 4080   0.980   1.724   8.442  0.8824 -0.4789 -1.2000
   30SAPC  H16Y 4081   0.867   1.854   8.502  0.6214 -0.9235  2.1639
   30SAPC  C317 4082   1.059   1.862   8.579 -0.2846 -0.3835  0.1781
   30SAPC  H17X 4083   1.059   1.971   8.605  0.0827 -0.5212  0.7916
   30SAPC  H17Y 4084   1.163   1.838   8.548  0.3124  2.1617 -0.0160
   30SAPC  C318 4085   1.014   1.783   8.706  0.1217 -0.7002 -0.6589
   30SAPC  H18X 4086   0.904   1.772   8.713 -0.0917  1.4534 -0.0459
   30SAPC  H18Y 4087   1.040   1.830   8.804 -1.8566 -1.7060  0.4094
   30SAPC  H18Z 4088   1.061   1.682   8.697  0.8797 -0.3381 -0.8208
   31SAPC     N 4089   0.007   3.278   6.170 -0.5739 -0.1454 -0.0541
   31SAPC   C12 4090   0.006   3.363   6.295  0.2889  0.0472 -0.1131
   31SAPC  H12A 4091  -0.007   3.298   6.380  0.3220  0.4856  0.2289
   31SAPC  H12B 4092  -0.077   3.428   6.272  0.0129 -0.6567 -1.1428
   31SAPC   C13 4093   0.102   3.162   6.180  0.4355  0.0773  0.3172
   31SAPC  H13A 4094   0.093   3.092   6.098 -0.0876  1.1687 -0.5749
   31SAPC  H13B 4095   0.205   3.188   6.196  1.2945 -0.5156 -3.4605
   31SAPC  H13C 4096   0.070   3.100   6.263  0.3888 -2.2405 -1.3176
   31SAPC   C14 4097  -0.126   3.238   6.118 -0.6932 -0.1201  0.3793
   31SAPC  H14A 4098  -0.114   3.179   6.029  2.8131 -1.9455  1.8895
   31SAPC  H14B 4099  -0.186   3.178   6.186 -1.2588  0.9912  0.8949
   31SAPC  H14C 4100  -0.191   3.324   6.108 -2.6959 -1.7489 -1.5605
   31SAPC   C15 4101   0.056   3.363   6.052 -0.4923 -0.2722 -0.1127
   31SAPC  H15A 4102   0.156   3.400   6.071 -0.7103 -0.1788  0.8943
   31SAPC  H15B 4103   0.062   3.312   5.957 -1.2169  0.5299 -0.6098
   31SAPC  H15C 4104  -0.011   3.445   6.034 -1.3945 -1.2617 -1.4587
   31SAPC   C11 4105   0.132   3.452   6.312  0.0206  0.0983 -0.2777
   31SAPC  H11A 4106   0.222   3.387   6.309 -0.0897 -0.0633 -0.1060
   31SAPC  H11B 4107   0.124   3.487   6.418  0.1861  0.8381 -0.5000
   31SAPC     P 4108   0.077   3.694   6.257  0.0093 -0.1503  0.1524
   31SAPC   O13 4109   0.116   3.795   6.154  0.1006 -0.2815 -0.3953
   31SAPC   O14 4110  -0.068   3.677   6.286  0.0251 -0.0726  0.3166
   31SAPC   O12 4111   0.148   3.561   6.224  0.8568 -0.4143 -0.0916
   31SAPC   O11 4112   0.138   3.733   6.401  0.4646 -0.0217 -0.4983
   31SAPC    C1 4113   0.280   3.752   6.416 -0.5682 -0.3736 -1.2320
   31SAPC    HA 4114   0.338   3.694   6.341 -0.5175 -2.1705  0.1311
   31SAPC    HB 4115   0.305   3.860   6.419  0.1311 -0.5540  1.0286
   31SAPC    C2 4116   0.339   3.698   6.557 -0.8549  0.7980 -0.3267
   31SAPC    HS 4117   0.330   3.587   6.558 -2.6326  0.9029  0.8704
   31SAPC   O21 4118   0.248   3.741   6.663 -0.3110  0.0457 -0.4021
   31SAPC   C21 4119   0.134   3.672   6.680  0.2246  0.4331 -0.0111
   31SAPC   O22 4120   0.100   3.561   6.639  0.0151  0.3546  0.3358
   31SAPC   C22 4121   0.056   3.750   6.784  0.3116  1.1823  0.7827
   31SAPC   H2R 4122   0.129   3.773   6.865  1.5895 -1.3331  0.4360
   31SAPC   H2S 4123   0.008   3.839   6.739 -3.8575 -0.4526  1.4816
   31SAPC    C3 4124   0.481   3.739   6.586  0.1812  0.1466 -0.0825
   31SAPC    HX 4125   0.477   3.846   6.614 -1.1566 -0.1515  0.9924
   31SAPC    HY 4126   0.549   3.733   6.499  0.3003  0.8559 -0.0481
   31SAPC   O31 4127   0.526   3.660   6.696 -0.1656 -0.0164  0.4802
   31SAPC   C31 4128   0.593   3.552   6.674 -0.1190  0.2045 -0.0908
   31SAPC   O32 4129   0.622   3.501   6.568  0.2964  0.2103 -0.0588
   31SAPC   C32 4130   0.629   3.492   6.808  0.0363  0.2630 -0.9604
   31SAPC   H2X 4131   0.715   3.541   6.857  0.2473 -0.7792 -0.2588
   31SAPC   H2Y 4132   0.655   3.385   6.792  0.8314  0.2199  0.4749
   31SAPC   C23 4133  -0.057   3.671   6.858 -0.1958  0.1463  0.2380
   31SAPC   H3R 4134  -0.112   3.610   6.784 -0.8140 -1.0101  1.6104
   31SAPC   H3S 4135  -0.129   3.752   6.886 -0.0678  0.2176  0.3647
   31SAPC   C24 4136  -0.005   3.590   6.977  0.2473 -0.1830 -0.3465
   31SAPC   H4R 4137   0.062   3.653   7.040 -0.3239 -1.5097  1.6825
   31SAPC   H4S 4138   0.054   3.507   6.933  0.3900 -0.2022 -0.1217
   31SAPC   C25 4139  -0.114   3.531   7.063  0.9762 -0.1378  0.2962
   31SAPC   H5R 4140  -0.170   3.449   7.017  0.5412  0.5531 -0.4200
   31SAPC   C26 4141  -0.133   3.567   7.192 -0.2365  0.1682  0.0035
   31SAPC   H6R 4142  -0.213   3.516   7.248 -0.2096 -0.2692 -0.3562
   31SAPC   C27 4143  -0.057   3.677   7.269  1.2029  0.2775 -0.0166
   31SAPC   H7R 4144   0.001   3.750   7.209  2.6101 -0.6459  0.1868
   31SAPC   H7S 4145   0.025   3.624   7.322  1.1815  0.0277 -0.2290
   31SAPC   C28 4146  -0.158   3.746   7.356  0.7436 -0.3847 -0.3714
   31SAPC   H8R 4147  -0.219   3.825   7.308 -0.7781 -1.2936 -0.0202
   31SAPC   C29 4148  -0.170   3.727   7.494 -0.0823  0.3440  0.6017
   31SAPC   H9R 4149  -0.235   3.799   7.546 -1.6216 -0.2890 -0.3853
   31SAPC  C210 4150  -0.089   3.640   7.584 -0.3600  0.3957 -0.6493
   31SAPC  H10R 4151  -0.108   3.670   7.689 -1.7951 -0.2148 -0.7054
   31SAPC  H10S 4152   0.015   3.679   7.581 -0.3753  0.5239  0.2135
   31SAPC  C211 4153  -0.116   3.494   7.564 -0.0128  0.1732 -0.0672
   31SAPC  H11R 4154  -0.059   3.445   7.484  0.3439 -0.7050  0.7146
   31SAPC  C212 4155  -0.203   3.412   7.622  0.0376  0.8068 -0.2939
   31SAPC  H12R 4156  -0.194   3.306   7.595  0.9573  0.5414  0.9841
   31SAPC  C213 4157  -0.302   3.456   7.730 -0.1421  0.9571 -0.5477
   31SAPC  H13R 4158  -0.404   3.461   7.686  0.1352  1.2475 -1.1681
   31SAPC  H13S 4159  -0.284   3.560   7.763 -1.3220  0.9868  0.0484
   31SAPC  C214 4160  -0.315   3.352   7.843 -0.4548 -0.1229  0.2744
   31SAPC  H14R 4161  -0.331   3.251   7.801 -2.2962  0.0282  0.5078
   31SAPC  C215 4162  -0.330   3.377   7.978  0.7247  0.2658 -0.4162
   31SAPC  H15R 4163  -0.343   3.293   8.048  1.1862 -0.8373 -1.6159
   31SAPC  C216 4164  -0.337   3.511   8.042  0.3692  0.0567 -0.1930
   31SAPC  H16R 4165  -0.263   3.583   8.002  0.9944 -0.1447  0.5780
   31SAPC  H16S 4166  -0.313   3.506   8.150  0.3354  1.6650 -0.0983
   31SAPC  C217 4167  -0.484   3.571   8.037 -0.3730 -0.1840  0.3730
   31SAPC  H17R 4168  -0.563   3.496   8.058  0.5939 -1.6851 -1.0656
   31SAPC  H17S 4169  -0.509   3.602   7.933 -1.0344  0.2441  0.6528
   31SAPC  C218 4170  -0.507   3.685   8.135 -0.4729 -0.0152  0.5106
   31SAPC  H18R 4171  -0.483   3.653   8.238 -1.6339  0.0568  0.8072
   31SAPC  H18S 4172  -0.614   3.712   8.141 -0.7427 -0.2237 -2.1185
   31SAPC  C219 4173  -0.417   3.814   8.108 -0.2158  0.2316  0.1084
   31SAPC  H19R 4174  -0.454   3.854   8.011 -0.5064 -1.6200 -0.5831
   31SAPC  H19S 4175  -0.313   3.779   8.089  0.1886 -0.1658  2.6856
   31SAPC  C220 4176  -0.421   3.919   8.215 -0.9201 -0.0455  0.5222
   31SAPC  H20R 4177  -0.523   3.963   8.206 -0.6318  1.2750  2.8493
   31SAPC  H20S 4178  -0.337   3.991   8.208 -1.6424  0.6302 -2.1049
   31SAPC  H20T 4179  -0.410   3.866   8.312 -1.8835  1.2674  1.3831
   31SAPC   C33 4180   0.512   3.482   6.913 -0.9026  0.4396 -0.4312
   31SAPC   H3X 4181   0.540   3.404   6.987 -1.7182 -0.7052 -1.3006
   31SAPC   H3Y 4182   0.417   3.437   6.876 -0.2520 -1.2355 -0.1478
   31SAPC   C34 4183   0.511   3.602   7.005  0.0504  0.3011 -0.1385
   31SAPC   H4X 4184   0.462   3.693   6.965  1.5731  1.3056  0.1617
   31SAPC   H4Y 4185   0.612   3.637   7.036 -0.0173  0.4424 -0.0741
   31SAPC   C35 4186   0.436   3.566   7.132  0.0765 -0.9586 -0.4021
   31SAPC   H5X 4187   0.499   3.487   7.178  1.7237  0.2998 -0.4049
   31SAPC   H5Y 4188   0.334   3.524   7.117 -0.3001  0.0316 -0.7327
   31SAPC   C36 4189   0.425   3.692   7.223  0.2390  0.1651 -0.4639
   31SAPC   H6X 4190   0.382   3.784   7.177 -1.3674 -0.1303  0.3665
   31SAPC   H6Y 4191   0.527   3.723   7.256 -0.6569  1.3294  1.3811
   31SAPC   C37 4192   0.344   3.661   7.345 -0.1078  0.1556 -0.2575
   31SAPC   H7X 4193   0.246   3.625   7.306 -0.7399  1.6737 -0.1333
   31SAPC   H7Y 4194   0.318   3.750   7.406 -0.0141 -2.0790  3.3885
   31SAPC   C38 4195   0.398   3.547   7.441 -0.0214  0.0780 -0.2746
   31SAPC   H8X 4196   0.505   3.568   7.465  0.1324 -0.7632 -0.1894
   31SAPC   H8Y 4197   0.394   3.450   7.387  0.1528 -0.6888  1.0421
   31SAPC   C39 4198   0.314   3.536   7.571  0.3707 -0.4099  0.4745
   31SAPC   H9X 4199   0.234   3.612   7.557  2.8587  2.3637  0.1377
   31SAPC   H9Y 4200   0.382   3.567   7.653 -0.5103  0.0978  1.0225
   31SAPC  C310 4201   0.246   3.401   7.599  0.0559 -0.2123 -1.5059
   31SAPC  H10X 4202   0.316   3.316   7.587  0.1248 -0.4461  0.1928
   31SAPC  H10Y 4203   0.160   3.384   7.531 -0.1824  0.0967 -1.2883
   31SAPC  C311 4204   0.210   3.409   7.746 -0.1448 -0.3045 -0.0419
   31SAPC  H11X 4205   0.140   3.494   7.759  0.3252  0.0235  0.3728
   31SAPC  H11Y 4206   0.304   3.428   7.803 -0.5750  1.4075  0.1456
   31SAPC  C312 4207   0.141   3.282   7.790  0.0497 -0.5411 -0.5775
   31SAPC  H12X 4208   0.207   3.201   7.753  1.7777  1.5383 -2.3367
   31SAPC  H12Y 4209   0.044   3.267   7.738  0.4794 -1.2680 -1.1850
   31SAPC  C313 4210   0.123   3.283   7.943  0.1306  0.7330 -0.2683
   31SAPC  H13X 4211   0.088   3.385   7.968 -1.9782 -0.0361  0.1551
   31SAPC  H13Y 4212   0.228   3.279   7.980  0.7585  0.1642 -2.0168
   31SAPC  C314 4213   0.043   3.172   7.991  0.0805  0.1699  0.1185
   31SAPC  H14X 4214   0.085   3.078   7.950  0.7085  0.3165  0.4035
   31SAPC  H14Y 4215  -0.064   3.186   7.964  0.2628 -0.3412 -0.8826
   31SAPC  C315 4216   0.052   3.162   8.147 -0.1604  0.6049 -0.5024
   31SAPC  H15X 4217   0.152   3.136   8.189 -0.3850 -1.7032 -1.2200
   31SAPC  H15Y 4218  -0.010   3.070   8.153 -1.8020  1.6773 -0.3486
   31SAPC  C316 4219  -0.007   3.279   8.217  0.1394  0.1546  0.2909
   31SAPC  H16X 4220  -0.102   3.312   8.170 -0.0540 -2.1287 -1.0683
   31SAPC  H16Y 4221   0.057   3.370   8.209 -0.6030  0.8299  1.6063
   31SAPC  C317 4222  -0.033   3.245   8.364  0.3065 -0.3103 -0.1303
   31SAPC  H17X 4223   0.064   3.218   8.409  0.6011  1.5415  0.4436
   31SAPC  H17Y 4224  -0.093   3.152   8.364 -2.8751  1.5444  1.6562
   31SAPC  C318 4225  -0.107   3.354   8.448  0.1978 -0.1338 -0.0833
   31SAPC  H18X 4226  -0.048   3.448   8.458 -0.8726  0.7264 -1.5436
   31SAPC  H18Y 4227  -0.125   3.314   8.551 -1.8205  0.0499 -0.3265
   31SAPC  H18Z 4228  -0.212   3.372   8.417  0.4046 -0.1909 -0.8379
   32SAPC     N 4229   6.767   2.875   5.664  0.2659  0.5215 -0.4917
   32SAPC   C12 4230   6.692   2.792   5.769 -0.1805  0.1250  1.1641
   32SAPC  H12A 4231   6.722   2.689   5.753  0.6577  0.5955 -0.5789
   32SAPC  H12B 4232   6.585   2.800   5.757 -0.1973 -1.8827 -0.7497
   32SAPC   C13 4233   6.718   3.012   5.650  0.0456  0.0593  0.1578
   32SAPC  H13A 4234   6.625   3.018   5.596  0.0956 -1.4432 -0.1185
   32SAPC  H13B 4235   6.711   3.052   5.751 -0.8733 -1.1610  0.6035
   32SAPC  H13C 4236   6.783   3.075   5.592  0.2367 -0.3317 -0.0530
   32SAPC   C14 4237   6.914   2.883   5.681 -0.3464  0.0978 -0.0435
   32SAPC  H14A 4238   6.958   2.937   5.599 -1.9022 -1.5773 -2.0926
   32SAPC  H14B 4239   6.944   2.931   5.773  0.6969 -1.6178  0.5558
   32SAPC  H14C 4240   6.952   2.782   5.679 -0.8992 -0.1386  0.7723
   32SAPC   C15 4241   6.744   2.813   5.529 -0.6846  0.3853  0.1599
   32SAPC  H15A 4242   6.640   2.790   5.511 -0.1158 -1.7948 -0.7171
   32SAPC  H15B 4243   6.784   2.880   5.454 -0.5184 -2.4356 -2.4956
   32SAPC  H15C 4244   6.795   2.719   5.513 -1.1142 -0.1911  2.0022
   32SAPC   C11 4245   6.715   2.822   5.912 -0.1214  0.2973 -0.4578
   32SAPC  H11A 4246   6.822   2.838   5.936 -0.2403  1.0079 -0.3889
   32SAPC  H11B 4247   6.689   2.735   5.977 -2.2719  2.7956  2.3008
   32SAPC     P 4248   6.511   2.961   6.004  0.1777 -0.0685  0.0942
   32SAPC   O13 4249   6.488   3.094   5.956  0.3002  0.0455  0.6454
   32SAPC   O14 4250   6.419   2.856   5.960  0.1366  0.8570 -0.3123
   32SAPC   O12 4251   6.657   2.938   5.963 -0.2564  0.4164 -0.1254
   32SAPC   O11 4252   6.504   2.954   6.164  0.3397  0.4304 -0.2964
   32SAPC    C1 4253   6.619   2.903   6.236 -0.0095  0.6142 -0.6111
   32SAPC    HA 4254   6.651   2.800   6.207 -1.0886  0.3537 -0.9183
   32SAPC    HB 4255   6.704   2.975   6.238  0.8005 -0.3083 -0.8502
   32SAPC    C2 4256   6.602   2.877   6.393 -0.1510 -0.4922 -0.6804
   32SAPC    HS 4257   6.529   2.794   6.395 -0.0304 -0.6361 -1.8575
   32SAPC   O21 4258   6.554   3.006   6.456 -0.2788  0.5845 -0.3114
   32SAPC   C21 4259   6.474   2.999   6.564 -0.3605  0.6822 -0.2285
   32SAPC   O22 4260   6.452   2.898   6.632 -0.5129  0.3497  0.4441
   32SAPC   C22 4261   6.419   3.135   6.599  0.2216  0.1387  0.2506
   32SAPC   H2R 4262   6.488   3.209   6.553  2.3690 -1.1400  1.2398
   32SAPC   H2S 4263   6.324   3.137   6.542  1.6216  0.7207 -2.1715
   32SAPC    C3 4264   6.736   2.826   6.454  0.2737  0.1050  0.1630
   32SAPC    HX 4265   6.820   2.898   6.444 -1.6599  2.2177 -2.2267
   32SAPC    HY 4266   6.775   2.741   6.393  2.7623  0.3808  1.2423
   32SAPC   O31 4267   6.723   2.790   6.589 -0.0256 -0.2084 -0.5722
   32SAPC   C31 4268   6.827   2.745   6.658  0.4116 -0.7360  0.2122
   32SAPC   O32 4269   6.933   2.713   6.613 -0.1031 -0.0069  0.1719
   32SAPC   C32 4270   6.799   2.744   6.805 -0.2477 -0.1414 -0.4454
   32SAPC   H2X 4271   6.738   2.653   6.823 -0.7468  0.7644  3.2749
   32SAPC   H2Y 4272   6.760   2.841   6.844 -0.1409  0.0169 -0.7290
   32SAPC   C23 4273   6.385   3.162   6.750 -0.6091  0.6857  0.2061
   32SAPC   H3R 4274   6.377   3.064   6.802 -0.7556  0.7578  0.3169
   32SAPC   H3S 4275   6.290   3.217   6.740 -0.5744  0.6212 -0.5550
   32SAPC   C24 4276   6.486   3.242   6.826  0.1135 -0.5633  0.5118
   32SAPC   H4R 4277   6.439   3.279   6.919  0.7579 -3.2126  2.0085
   32SAPC   H4S 4278   6.496   3.337   6.770 -2.2620 -1.0431 -0.8135
   32SAPC   C25 4279   6.613   3.167   6.846  0.9020  0.1517 -0.2217
   32SAPC   H5R 4280   6.679   3.185   6.760  0.1052  0.5628 -0.7701
   32SAPC   C26 4281   6.643   3.093   6.958  0.7063 -0.3183 -0.2648
   32SAPC   H6R 4282   6.738   3.040   6.960  1.3115  0.7039 -0.9232
   32SAPC   C27 4283   6.555   3.097   7.082 -0.1159 -0.4419 -0.4740
   32SAPC   H7R 4284   6.543   2.998   7.131  0.5293  1.4130  3.9710
   32SAPC   H7S 4285   6.452   3.131   7.058  0.9160  2.2995 -1.3230
   32SAPC   C28 4286   6.612   3.174   7.189 -0.0474 -0.1647  0.0394
   32SAPC   H8R 4287   6.721   3.191   7.193 -0.0640 -0.2616  2.6995
   32SAPC   C29 4288   6.550   3.238   7.287  0.1924  0.1164 -0.1250
   32SAPC   H9R 4289   6.609   3.295   7.360 -0.5142 -1.7064  1.9807
   32SAPC  C210 4290   6.405   3.248   7.325  0.2417  0.3577  0.8520
   32SAPC  H10R 4291   6.391   3.184   7.415  1.1895 -0.2141  0.6042
   32SAPC  H10S 4292   6.343   3.202   7.245 -0.3407  0.2798  1.3377
   32SAPC  C211 4293   6.349   3.392   7.343 -0.3435  0.0818 -0.4313
   32SAPC  H11R 4294   6.353   3.431   7.446  1.4566 -1.5226  0.1632
   32SAPC  C212 4295   6.300   3.476   7.252 -0.3895 -0.0145  0.0936
   32SAPC  H12R 4296   6.248   3.570   7.278  1.5160  1.2409 -0.4908
   32SAPC  C213 4297   6.290   3.451   7.107  1.0249 -0.7378 -0.5716
   32SAPC  H13R 4298   6.185   3.469   7.076  0.8683 -2.1850 -0.9484
   32SAPC  H13S 4299   6.322   3.352   7.069  0.1099 -0.7741 -1.3019
   32SAPC  C214 4300   6.370   3.552   7.037 -0.5112  0.1517  0.0588
   32SAPC  H14R 4301   6.478   3.531   7.038 -0.6776 -0.7416  0.3566
   32SAPC  C215 4302   6.328   3.663   6.966 -0.4879  0.4067 -0.3788
   32SAPC  H15R 4303   6.405   3.738   6.945  1.9214 -1.8596 -0.1908
   32SAPC  C216 4304   6.187   3.708   6.948 -0.0716 -0.2106  0.2621
   32SAPC  H16R 4305   6.112   3.626   6.938  1.0117 -1.2010  0.0394
   32SAPC  H16S 4306   6.190   3.765   6.853 -0.8422 -0.5475  0.0226
   32SAPC  C217 4307   6.134   3.799   7.059  0.3570  0.0874  0.5275
   32SAPC  H17R 4308   6.169   3.762   7.158 -1.9400  2.8820  2.5485
   32SAPC  H17S 4309   6.025   3.802   7.081  0.9605 -0.1076  4.0461
   32SAPC  C218 4310   6.182   3.939   7.033 -0.0944 -0.5103 -0.3460
   32SAPC  H18R 4311   6.293   3.943   7.029 -0.0363  1.6240  1.3840
   32SAPC  H18S 4312   6.169   3.997   7.127 -0.2176  0.2404 -0.8145
   32SAPC  C219 4313   6.117   4.020   6.921  1.0098 -0.3390 -0.0260
   32SAPC  H19R 4314   6.140   3.956   6.834  0.6391 -0.8204  0.2252
   32SAPC  H19S 4315   6.160   4.123   6.918  0.8298 -0.1009  2.6215
   32SAPC  C220 4316   5.960   4.040   6.937 -0.0368  1.0268 -0.1020
   32SAPC  H20R 4317   5.932   4.118   6.863  0.0962 -0.0817 -1.3633
   32SAPC  H20S 4318   5.959   4.092   7.036 -0.2672  0.8822 -0.0289
   32SAPC  H20T 4319   5.901   3.947   6.947 -0.1058  1.1226  0.4117
   32SAPC   C33 4320   6.934   2.727   6.885  0.1795  0.5521  0.2781
   32SAPC   H3X 4321   6.989   2.823   6.877 -0.6478  0.9925 -0.3170
   32SAPC   H3Y 4322   7.004   2.650   6.845 -1.5204 -0.8014 -0.2494
   32SAPC   C34 4323   6.920   2.694   7.038 -0.5001  0.1891  0.0072
   32SAPC   H4X 4324   6.844   2.767   7.073 -2.4830 -2.2484  1.1267
   32SAPC   H4Y 4325   7.014   2.698   7.097 -1.9143 -1.0695  2.5210
   32SAPC   C35 4326   6.864   2.547   7.056 -0.1014 -0.4249 -0.3211
   32SAPC   H5X 4327   6.931   2.471   7.010  0.9068  0.2831 -0.0478
   32SAPC   H5Y 4328   6.773   2.538   6.993  0.1362 -0.2448 -0.6945
   32SAPC   C36 4329   6.821   2.505   7.200 -0.1025  0.4653  0.3109
   32SAPC   H6X 4330   6.759   2.414   7.191 -0.0679  0.3206  1.4405
   32SAPC   H6Y 4331   6.750   2.578   7.245  0.4739 -0.4140  2.8166
   32SAPC   C37 4332   6.941   2.482   7.295  0.1318  0.7856  0.1444
   32SAPC   H7X 4333   7.017   2.562   7.279  1.0890 -0.2787 -0.8507
   32SAPC   H7Y 4334   6.990   2.387   7.266  1.8042  1.5559  0.3225
   32SAPC   C38 4335   6.898   2.482   7.440 -0.0161 -0.1096 -0.2366
   32SAPC   H8X 4336   6.857   2.381   7.459 -1.3262  0.1935 -1.2884
   32SAPC   H8Y 4337   6.802   2.536   7.458 -0.4657 -1.2399  0.8939
   32SAPC   C39 4338   7.006   2.528   7.546  0.0515 -0.2587 -0.5657
   32SAPC   H9X 4339   6.991   2.635   7.569 -0.1663 -0.2798 -0.6046
   32SAPC   H9Y 4340   7.105   2.522   7.497 -0.3578 -1.6651 -1.2667
   32SAPC  C310 4341   7.000   2.441   7.677 -0.1424  0.0733 -0.1443
   32SAPC  H10X 4342   7.044   2.344   7.644  0.6540  0.4353 -0.1595
   32SAPC  H10Y 4343   6.895   2.429   7.712 -1.1684  0.0004 -2.9220
   32SAPC  C311 4344   7.095   2.510   7.780 -0.3118 -0.0992 -0.2867
   32SAPC  H11X 4345   7.068   2.613   7.812  2.3050  0.4230  0.4481
   32SAPC  H11Y 4346   7.198   2.520   7.739 -0.0123  0.8241  0.6545
   32SAPC  C312 4347   7.100   2.427   7.910 -0.1460  0.2075  0.5574
   32SAPC  H12X 4348   7.149   2.328   7.896  2.0254  1.2576  0.3019
   32SAPC  H12Y 4349   6.995   2.399   7.933 -0.0916 -1.2001 -0.7341
   32SAPC  C313 4350   7.171   2.500   8.026  0.4013 -0.2430  0.4293
   32SAPC  H13X 4351   7.096   2.575   8.059 -0.2096 -0.4316 -0.4865
   32SAPC  H13Y 4352   7.257   2.544   7.970  0.1439 -2.1441 -1.5688
   32SAPC  C314 4353   7.222   2.402   8.134 -0.3054 -0.2597  0.5192
   32SAPC  H14X 4354   7.286   2.452   8.210  0.0705  1.4688 -0.8624
   32SAPC  H14Y 4355   7.275   2.319   8.084 -0.9291 -1.0187  1.0918
   32SAPC  C315 4356   7.114   2.334   8.215  0.5814  0.0279  0.3677
   32SAPC  H15X 4357   7.080   2.233   8.185 -2.6000  0.8574  0.8559
   32SAPC  H15Y 4358   7.020   2.392   8.220 -1.0092 -2.4718  0.9867
   32SAPC  C316 4359   7.158   2.306   8.360 -0.2353 -0.1435  0.0947
   32SAPC  H16X 4360   7.168   2.404   8.413 -0.5678 -0.2222  0.3103
   32SAPC  H16Y 4361   7.260   2.262   8.367 -0.1420  0.2744  1.7914
   32SAPC  C317 4362   7.062   2.213   8.439  0.1661  0.1831  1.0343
   32SAPC  H17X 4363   7.077   2.113   8.392  1.7450  1.6487 -1.8735
   32SAPC  H17Y 4364   6.957   2.242   8.419 -0.0442 -1.7152 -1.0549
   32SAPC  C318 4365   7.084   2.202   8.591  0.0946 -0.9204 -0.5116
   32SAPC  H18X 4366   7.010   2.143   8.648  0.0801 -1.3113 -0.9232
   32SAPC  H18Y 4367   7.096   2.306   8.628  1.5898 -1.6003  1.0670
   32SAPC  H18Z 4368   7.179   2.147   8.608  0.1604 -0.2128  1.6794
   33POPC     N 4369   4.009   1.525  10.500  0.3145  0.0174  0.1356
   33POPC   C12 4370   3.939   1.435  10.391 -0.8166 -0.5176 -0.0833
   33POPC  H12A 4371   3.831   1.446  10.395 -0.5933  1.7630  0.8516
   33POPC  H12B 4372   3.962   1.334  10.420 -3.3914 -2.0198 -2.6793
   33POPC   C13 4373   4.004   1.667  10.455  0.2064 -0.1379 -0.3107
   33POPC  H13A 4374   4.073   1.734  10.505  0.1593 -0.6649  0.4813
   33POPC  H13B 4375   4.024   1.671  10.349 -2.7688 -1.3576 -1.0157
   33POPC  H13C 4376   3.903   1.705  10.465  0.2553 -0.0722 -0.0400
   33POPC   C14 4377   3.951   1.499  10.630  0.6455 -0.1210  0.7662
   33POPC  H14A 4378   3.844   1.490  10.615  0.9698 -0.5097 -1.5598
   33POPC  H14B 4379   3.977   1.400  10.665  0.7367 -0.5526 -0.4768
   33POPC  H14C 4380   3.971   1.574  10.705  0.7622  0.7501 -0.1145
   33POPC   C15 4381   4.153   1.499  10.505 -0.4855  0.2703 -0.3653
   33POPC  H15A 4382   4.202   1.504  10.409 -0.8707 -0.3887 -0.6037
   33POPC  H15B 4383   4.185   1.413  10.562  0.0907  0.8942  0.2746
   33POPC  H15C 4384   4.195   1.578  10.566  1.6830 -1.8160  1.0035
   33POPC   C11 4385   3.974   1.439  10.240 -0.2920  0.4107  0.7121
   33POPC  H11A 4386   3.934   1.529  10.188  1.3246 -0.0116 -1.4178
   33POPC  H11B 4387   3.917   1.360  10.188  0.8713  0.1184 -0.1644
   33POPC     P 4388   4.181   1.274  10.230  0.4302 -0.1427  0.0642
   33POPC   O13 4389   4.130   1.204  10.349  0.2438 -0.8187 -0.1516
   33POPC   O14 4390   4.328   1.300  10.228 -0.0552  0.2140 -0.2656
   33POPC   O12 4391   4.111   1.419  10.218 -0.4482  0.2021  0.1426
   33POPC   O11 4392   4.119   1.199  10.102 -0.3110  0.6535 -1.0172
   33POPC    C1 4393   4.185   1.090  10.040 -0.4440 -0.3545  0.7019
   33POPC    HA 4394   4.271   1.049  10.097  0.6283 -0.4372 -0.9170
   33POPC    HB 4395   4.111   1.013  10.007 -0.6850 -0.0265  0.4648
   33POPC    C2 4396   4.247   1.141   9.900  0.1144 -0.0572 -0.3928
   33POPC    HS 4397   4.299   1.065   9.837 -1.0704  1.2197 -3.0638
   33POPC   O21 4398   4.327   1.255   9.926 -0.2431  0.1200  0.2331
   33POPC   C21 4399   4.448   1.226   9.974  0.4995 -0.3454 -0.4283
   33POPC   O22 4400   4.491   1.117  10.004 -0.7248  0.5802  0.6650
   33POPC   C22 4401   4.523   1.359   9.992 -0.1312  0.3118 -0.7275
   33POPC   H2R 4402   4.563   1.361  10.096  0.6787  0.5436 -1.0292
   33POPC   H2S 4403   4.447   1.438   9.975 -0.0050  0.7894  0.7482
   33POPC    C3 4404   4.136   1.188   9.808  0.3808  0.4407 -0.7230
   33POPC    HX 4405   4.077   1.262   9.866 -0.6930 -1.1739  0.3117
   33POPC    HY 4406   4.057   1.111   9.790  0.9213  0.3244 -2.7964
   33POPC   O31 4407   4.181   1.243   9.684  0.1993 -0.3417  0.3355
   33POPC   C31 4408   4.210   1.164   9.585 -0.5929  0.0874  0.2345
   33POPC   O32 4409   4.214   1.043   9.591  0.0140  0.4541 -0.2421
   33POPC   C32 4410   4.217   1.246   9.453 -0.5183 -0.2452  0.3142
   33POPC   H2X 4411   4.276   1.340   9.461  1.3002 -1.1204 -1.6395
   33POPC   H2Y 4412   4.115   1.286   9.436  0.5770  2.1569 -1.0417
   33POPC   C23 4413   4.643   1.375   9.901  0.0418 -0.4611  0.1509
   33POPC   H3R 4414   4.710   1.286   9.901  1.2877  0.3993 -2.3488
   33POPC   H3S 4415   4.708   1.458   9.934 -0.2944 -0.6506  1.3449
   33POPC   C24 4416   4.611   1.409   9.751 -0.1305  0.1517  0.1287
   33POPC   H4R 4417   4.552   1.503   9.755  0.5261  0.6917 -1.8783
   33POPC   H4S 4418   4.544   1.327   9.717  0.0357  0.3631 -0.7412
   33POPC   C25 4419   4.730   1.425   9.656 -0.5948  0.1535  0.3555
   33POPC   H5R 4420   4.775   1.324   9.658 -0.8872 -0.0027 -0.5214
   33POPC   H5S 4421   4.804   1.500   9.692 -0.8632  0.3656  0.4730
   33POPC   C26 4422   4.679   1.461   9.515 -0.4131  0.2910  0.1174
   33POPC   H6R 4423   4.765   1.507   9.462 -0.4515 -2.1163 -2.2587
   33POPC   H6S 4424   4.603   1.541   9.526 -0.1742  0.2967  2.0940
   33POPC   C27 4425   4.611   1.341   9.442  0.8122 -0.4555 -0.2622
   33POPC   H7R 4426   4.518   1.307   9.492  0.4366  1.8915  0.7485
   33POPC   H7S 4427   4.689   1.262   9.445  1.6296  0.2552 -1.6226
   33POPC   C28 4428   4.567   1.383   9.297 -0.3198 -0.4781  0.1556
   33POPC   H8R 4429   4.477   1.448   9.293 -0.0510 -0.0794  0.4802
   33POPC   H8S 4430   4.517   1.290   9.262 -1.2122 -0.7025  1.9005
   33POPC   C29 4431   4.680   1.424   9.201 -0.0394 -0.2290  0.3110
   33POPC   H91 4432   4.761   1.350   9.194  1.1542  0.7662  2.5758
   33POPC  C210 4433   4.687   1.538   9.126 -0.3349  0.1840  0.2008
   33POPC  H101 4434   4.783   1.544   9.073 -0.9600 -0.8466 -1.1115
   33POPC  C211 4435   4.607   1.664   9.141  0.3714 -0.2510 -0.4615
   33POPC  H11R 4436   4.671   1.752   9.163 -0.1751 -0.1991  1.0914
   33POPC  H11S 4437   4.538   1.654   9.228 -1.3308  2.7193 -1.3211
   33POPC  C212 4438   4.503   1.690   9.028  0.1299  0.3762 -0.4016
   33POPC  H12R 4439   4.455   1.788   9.051 -0.1190  1.0709 -3.4091
   33POPC  H12S 4440   4.426   1.611   9.019  0.0502  0.5797 -1.8070
   33POPC  C213 4441   4.578   1.700   8.898 -0.2647 -0.0233 -0.5984
   33POPC  H13R 4442   4.605   1.599   8.861 -0.3810  0.6350 -2.6654
   33POPC  H13S 4443   4.670   1.762   8.907  0.5775 -1.2248 -0.8099
   33POPC  C214 4444   4.509   1.752   8.778  0.8510 -0.2392  0.2936
   33POPC  H14R 4445   4.492   1.861   8.791  0.2152 -0.4525  1.4285
   33POPC  H14S 4446   4.411   1.700   8.779  0.0372  1.0629 -2.3543
   33POPC  C215 4447   4.583   1.731   8.648 -0.2856 -0.6866 -0.4515
   33POPC  H15R 4448   4.632   1.631   8.647  1.1995  0.0087 -0.2202
   33POPC  H15S 4449   4.670   1.801   8.654  0.2875 -1.4757  0.8436
   33POPC  C216 4450   4.505   1.755   8.519 -0.5590 -0.1066 -0.2264
   33POPC  H16R 4451   4.464   1.859   8.517 -0.2075  0.0424  0.2421
   33POPC  H16S 4452   4.415   1.689   8.516 -2.3189  2.1962 -1.6657
   33POPC  C217 4453   4.580   1.726   8.390  0.1483  0.6502  0.0899
   33POPC  H17R 4454   4.689   1.743   8.405  0.2344 -0.2309  0.5047
   33POPC  H17S 4455   4.545   1.806   8.320 -1.2365 -1.0386 -1.2472
   33POPC  C218 4456   4.568   1.584   8.327  0.4120  0.3638  0.2154
   33POPC  H18R 4457   4.469   1.534   8.316 -0.6659  2.8240 -2.7455
   33POPC  H18S 4458   4.627   1.509   8.383  1.1056  1.2894  0.7534
   33POPC  H18T 4459   4.615   1.569   8.227  2.1308 -1.6811  1.2473
   33POPC   C33 4460   4.242   1.150   9.333 -0.0269  0.6605  0.1696
   33POPC   H3X 4461   4.169   1.067   9.325 -1.9416  2.3142 -0.1978
   33POPC   H3Y 4462   4.346   1.112   9.342 -0.7738 -0.9075  3.4215
   33POPC   C34 4463   4.225   1.228   9.200 -0.1110  0.2946 -0.2176
   33POPC   H4X 4464   4.258   1.333   9.216  1.3766  0.0326 -1.3141
   33POPC   H4Y 4465   4.115   1.231   9.189 -0.2973 -2.1030  0.3989
   33POPC   C35 4466   4.287   1.171   9.071  0.1373 -0.2791 -0.7037
   33POPC   H5X 4467   4.250   1.072   9.039  0.5515 -0.0692 -1.8755
   33POPC   H5Y 4468   4.397   1.176   9.083  0.1045  1.7996 -0.9326
   33POPC   C36 4469   4.257   1.264   8.959  1.1340 -0.1616  0.3943
   33POPC   H6X 4470   4.255   1.369   8.996 -0.7160  0.2655 -0.7992
   33POPC   H6Y 4471   4.152   1.243   8.928  1.5545 -0.9796 -0.5088
   33POPC   C37 4472   4.328   1.236   8.818  1.4968  0.2936 -0.4668
   33POPC   H7X 4473   4.301   1.309   8.738 -0.3919  1.1258  0.8420
   33POPC   H7Y 4474   4.302   1.132   8.790  0.3118 -0.3479  2.5423
   33POPC   C38 4475   4.469   1.234   8.837 -0.9795  0.3730  0.3000
   33POPC   H8X 4476   4.523   1.158   8.896 -1.9742 -1.7066 -1.3377
   33POPC   H8Y 4477   4.484   1.333   8.885 -0.5123  0.2145  0.4761
   33POPC   C39 4478   4.555   1.222   8.710  0.1059 -0.1354  0.2174
   33POPC   H9X 4479   4.508   1.294   8.639 -0.7331 -3.3308 -2.7495
   33POPC   H9Y 4480   4.559   1.120   8.667  1.6584 -0.4493  1.0536
   33POPC  C310 4481   4.696   1.277   8.735  0.2285 -0.5494 -0.2276
   33POPC  H10X 4482   4.744   1.206   8.806  0.9892 -0.1592 -0.3380
   33POPC  H10Y 4483   4.689   1.379   8.780 -0.1511 -0.1362 -1.1992
   33POPC  C311 4484   4.778   1.293   8.604  0.3070 -0.3106  0.1046
   33POPC  H11X 4485   4.712   1.353   8.537 -0.7568 -1.3648  0.1755
   33POPC  H11Y 4486   4.782   1.193   8.556  0.8998  0.1391 -0.7942
   33POPC  C312 4487   4.918   1.354   8.620 -0.1920 -0.2796  0.6962
   33POPC  H12X 4488   4.978   1.281   8.678  0.2147  0.0897  0.7495
   33POPC  H12Y 4489   4.894   1.441   8.685  1.0254 -2.3172  4.1273
   33POPC  C313 4490   4.983   1.407   8.490  0.0247  0.5827 -0.4635
   33POPC  H13X 4491   5.058   1.487   8.505 -1.4808  1.9109  0.2069
   33POPC  H13Y 4492   4.906   1.469   8.439  1.3937  2.6835 -0.0833
   33POPC  C314 4493   5.049   1.298   8.398  0.1650  0.8646 -0.0073
   33POPC  H14X 4494   4.990   1.205   8.412 -0.1433  1.1142  0.4026
   33POPC  H14Y 4495   5.149   1.279   8.443 -0.0320 -0.9530 -0.2627
   33POPC  C315 4496   5.060   1.342   8.256  0.2788  0.0427 -0.2098
   33POPC  H15X 4497   5.076   1.452   8.252  1.1363 -0.1133 -1.3017
   33POPC  H15Y 4498   4.960   1.318   8.212 -1.2752  1.2286  2.4107
   33POPC  C316 4499   5.168   1.274   8.173  0.0796  0.0433 -0.2399
   33POPC  H16X 4500   5.265   1.306   8.217  0.5328 -0.6296 -0.7103
   33POPC  H16Y 4501   5.190   1.310   8.070  2.0866 -0.3547 -0.0045
   33POPC  H16Z 4502   5.154   1.164   8.165 -1.0357  0.2005 -0.5264
   34POPC     N 4503   0.521   4.241  10.997  0.4276 -0.6034 -0.4776
   34POPC   C12 4504   0.387   4.206  10.923  0.2971  0.2770  0.3367
   34POPC  H12A 4505   0.337   4.298  10.897  0.2329  0.3448  0.6896
   34POPC  H12B 4506   0.329   4.151  10.996  0.2666  1.4485  1.2191
   34POPC   C13 4507   0.591   4.108  11.033  0.7681 -0.0313 -0.2159
   34POPC  H13A 4508   0.682   4.116  11.091  0.7871 -0.2381 -0.2155
   34POPC  H13B 4509   0.515   4.046  11.076 -0.2121  2.6776  2.3179
   34POPC  H13C 4510   0.608   4.075  10.932  0.8299  0.7230 -0.4599
   34POPC   C14 4511   0.612   4.309  10.899 -0.3736  0.0886  0.0629
   34POPC  H14A 4512   0.572   4.400  10.855 -1.0471 -0.8755 -1.3940
   34POPC  H14B 4513   0.714   4.324  10.932  0.0995 -1.0288 -0.8512
   34POPC  H14C 4514   0.637   4.254  10.810  1.2177  1.5644 -0.4627
   34POPC   C15 4515   0.507   4.324  11.122 -0.0598  0.0417  0.4045
   34POPC  H15A 4516   0.494   4.259  11.207  0.4573 -2.1466 -1.0969
   34POPC  H15B 4517   0.426   4.396  11.116 -0.2558 -0.3056 -2.9164
   34POPC  H15C 4518   0.589   4.391  11.145 -0.0661  1.0442 -2.1092
   34POPC   C11 4519   0.406   4.109  10.803 -0.2677 -0.1113 -0.2416
   34POPC  H11A 4520   0.492   4.152  10.747  0.2019 -1.5751 -0.6951
   34POPC  H11B 4521   0.320   4.112  10.733  0.1655  2.0613 -0.7704
   34POPC     P 4522   0.508   3.867  10.745  0.4321 -0.0384 -0.3547
   34POPC   O13 4523   0.430   3.741  10.768 -0.1071 -0.8386  0.3091
   34POPC   O14 4524   0.655   3.861  10.749 -0.5257  0.1044 -0.7309
   34POPC   O12 4525   0.446   3.972  10.841  0.5998  0.4874 -0.0195
   34POPC   O11 4526   0.461   3.921  10.601 -0.3403  0.4718 -0.3587
   34POPC    C1 4527   0.334   3.891  10.537 -0.8230  0.5791 -0.3077
   34POPC    HA 4528   0.248   3.937  10.590 -3.1095 -3.3794 -0.2280
   34POPC    HB 4529   0.318   3.782  10.549  0.8681  0.5971  3.9298
   34POPC    C2 4530   0.340   3.922  10.390  0.0242 -0.1024 -0.2646
   34POPC    HS 4531   0.263   3.856  10.344 -0.7411 -0.1309  1.0183
   34POPC   O21 4532   0.474   3.903  10.335 -0.1067 -0.2082  0.1532
   34POPC   C21 4533   0.522   3.782  10.334  0.0827  0.4472  0.1712
   34POPC   O22 4534   0.456   3.683  10.360  0.5124  0.6189  0.1526
   34POPC   C22 4535   0.672   3.788  10.300  0.4018  0.2219  0.5159
   34POPC   H2R 4536   0.720   3.824  10.393 -0.9423 -0.0452  1.3444
   34POPC   H2S 4537   0.683   3.875  10.232 -1.9834 -0.9091 -1.4884
   34POPC    C3 4538   0.309   4.073  10.356 -0.1858 -0.7995 -0.1063
   34POPC    HX 4539   0.380   4.139  10.412 -0.5165  0.7334 -1.4131
   34POPC    HY 4540   0.204   4.088  10.389 -0.2174 -0.4539 -0.3618
   34POPC   O31 4541   0.318   4.111  10.219  0.1138  0.0790 -0.7868
   34POPC   C31 4542   0.217   4.069  10.136 -1.7861 -0.3869  0.3510
   34POPC   O32 4543   0.115   4.016  10.175 -0.0022 -0.1530  0.0235
   34POPC   C32 4544   0.257   4.113   9.987  0.1986 -0.6547 -0.7545
   34POPC   H2X 4545   0.359   4.072   9.970  1.1145  1.0954  0.3210
   34POPC   H2Y 4546   0.265   4.223   9.978  0.9552 -0.1479  3.8692
   34POPC   C23 4547   0.733   3.653  10.235 -0.3177  0.5976 -0.4098
   34POPC   H3R 4548   0.679   3.570  10.285  1.1651 -0.2912 -0.2405
   34POPC   H3S 4549   0.838   3.646  10.273 -0.8614  0.6288  1.1908
   34POPC   C24 4550   0.726   3.649  10.088 -0.3184  0.1138  0.4479
   34POPC   H4R 4551   0.763   3.553  10.046  2.2312  0.7161  1.1805
   34POPC   H4S 4552   0.782   3.732  10.041 -1.8690  0.7657 -0.3545
   34POPC   C25 4553   0.588   3.689  10.037  0.0515  0.5466  0.6719
   34POPC   H5R 4554   0.566   3.793  10.068  0.5532  1.5771 -2.2034
   34POPC   H5S 4555   0.514   3.616  10.078  0.9122 -0.4561  0.5030
   34POPC   C26 4556   0.568   3.671   9.884  0.1766 -0.3547 -0.2774
   34POPC   H6R 4557   0.564   3.565   9.850 -3.3503 -0.3522 -0.2052
   34POPC   H6S 4558   0.654   3.710   9.826  0.8846 -3.0520 -1.1808
   34POPC   C27 4559   0.433   3.736   9.835 -0.1275 -0.2739  0.4349
   34POPC   H7R 4560   0.408   3.830   9.889 -1.5811 -0.8184  0.7472
   34POPC   H7S 4561   0.353   3.663   9.859  0.3736 -1.4120 -1.1888
   34POPC   C28 4562   0.430   3.769   9.688 -0.0154  0.2721  0.8643
   34POPC   H8R 4563   0.520   3.828   9.659  0.7894  0.6414  3.8089
   34POPC   H8S 4564   0.343   3.836   9.675  0.6501  0.8791 -0.7863
   34POPC   C29 4565   0.413   3.645   9.605  0.8363 -0.0418 -0.1812
   34POPC   H91 4566   0.489   3.568   9.629 -0.0326 -0.2532  2.0456
   34POPC  C210 4567   0.320   3.622   9.511  0.0426 -0.2163  0.8771
   34POPC  H101 4568   0.336   3.532   9.451 -0.6948  0.9131 -1.1124
   34POPC  C211 4569   0.202   3.701   9.461  0.3791  0.2923  0.5232
   34POPC  H11R 4570   0.170   3.784   9.527  2.0907  1.4692 -0.0704
   34POPC  H11S 4571   0.114   3.635   9.444 -1.1278  2.7696 -2.3926
   34POPC  C212 4572   0.220   3.742   9.312  0.8657 -0.1659  0.3187
   34POPC  H12R 4573   0.308   3.810   9.303 -0.0469  0.7941 -2.4778
   34POPC  H12S 4574   0.130   3.802   9.286  1.4361  1.1970  1.3642
   34POPC  C213 4575   0.236   3.633   9.203 -0.3906  0.2333  0.6390
   34POPC  H13R 4576   0.168   3.546   9.219  0.2470 -0.6213 -1.0309
   34POPC  H13S 4577   0.336   3.585   9.211  0.1676  0.7654 -2.0512
   34POPC  C214 4578   0.202   3.677   9.055 -0.2312 -0.1840 -0.2219
   34POPC  H14R 4579   0.134   3.762   9.077  0.3880 -0.6389  4.3620
   34POPC  H14S 4580   0.149   3.591   9.008  0.3038 -1.2343  1.0352
   34POPC  C215 4581   0.337   3.716   8.981  0.1469  0.1830  0.2698
   34POPC  H15R 4582   0.401   3.626   8.995 -0.2831 -0.1793 -0.0756
   34POPC  H15S 4583   0.382   3.800   9.039  3.5080 -1.5875  0.4828
   34POPC  C216 4584   0.309   3.741   8.829 -0.6725  0.1509 -0.3904
   34POPC  H16R 4585   0.260   3.839   8.809 -1.5343 -0.4752 -1.3990
   34POPC  H16S 4586   0.231   3.668   8.802 -0.8717 -0.2641  1.2076
   34POPC  C217 4587   0.432   3.724   8.744  0.4369 -0.1101 -0.2318
   34POPC  H17R 4588   0.452   3.618   8.717  1.6635 -0.6838  2.5760
   34POPC  H17S 4589   0.521   3.752   8.803  0.8891 -0.5296 -0.7003
   34POPC  C218 4590   0.442   3.795   8.615  0.0762 -0.2641 -0.7307
   34POPC  H18R 4591   0.445   3.904   8.636  1.4229 -0.5660  0.8607
   34POPC  H18S 4592   0.359   3.774   8.545  0.5650  1.0647 -1.7570
   34POPC  H18T 4593   0.545   3.779   8.577  0.4768  1.3556 -0.4116
   34POPC   C33 4594   0.154   4.062   9.880 -0.1483 -0.0704  0.0878
   34POPC   H3X 4595   0.057   4.099   9.920 -0.0302  1.7849 -1.1983
   34POPC   H3Y 4596   0.162   3.952   9.883 -1.9992 -0.2329  0.1299
   34POPC   C34 4597   0.193   4.121   9.738 -0.1480 -0.2602  0.2824
   34POPC   H4X 4598   0.302   4.102   9.733 -0.3557 -1.2871 -1.0049
   34POPC   H4Y 4599   0.166   4.229   9.743 -0.2116 -0.2482 -0.2096
   34POPC   C35 4600   0.116   4.041   9.626 -1.1834 -0.4389  0.3514
   34POPC   H5X 4601   0.011   4.078   9.631 -1.6292 -1.2859 -1.6174
   34POPC   H5Y 4602   0.114   3.935   9.660 -1.1168  0.1934  2.4145
   34POPC   C36 4603   0.168   4.069   9.488 -0.5449 -0.0166  0.2755
   34POPC   H6X 4604   0.127   3.998   9.413  0.2345  0.6225 -0.7742
   34POPC   H6Y 4605   0.275   4.040   9.479 -0.8342 -1.2083  0.4151
   34POPC   C37 4606   0.144   4.217   9.439  0.3482 -0.0977 -0.1649
   34POPC   H7X 4607   0.207   4.283   9.504 -1.0257 -0.8051  2.0008
   34POPC   H7Y 4608   0.036   4.241   9.432 -0.0458 -2.2151 -3.2134
   34POPC   C38 4609   0.199   4.225   9.294  0.4358  0.4802  0.1003
   34POPC   H8X 4610   0.290   4.163   9.280 -0.9316 -1.2532 -1.8341
   34POPC   H8Y 4611   0.235   4.326   9.266 -1.3645  0.7644 -1.4245
   34POPC   C39 4612   0.100   4.176   9.197  0.2682  0.1977 -0.2787
   34POPC   H9X 4613   0.017   4.249   9.184  2.6590  3.0356 -0.3520
   34POPC   H9Y 4614   0.057   4.076   9.221 -1.5342  1.2284  1.0121
   34POPC  C310 4615   0.156   4.156   9.057 -0.2677 -0.3237  0.9512
   34POPC  H10X 4616   0.227   4.070   9.068 -0.3755 -1.0069 -2.5642
   34POPC  H10Y 4617   0.209   4.248   9.024  2.8821 -2.5763 -0.9227
   34POPC  C311 4618   0.045   4.125   8.954  0.4186 -0.5010 -0.2549
   34POPC  H11X 4619  -0.029   4.208   8.962  0.3323 -0.2859 -2.6497
   34POPC  H11Y 4620  -0.004   4.028   8.975 -0.3221 -0.2295 -0.6910
   34POPC  C312 4621   0.115   4.127   8.818 -0.5773  0.2239  0.0865
   34POPC  H12X 4622   0.209   4.069   8.827 -2.5274 -3.0222  1.1313
   34POPC  H12Y 4623   0.133   4.231   8.784 -0.9264  0.6863  1.2511
   34POPC  C313 4624   0.033   4.055   8.710  0.1536 -0.2163 -0.1460
   34POPC  H13X 4625  -0.061   4.113   8.697  0.4502  1.1298  2.8934
   34POPC  H13Y 4626   0.019   3.951   8.747  1.4042  0.2309  1.7197
   34POPC  C314 4627   0.111   4.045   8.567  0.3871 -0.6986  0.1114
   34POPC  H14X 4628   0.185   3.963   8.578  0.9884 -0.3986 -1.5130
   34POPC  H14Y 4629   0.166   4.139   8.546 -0.3536 -0.1936  0.3983
   34POPC  C315 4630   0.014   4.011   8.457  0.0668 -0.3468 -0.7546
   34POPC  H15X 4631   0.072   3.995   8.364 -2.0447 -0.4557 -2.1296
   34POPC  H15Y 4632  -0.052   4.098   8.435 -0.7946 -1.3701 -2.4662
   34POPC  C316 4633  -0.072   3.890   8.490 -0.3068 -0.4687  0.2280
   34POPC  H16X 4634  -0.145   3.901   8.573  1.0985  0.7388  1.3546
   34POPC  H16Y 4635   0.001   3.810   8.514 -1.2296 -1.4548 -0.1308
   34POPC  H16Z 4636  -0.130   3.867   8.398 -2.1557  2.8544  0.4073
   35POPC     N 4637   2.576   3.695  10.748  0.5569 -0.3139  0.6905
   35POPC   C12 4638   2.518   3.833  10.696 -0.4212 -0.0858 -0.0003
   35POPC  H12A 4639   2.423   3.802  10.655  0.9666 -3.9170 -0.7811
   35POPC  H12B 4640   2.579   3.877  10.620  3.7389 -1.0026  2.4942
   35POPC   C13 4641   2.564   3.597  10.635  0.3004 -0.1953 -0.1322
   35POPC  H13A 4642   2.463   3.563  10.621  0.3252  0.2384 -1.5312
   35POPC  H13B 4643   2.597   3.629  10.537  3.1456 -1.2168  0.3798
   35POPC  H13C 4644   2.635   3.518  10.656 -1.5034 -1.8779 -0.0424
   35POPC   C14 4645   2.717   3.719  10.775 -0.3659 -0.2296  0.0078
   35POPC  H14A 4646   2.720   3.796  10.851  0.9650 -0.8026  0.5743
   35POPC  H14B 4647   2.758   3.635  10.829  1.0493  1.4614  1.6920
   35POPC  H14C 4648   2.771   3.743  10.685 -0.5789  0.8768  0.1623
   35POPC   C15 4649   2.505   3.647  10.872 -0.7893 -0.4764 -0.1758
   35POPC  H15A 4650   2.529   3.543  10.890 -1.0578 -0.5718 -0.3743
   35POPC  H15B 4651   2.398   3.659  10.862 -0.7061  0.1007 -0.3885
   35POPC  H15C 4652   2.535   3.707  10.957 -1.6455  0.7393 -0.7208
   35POPC   C11 4653   2.499   3.940  10.806 -0.4141 -0.3384  0.6651
   35POPC  H11A 4654   2.477   3.894  10.905 -1.2843 -2.7060 -0.5537
   35POPC  H11B 4655   2.421   4.015  10.782 -0.6424 -0.5601  0.7130
   35POPC     P 4656   2.655   4.118  10.706 -0.3063  0.1401  0.1551
   35POPC   O13 4657   2.792   4.161  10.733 -0.1394 -0.2773  0.0233
   35POPC   O14 4658   2.554   4.222  10.702  0.5571 -0.7639  0.3427
   35POPC   O12 4659   2.622   4.012  10.816 -0.3191 -0.1926 -0.0831
   35POPC   O11 4660   2.653   4.031  10.576  0.6903 -0.2850  0.2339
   35POPC    C1 4661   2.767   3.979  10.502  0.5104  0.2912 -0.7903
   35POPC    HA 4662   2.748   3.900  10.426 -0.1804  0.9025 -1.2662
   35POPC    HB 4663   2.833   3.922  10.571  0.4873  0.0069 -0.9988
   35POPC    C2 4664   2.842   4.091  10.432  0.0692  0.5786  0.1330
   35POPC    HS 4665   2.852   4.166  10.513  0.0705 -0.8728  1.5215
   35POPC   O21 4666   2.749   4.141  10.326  0.4339  0.1279 -0.6559
   35POPC   C21 4667   2.716   4.272  10.315  0.2868  0.2875  0.5133
   35POPC   O22 4668   2.764   4.358  10.383 -0.0534  0.1927  0.0400
   35POPC   C22 4669   2.628   4.291  10.198 -0.4757 -0.1778 -0.0205
   35POPC   H2R 4670   2.619   4.401  10.182 -0.7008 -0.0467  0.9648
   35POPC   H2S 4671   2.525   4.263  10.230  0.4607 -0.6521  2.7842
   35POPC    C3 4672   2.982   4.038  10.389 -0.2270  0.5099  0.4894
   35POPC    HX 4673   3.038   4.008  10.480  0.2502  0.1494  0.0796
   35POPC    HY 4674   3.047   4.115  10.342 -1.1249  0.4849 -0.8624
   35POPC   O31 4675   2.958   3.924  10.301  0.4111 -0.9385 -0.1074
   35POPC   C31 4676   2.958   3.956  10.166 -0.2787 -0.1983 -0.1788
   35POPC   O32 4677   2.974   4.071  10.125  0.0924 -0.0450  0.5576
   35POPC   C32 4678   2.944   3.825  10.090 -0.8220  0.0160 -0.0885
   35POPC   H2X 4679   2.843   3.783  10.111 -0.5233 -0.4285  0.4714
   35POPC   H2Y 4680   3.010   3.741  10.121  0.7428  1.3964  0.4578
   35POPC   C23 4681   2.666   4.203  10.073  0.2259 -0.4784 -0.4699
   35POPC   H3R 4682   2.642   4.100  10.105 -0.4738 -0.5693 -1.2575
   35POPC   H3S 4683   2.775   4.216  10.058  0.0793  1.3850 -0.1745
   35POPC   C24 4684   2.599   4.248   9.947  0.1528  0.2387 -0.9642
   35POPC   H4R 4685   2.594   4.357   9.926 -0.4296  0.0535 -1.8237
   35POPC   H4S 4686   2.493   4.217   9.957  1.0082 -2.4701  1.1075
   35POPC   C25 4687   2.676   4.194   9.826 -0.6480  0.5783 -0.0324
   35POPC   H5R 4688   2.590   4.198   9.755 -0.1456  1.5219 -0.6033
   35POPC   H5S 4689   2.713   4.090   9.838 -0.2889  0.7154  0.0582
   35POPC   C26 4690   2.799   4.272   9.781 -0.3379  0.0796 -0.0325
   35POPC   H6R 4691   2.862   4.302   9.867 -0.1514 -0.7953  0.1525
   35POPC   H6S 4692   2.748   4.359   9.734  0.8147  1.5923  1.4073
   35POPC   C27 4693   2.885   4.206   9.673 -0.4350 -0.4767 -0.3236
   35POPC   H7R 4694   2.944   4.121   9.715  3.6007  1.4898 -1.4724
   35POPC   H7S 4695   2.957   4.284   9.642 -0.9343  0.2172  0.2464
   35POPC   C28 4696   2.815   4.154   9.543  0.0611  1.0349 -0.0716
   35POPC   H8R 4697   2.732   4.084   9.567 -0.5139  1.9326  0.6500
   35POPC   H8S 4698   2.886   4.095   9.482 -1.1111 -1.4973  0.8374
   35POPC   C29 4699   2.768   4.271   9.461 -0.7358  0.6237  0.0746
   35POPC   H91 4700   2.681   4.325   9.501 -1.0029  0.4714 -0.3004
   35POPC  C210 4701   2.807   4.309   9.340  0.1943 -0.1933 -0.9149
   35POPC  H101 4702   2.766   4.404   9.304  1.2565 -0.2341 -2.3521
   35POPC  C211 4703   2.911   4.247   9.254 -0.0483  0.0213 -0.1022
   35POPC  H11R 4704   2.915   4.138   9.275 -1.0084  0.4024  2.3701
   35POPC  H11S 4705   3.005   4.291   9.294 -0.4734 -0.1016  1.0604
   35POPC  C212 4706   2.901   4.287   9.105 -0.1483  0.4450  0.1476
   35POPC  H12R 4707   2.987   4.256   9.042 -0.6239  0.9189 -0.7584
   35POPC  H12S 4708   2.899   4.398   9.099 -2.9278  0.5652  1.2612
   35POPC  C213 4709   2.768   4.242   9.041 -0.0509  0.0020  0.4244
   35POPC  H13R 4710   2.688   4.297   9.095  0.1574  2.6157 -1.7208
   35POPC  H13S 4711   2.756   4.137   9.074 -1.8630 -0.6639 -2.0066
   35POPC  C214 4712   2.769   4.251   8.888 -0.1500 -0.5320 -0.2477
   35POPC  H14R 4713   2.839   4.169   8.860 -0.1901 -0.9334  0.7946
   35POPC  H14S 4714   2.807   4.348   8.849 -1.0485  0.8209  2.0699
   35POPC  C215 4715   2.631   4.215   8.834 -0.2513  0.0959 -0.0327
   35POPC  H15R 4716   2.556   4.297   8.832 -0.1055  0.2360  0.1740
   35POPC  H15S 4717   2.588   4.134   8.896 -1.4918  1.2706  0.6758
   35POPC  C216 4718   2.658   4.165   8.694 -0.0309 -0.1871  0.6042
   35POPC  H16R 4719   2.745   4.097   8.707  2.5012  3.0440  1.9875
   35POPC  H16S 4720   2.692   4.237   8.616  1.5891 -2.2636 -0.7243
   35POPC  C217 4721   2.542   4.089   8.636  0.2418  0.7340  0.2193
   35POPC  H17R 4722   2.451   4.150   8.655  0.0059  0.0764  1.2983
   35POPC  H17S 4723   2.525   3.993   8.689 -1.7930  0.3097 -1.0781
   35POPC  C218 4724   2.553   4.040   8.493  0.4924 -0.3705 -0.6878
   35POPC  H18R 4725   2.451   4.022   8.451  0.2355  0.4244 -0.4328
   35POPC  H18S 4726   2.601   3.941   8.481  1.2580 -0.2606  1.1769
   35POPC  H18T 4727   2.604   4.113   8.427 -0.3664 -0.5190 -1.5405
   35POPC   C33 4728   2.963   3.846   9.943  0.3455  0.0697 -0.0153
   35POPC   H3X 4729   3.067   3.881   9.924  0.6360  0.1189  1.5017
   35POPC   H3Y 4730   2.888   3.917   9.901  1.0420 -0.0122 -1.4526
   35POPC   C34 4731   2.939   3.712   9.858 -0.0687 -0.2373  0.8582
   35POPC   H4X 4732   2.852   3.652   9.893 -0.6876 -0.7621 -1.4120
   35POPC   H4Y 4733   3.027   3.644   9.860 -0.6227 -0.9631  0.9120
   35POPC   C35 4734   2.893   3.739   9.714 -0.2081 -0.3501 -0.0671
   35POPC   H5X 4735   2.803   3.804   9.712  0.5563  0.7081 -1.1351
   35POPC   H5Y 4736   2.855   3.641   9.677 -1.6590 -0.6109  1.8942
   35POPC   C36 4737   2.991   3.800   9.614 -0.3181  0.5296 -0.8919
   35POPC   H6X 4738   3.084   3.739   9.609  0.4935  1.6332  0.0839
   35POPC   H6Y 4739   3.011   3.903   9.651 -0.4938  0.0425  0.6349
   35POPC   C37 4740   2.946   3.790   9.472  0.1504  0.3912  0.5682
   35POPC   H7X 4741   2.841   3.823   9.456 -0.1820 -0.7689  0.2782
   35POPC   H7Y 4742   2.943   3.682   9.449 -1.0318  0.6741 -0.6699
   35POPC   C38 4743   3.043   3.849   9.374  0.5208  0.2789  0.2339
   35POPC   H8X 4744   3.145   3.816   9.402  0.6684  0.3111 -0.2573
   35POPC   H8Y 4745   3.050   3.956   9.403  0.6216 -0.1460  1.8738
   35POPC   C39 4746   3.006   3.851   9.225  0.9137 -0.1864 -0.0711
   35POPC   H9X 4747   2.903   3.887   9.206  0.7981  0.0876  1.0126
   35POPC   H9Y 4748   3.012   3.742   9.206 -0.6966 -0.2873 -0.1170
   35POPC  C310 4749   3.100   3.932   9.140  0.2092 -0.3037  1.8468
   35POPC  H10X 4750   3.200   3.883   9.144 -0.4195 -1.7890  0.6303
   35POPC  H10Y 4751   3.102   4.033   9.185 -0.1069  0.4206  0.3122
   35POPC  C311 4752   3.039   3.941   8.992  0.1010  0.0150 -0.9690
   35POPC  H11X 4753   2.942   3.995   8.987 -0.5356 -1.1767 -1.7954
   35POPC  H11Y 4754   3.005   3.838   8.969  1.0937 -0.3043 -1.0578
   35POPC  C312 4755   3.120   4.000   8.877  0.4283 -0.9805 -0.2370
   35POPC  H12X 4756   3.219   3.953   8.860  2.0201  1.8237  0.6340
   35POPC  H12Y 4757   3.143   4.105   8.905 -0.0911 -1.1108  0.7467
   35POPC  C313 4758   3.048   3.989   8.741 -0.1251 -0.4074 -0.2355
   35POPC  H13X 4759   2.942   4.022   8.751 -0.4984 -1.6147  0.0762
   35POPC  H13Y 4760   3.046   3.883   8.707 -0.5242 -0.2724 -0.6437
   35POPC  C314 4761   3.130   4.066   8.635  0.5415  0.4261  0.8901
   35POPC  H14X 4762   3.236   4.033   8.639  0.1538 -1.2111 -1.0933
   35POPC  H14Y 4763   3.126   4.175   8.659 -1.7619  0.4622  0.4971
   35POPC  C315 4764   3.073   4.033   8.491 -0.5602  0.4880 -0.3645
   35POPC  H15X 4765   3.102   3.927   8.477 -0.0895  0.4321  0.9405
   35POPC  H15Y 4766   3.134   4.082   8.412  1.2325 -1.3789 -0.2078
   35POPC  C316 4767   2.923   4.045   8.450  0.3626 -0.0873 -0.2658
   35POPC  H16X 4768   2.856   4.011   8.532  0.5398 -0.6305 -0.3434
   35POPC  H16Y 4769   2.902   3.986   8.358 -0.6002 -0.3101  0.0830
   35POPC  H16Z 4770   2.897   4.149   8.420 -0.8031 -0.9881 -2.6633
   36POPC     N 4771   1.991   2.419  10.834 -0.3573  0.0217 -0.3597
   36POPC   C12 4772   2.071   2.300  10.783  0.1152 -0.2347  0.2115
   36POPC  H12A 4773   2.004   2.224  10.745  2.4165 -1.3138 -2.0201
   36POPC  H12B 4774   2.124   2.251  10.864 -0.3396 -2.5913 -0.8142
   36POPC   C13 4775   1.900   2.362  10.948  0.1115  0.0568  0.1972
   36POPC  H13A 4776   1.933   2.270  10.995  0.0524 -1.1549 -1.9647
   36POPC  H13B 4777   1.857   2.439  11.009  0.3562  1.5089 -1.3665
   36POPC  H13C 4778   1.818   2.315  10.895 -0.5383 -1.1121  2.1467
   36POPC   C14 4779   2.084   2.510  10.899  0.7728 -0.4290  0.4212
   36POPC  H14A 4780   2.130   2.473  10.989  0.8551 -2.7886 -0.5065
   36POPC  H14B 4781   2.155   2.536  10.821 -2.7717  0.5161 -2.8163
   36POPC  H14C 4782   2.030   2.600  10.925  1.6341  0.3443 -0.4100
   36POPC   C15 4783   1.907   2.489  10.739  0.3634 -0.3662 -0.1266
   36POPC  H15A 4784   1.974   2.552  10.682 -1.0572  1.0593 -0.2675
   36POPC  H15B 4785   1.840   2.553  10.793 -0.6361 -0.3621 -1.3313
   36POPC  H15C 4786   1.842   2.430  10.676 -1.9984  0.9196  0.9890
   36POPC   C11 4787   2.172   2.328  10.662  0.7078  0.6204 -0.2756
   36POPC  H11A 4788   2.109   2.359  10.575 -0.7974 -1.4277  0.0131
   36POPC  H11B 4789   2.208   2.230  10.625  0.3407  0.1040  0.6842
   36POPC     P 4790   2.406   2.400  10.755  0.4591 -0.8090  0.0975
   36POPC   O13 4791   2.372   2.291  10.847  0.0628  0.9292 -0.0311
   36POPC   O14 4792   2.454   2.530  10.810 -0.2170 -0.1409  0.0684
   36POPC   O12 4793   2.268   2.430  10.684  0.0007  0.0320  0.0231
   36POPC   O11 4794   2.496   2.352  10.636  0.4606 -0.5905 -0.1148
   36POPC    C1 4795   2.499   2.424  10.510  0.6364 -0.0127 -0.0462
   36POPC    HA 4796   2.420   2.503  10.512 -0.1963 -0.8280  0.0380
   36POPC    HB 4797   2.456   2.367  10.425  1.7452 -1.8904  0.5973
   36POPC    C2 4798   2.635   2.467  10.471 -0.7333  0.0837 -0.0809
   36POPC    HS 4799   2.693   2.485  10.564  2.3800 -2.1420 -1.3856
   36POPC   O21 4800   2.631   2.588  10.398  0.2898  0.0288  0.0911
   36POPC   C21 4801   2.741   2.658  10.385 -0.4403 -0.9313 -0.2520
   36POPC   O22 4802   2.851   2.629  10.439 -0.0040  0.2948  0.2120
   36POPC   C22 4803   2.717   2.771  10.286  0.4745 -0.3485  0.2385
   36POPC   H2R 4804   2.684   2.859  10.345  2.9014  1.0224 -0.3188
   36POPC   H2S 4805   2.638   2.744  10.212  0.4872  1.2998 -0.4363
   36POPC    C3 4806   2.714   2.355  10.397 -0.4368  0.0680  0.3615
   36POPC    HX 4807   2.712   2.260  10.454 -1.5775 -1.1295 -1.5741
   36POPC    HY 4808   2.818   2.389  10.378  0.7731 -3.2946  0.3430
   36POPC   O31 4809   2.651   2.317  10.275 -0.2082  0.4017  0.1468
   36POPC   C31 4810   2.687   2.374  10.164  0.6276  0.5208 -0.2997
   36POPC   O32 4811   2.764   2.467  10.151  0.2731  0.2149  0.1368
   36POPC   C32 4812   2.621   2.300  10.053  0.5942 -0.3503  0.3311
   36POPC   H2X 4813   2.512   2.312  10.069  0.7295 -0.9691  1.9261
   36POPC   H2Y 4814   2.655   2.195  10.045 -0.5524 -0.6226 -1.1460
   36POPC   C23 4815   2.838   2.821  10.201 -0.1098  1.0636 -0.3500
   36POPC   H3R 4816   2.887   2.737  10.147 -0.8334  2.7400 -3.9157
   36POPC   H3S 4817   2.918   2.860  10.267 -1.6872  2.9930  0.5216
   36POPC   C24 4818   2.805   2.951  10.110 -0.2574  0.5285 -0.3890
   36POPC   H4R 4819   2.893   2.970  10.046 -0.4997  0.9296 -0.6102
   36POPC   H4S 4820   2.800   3.042  10.174  1.2373  1.2986 -1.3178
   36POPC   C25 4821   2.689   2.938  10.013  0.0149 -0.5665 -0.1255
   36POPC   H5R 4822   2.589   2.930  10.060 -0.7166  0.8603 -1.3411
   36POPC   H5S 4823   2.693   2.837   9.966 -2.6050  0.1395 -2.1482
   36POPC   C26 4824   2.689   3.058   9.914 -0.4932  0.4175 -0.8583
   36POPC   H6R 4825   2.789   3.067   9.866 -0.0347  2.1092  0.2977
   36POPC   H6S 4826   2.682   3.149   9.978  1.1945  0.1813 -0.2739
   36POPC   C27 4827   2.570   3.050   9.820  0.6863 -0.5823  0.1087
   36POPC   H7R 4828   2.546   3.150   9.778  3.9361 -0.5701 -2.0441
   36POPC   H7S 4829   2.481   3.007   9.872  0.7824  0.4431  1.1823
   36POPC   C28 4830   2.606   2.951   9.705 -0.3007 -0.5920  0.4594
   36POPC   H8R 4831   2.506   2.911   9.677 -0.1921 -0.0664 -0.7382
   36POPC   H8S 4832   2.663   2.862   9.740 -0.9936 -0.5992  1.6165
   36POPC   C29 4833   2.665   3.022   9.585 -0.1241 -0.2743 -0.5172
   36POPC   H91 4834   2.738   3.097   9.620 -2.9242  2.0222  0.7748
   36POPC  C210 4835   2.617   3.014   9.454 -0.8847 -0.4512 -0.3654
   36POPC  H101 4836   2.679   3.061   9.376  0.8771  2.3509  2.4780
   36POPC  C211 4837   2.506   2.920   9.409  0.2597 -0.6678 -0.0537
   36POPC  H11R 4838   2.436   2.908   9.493  1.1896  1.1733  1.0626
   36POPC  H11S 4839   2.545   2.818   9.392  1.0637 -0.5175  0.8075
   36POPC  C212 4840   2.411   2.976   9.294 -0.0808 -0.1667 -0.1906
   36POPC  H12R 4841   2.380   3.077   9.328  0.8597  0.1004 -0.1237
   36POPC  H12S 4842   2.322   2.917   9.262 -0.6243  0.0699  0.8577
   36POPC  C213 4843   2.487   2.985   9.153 -0.2010  0.2361  0.0643
   36POPC  H13R 4844   2.505   2.875   9.147 -0.0899  0.1783  1.2189
   36POPC  H13S 4845   2.584   3.038   9.158 -0.4012  0.6351 -0.2636
   36POPC  C214 4846   2.404   3.053   9.040 -0.1020  0.0663  0.7821
   36POPC  H14R 4847   2.379   3.157   9.071  1.1846 -0.1612  2.7455
   36POPC  H14S 4848   2.309   3.001   9.019 -0.6422  1.6250 -0.8940
   36POPC  C215 4849   2.464   3.080   8.911 -0.6287 -0.3502  0.9919
   36POPC  H15R 4850   2.390   3.126   8.842  0.9698  1.3757  0.2989
   36POPC  H15S 4851   2.487   2.985   8.859 -3.4281 -0.1349 -0.8589
   36POPC  C216 4852   2.586   3.166   8.908  0.3887  0.3815 -0.0349
   36POPC  H16R 4853   2.668   3.103   8.946  1.9721  1.6039 -1.2773
   36POPC  H16S 4854   2.570   3.266   8.956  0.1985  0.2417  0.1955
   36POPC  C217 4855   2.634   3.210   8.764  0.4755 -0.4656 -0.5176
   36POPC  H17R 4856   2.653   3.115   8.708 -1.2927 -2.2807  1.7245
   36POPC  H17S 4857   2.727   3.270   8.759  1.1724 -1.5653 -1.3286
   36POPC  C218 4858   2.531   3.278   8.676  0.0256  0.0319  0.2314
   36POPC  H18R 4859   2.450   3.213   8.637 -0.5024  1.1727 -0.6603
   36POPC  H18S 4860   2.592   3.314   8.590 -1.7042  0.8583 -0.7108
   36POPC  H18T 4861   2.484   3.370   8.720  0.9926  1.2509 -1.1927
   36POPC   C33 4862   2.660   2.373   9.924 -0.0098 -0.1394  0.4965
   36POPC   H3X 4863   2.620   2.305   9.846  0.4006 -0.6751  0.7390
   36POPC   H3Y 4864   2.769   2.385   9.907 -0.5857  0.9878 -3.0580
   36POPC   C34 4865   2.569   2.491   9.899  0.0953 -0.8412  0.2237
   36POPC   H4X 4866   2.564   2.558   9.987 -0.6273 -0.3148 -0.2039
   36POPC   H4Y 4867   2.465   2.454   9.882 -0.1314 -1.7542  3.0338
   36POPC   C35 4868   2.610   2.583   9.779 -0.0383  0.8346 -0.5534
   36POPC   H5X 4869   2.691   2.648   9.820  0.6588 -1.4389  1.9916
   36POPC   H5Y 4870   2.526   2.648   9.748 -1.3611 -0.6618 -0.2441
   36POPC   C36 4871   2.677   2.504   9.661 -0.2197 -0.5151 -0.1806
   36POPC   H6X 4872   2.637   2.401   9.655 -0.3019 -0.5646  0.9624
   36POPC   H6Y 4873   2.784   2.490   9.689 -0.1940 -0.6281 -0.3333
   36POPC   C37 4874   2.661   2.575   9.534 -0.2293  0.3661 -0.3720
   36POPC   H7X 4875   2.724   2.667   9.527  1.3125 -0.5310  1.0972
   36POPC   H7Y 4876   2.558   2.614   9.524 -1.4328 -1.7815  2.4248
   36POPC   C38 4877   2.696   2.484   9.409  0.8100 -0.8660 -0.4930
   36POPC   H8X 4878   2.639   2.391   9.432  1.5121 -0.6904  2.4562
   36POPC   H8Y 4879   2.802   2.452   9.405  0.5639 -1.6540 -0.8329
   36POPC   C39 4880   2.644   2.572   9.285 -0.6185  0.0011  0.3654
   36POPC   H9X 4881   2.698   2.666   9.265 -2.1226  1.0101  0.8817
   36POPC   H9Y 4882   2.539   2.601   9.306 -0.8761 -0.1295 -0.6983
   36POPC  C310 4883   2.657   2.483   9.152  1.0498 -0.2678  0.1621
   36POPC  H10X 4884   2.589   2.396   9.166 -0.5739  0.8696 -0.3882
   36POPC  H10Y 4885   2.765   2.469   9.133  1.2510 -1.7338  2.0742
   36POPC  C311 4886   2.588   2.563   9.034  0.3179 -0.3441  0.3394
   36POPC  H11X 4887   2.652   2.650   9.010  0.6119 -1.0638 -1.7693
   36POPC  H11Y 4888   2.485   2.594   9.063 -0.2564 -2.2619  0.4909
   36POPC  C312 4889   2.577   2.466   8.916 -0.2626 -0.2875 -0.3815
   36POPC  H12X 4890   2.544   2.367   8.955 -0.4747  0.7648  2.2895
   36POPC  H12Y 4891   2.683   2.463   8.882  0.2259  0.2842  1.0257
   36POPC  C313 4892   2.475   2.517   8.804 -0.0785  0.0064  0.4970
   36POPC  H13X 4893   2.384   2.558   8.852 -1.5912  1.1343 -3.0229
   36POPC  H13Y 4894   2.457   2.442   8.724  2.6275 -0.4459  0.1871
   36POPC  C314 4895   2.540   2.630   8.722  0.1182  0.4565 -0.2733
   36POPC  H14X 4896   2.614   2.574   8.661 -1.8512 -1.5862 -0.9298
   36POPC  H14Y 4897   2.587   2.708   8.786 -0.5475 -0.9477  2.0695
   36POPC  C315 4898   2.431   2.691   8.636  0.1250  0.1057  0.0619
   36POPC  H15X 4899   2.336   2.720   8.686 -1.5490  0.0874 -2.8906
   36POPC  H15Y 4900   2.396   2.611   8.567  0.2513  0.8028 -0.8110
   36POPC  C316 4901   2.460   2.817   8.547 -0.8287 -0.1214 -0.4461
   36POPC  H16X 4902   2.563   2.812   8.505 -0.6309 -1.8760  0.1569
   36POPC  H16Y 4903   2.443   2.909   8.607  0.1612 -0.3192  0.1645
   36POPC  H16Z 4904   2.391   2.819   8.460 -0.9140 -0.8021 -0.4068
   37POPC     N 4905   1.326   3.072   6.481 -0.2031  0.2622  0.0617
   37POPC   C12 4906   1.241   2.956   6.444  0.9433 -0.0869 -0.4352
   37POPC  H12A 4907   1.234   2.948   6.336  2.5213  1.8711 -0.7343
   37POPC  H12B 4908   1.141   2.972   6.480  1.6909  0.4216  1.5211
   37POPC   C13 4909   1.348   3.095   6.622 -1.1191  0.3340  0.3011
   37POPC  H13A 4910   1.255   3.117   6.672 -0.4079  0.4091  1.6516
   37POPC  H13B 4911   1.382   2.999   6.660 -1.2140  0.3712  0.4827
   37POPC  H13C 4912   1.422   3.174   6.625 -1.7992  1.0575 -1.1507
   37POPC   C14 4913   1.466   3.068   6.423 -0.1589  0.4865  0.6176
   37POPC  H14A 4914   1.514   2.993   6.484 -0.0267 -0.6899 -0.8629
   37POPC  H14B 4915   1.459   3.030   6.322 -3.3892  1.3456  0.4225
   37POPC  H14C 4916   1.521   3.160   6.435  0.5421  0.3247 -1.0739
   37POPC   C15 4917   1.268   3.203   6.427  0.0437 -0.1631 -0.7034
   37POPC  H15A 4918   1.173   3.232   6.471  0.0477 -0.1171 -0.7245
   37POPC  H15B 4919   1.251   3.196   6.321  0.5669 -0.4980 -0.7682
   37POPC  H15C 4920   1.334   3.289   6.434  0.2323 -0.3855  0.5532
   37POPC   C11 4921   1.284   2.818   6.502  0.1434  0.0237  0.2236
   37POPC  H11A 4922   1.299   2.830   6.611 -0.4406 -0.0615  0.3199
   37POPC  H11B 4923   1.380   2.791   6.454  0.5085 -2.0954  2.0039
   37POPC     P 4924   1.137   2.668   6.335 -0.7629  0.0935  0.0780
   37POPC   O13 4925   1.060   2.545   6.351 -0.3981  0.3320  0.5723
   37POPC   O14 4926   1.259   2.669   6.249 -0.0254 -0.2500  0.2023
   37POPC   O12 4927   1.178   2.725   6.483 -0.4682  0.2598  0.2027
   37POPC   O11 4928   1.048   2.785   6.289 -0.7412 -0.1303  0.0656
   37POPC    C1 4929   0.907   2.785   6.284 -0.5010 -0.3591  0.4596
   37POPC    HA 4930   0.861   2.684   6.293  0.4748 -1.1135 -2.2266
   37POPC    HB 4931   0.873   2.830   6.188  1.9798  3.4930  1.1810
   37POPC    C2 4932   0.852   2.874   6.401  0.2388  0.0718  0.5966
   37POPC    HS 4933   0.878   2.978   6.375 -0.2944 -0.3349 -1.8346
   37POPC   O21 4934   0.906   2.828   6.530 -0.3913 -0.4591 -0.0298
   37POPC   C21 4935   0.955   2.922   6.614  0.2325  0.1417 -0.1707
   37POPC   O22 4936   0.965   3.038   6.590 -0.3139  0.3380  0.3479
   37POPC   C22 4937   1.001   2.851   6.746 -0.0007 -0.5219  0.5549
   37POPC   H2R 4938   1.080   2.774   6.733  1.4554  0.8061  1.2307
   37POPC   H2S 4939   0.916   2.801   6.796  1.4985 -0.5463  3.2887
   37POPC    C3 4940   0.699   2.865   6.409  0.2685 -0.1455  0.3081
   37POPC    HX 4941   0.676   2.756   6.411  1.3230 -0.3692  1.1921
   37POPC    HY 4942   0.659   2.905   6.313  0.4364  0.1639  0.3663
   37POPC   O31 4943   0.646   2.929   6.521  0.3397  0.4161 -0.1347
   37POPC   C31 4944   0.655   3.064   6.521  1.0113  1.0251 -0.4133
   37POPC   O32 4945   0.694   3.125   6.426 -0.5260  0.1596  0.4049
   37POPC   C32 4946   0.608   3.124   6.656 -0.7200 -0.1207 -0.1314
   37POPC   H2X 4947   0.502   3.090   6.663 -0.5564 -0.3021  2.1793
   37POPC   H2Y 4948   0.612   3.233   6.633 -0.1147 -0.0387  0.3487
   37POPC   C23 4949   1.047   2.958   6.851 -0.1431 -0.0865 -0.5776
   37POPC   H3R 4950   0.983   3.045   6.877  3.1825  2.1604  0.7521
   37POPC   H3S 4951   1.141   3.002   6.810 -1.1763  0.8165 -2.0624
   37POPC   C24 4952   1.086   2.903   6.994  0.9575  0.2398  0.4711
   37POPC   H4R 4953   1.153   2.978   7.041  3.1201  0.2718 -2.3521
   37POPC   H4S 4954   1.157   2.820   6.974  0.6659  0.2015 -0.4319
   37POPC   C25 4955   0.971   2.859   7.077  0.3508 -0.4039  0.1719
   37POPC   H5R 4956   0.922   2.785   7.010 -1.6955  0.6133  0.4714
   37POPC   H5S 4957   0.906   2.945   7.102  1.6131  0.1280  1.8112
   37POPC   C26 4958   1.004   2.801   7.217  0.1000 -0.2441  0.1930
   37POPC   H6R 4959   1.046   2.885   7.277 -0.1984  0.7169 -0.8939
   37POPC   H6S 4960   1.083   2.728   7.191  2.4796  2.4291 -0.6617
   37POPC   C27 4961   0.883   2.736   7.284  0.1306 -0.6127 -0.2271
   37POPC   H7R 4962   0.859   2.647   7.222  0.8333 -1.1314  0.2303
   37POPC   H7S 4963   0.795   2.803   7.275  0.3270 -0.3692 -0.3460
   37POPC   C28 4964   0.912   2.702   7.436  0.1423  0.3033  0.5613
   37POPC   H8R 4965   0.926   2.802   7.482 -2.7332  0.4615  1.3094
   37POPC   H8S 4966   1.010   2.653   7.452  1.3925  2.9887  1.6625
   37POPC   C29 4967   0.798   2.627   7.510  0.2681 -0.0458 -0.0646
   37POPC   H91 4968   0.756   2.549   7.444 -0.5502 -0.5660  1.0366
   37POPC  C210 4969   0.754   2.637   7.640  0.1880  0.0708  0.4389
   37POPC  H101 4970   0.670   2.573   7.671 -0.0155 -0.9020 -1.9063
   37POPC  C211 4971   0.805   2.727   7.745 -0.4593 -0.2556 -0.8544
   37POPC  H11R 4972   0.725   2.802   7.766  1.7255  1.3514  2.5622
   37POPC  H11S 4973   0.899   2.779   7.718 -1.0447  0.8886 -0.7338
   37POPC  C212 4974   0.809   2.665   7.889 -0.4046  0.4012  0.3643
   37POPC  H12R 4975   0.860   2.737   7.956 -1.1372  1.7360 -0.4778
   37POPC  H12S 4976   0.876   2.576   7.891 -0.7424  0.0936 -1.1375
   37POPC  C213 4977   0.676   2.635   7.957  0.0443 -0.3920 -1.1422
   37POPC  H13R 4978   0.625   2.544   7.919  1.4323 -2.2354  1.1475
   37POPC  H13S 4979   0.597   2.711   7.935 -0.8302 -0.5771  1.0526
   37POPC  C214 4980   0.684   2.632   8.112 -0.0826 -0.1195  0.3746
   37POPC  H14R 4981   0.583   2.606   8.151 -0.6034 -2.4488 -2.2106
   37POPC  H14S 4982   0.702   2.738   8.140 -2.3814  0.8780 -1.5336
   37POPC  C215 4983   0.793   2.543   8.168  0.2093  0.4133  0.2076
   37POPC  H15R 4984   0.886   2.581   8.119 -0.5761  0.0183 -1.6976
   37POPC  H15S 4985   0.780   2.435   8.145  0.1333  0.1210  1.5540
   37POPC  C216 4986   0.783   2.551   8.316 -0.5347  0.1502  0.3065
   37POPC  H16R 4987   0.689   2.506   8.354 -1.8185  0.6574 -2.0716
   37POPC  H16S 4988   0.784   2.660   8.334  1.4084  0.7211 -2.5949
   37POPC  C217 4989   0.905   2.498   8.386  0.3332 -0.5105  0.0824
   37POPC  H17R 4990   0.993   2.557   8.354  0.4910  0.1402  1.6320
   37POPC  H17S 4991   0.926   2.392   8.359  0.2147 -0.3456 -0.6621
   37POPC  C218 4992   0.900   2.519   8.544 -0.3305 -0.7004  0.8057
   37POPC  H18R 4993   0.988   2.489   8.604  1.5626  0.2853 -1.3031
   37POPC  H18S 4994   0.813   2.463   8.584 -0.0190 -0.1895  2.2572
   37POPC  H18T 4995   0.890   2.629   8.557 -0.9433 -0.7474  0.7243
   37POPC   C33 4996   0.684   3.084   6.784  0.0956  0.2698 -0.0770
   37POPC   H3X 4997   0.684   3.161   6.865  0.1804  0.5196 -0.3119
   37POPC   H3Y 4998   0.791   3.073   6.759 -0.2563 -1.0729 -1.0928
   37POPC   C34 4999   0.626   2.953   6.837  0.1062 -0.1694  0.3048
   37POPC   H4X 5000   0.697   2.893   6.897 -0.3405  2.9958  4.4253
   37POPC   H4Y 5001   0.599   2.889   6.750  0.3523 -2.2927  1.7289
   37POPC   C35 5002   0.495   2.978   6.919 -0.7759 -0.2201  0.2771
   37POPC   H5X 5003   0.418   3.031   6.859 -0.8116  0.8124  1.2096
   37POPC   H5Y 5004   0.533   3.035   7.006  3.7535  1.7869 -2.6515
   37POPC   C36 5005   0.428   2.842   6.970  0.7337 -0.7899  0.0765
   37POPC   H6X 5006   0.382   2.782   6.888 -1.4363  0.2274  0.4664
   37POPC   H6Y 5007   0.347   2.882   7.035  1.4622  0.1059  0.4448
   37POPC   C37 5008   0.520   2.762   7.058 -0.0064  0.2784  0.8936
   37POPC   H7X 5009   0.545   2.825   7.146 -2.5461  1.6229  0.7662
   37POPC   H7Y 5010   0.611   2.725   7.007 -0.1782  0.0570  0.7467
   37POPC   C38 5011   0.457   2.637   7.103 -0.6310 -0.4166  0.3005
   37POPC   H8X 5012   0.463   2.554   7.028  0.6355 -1.8488  1.9146
   37POPC   H8Y 5013   0.351   2.646   7.134 -1.3018 -1.8847 -1.3840
   37POPC   C39 5014   0.524   2.578   7.232  0.9263  0.7324 -0.1209
   37POPC   H9X 5015   0.505   2.649   7.315 -3.3209 -1.5275  1.1740
   37POPC   H9Y 5016   0.632   2.563   7.213  0.7283  0.1877 -0.9015
   37POPC  C310 5017   0.458   2.450   7.267  0.4386  0.6101  0.4992
   37POPC  H10X 5018   0.455   2.386   7.176 -1.6961  2.0118 -0.4959
   37POPC  H10Y 5019   0.350   2.475   7.278  0.4605  2.5857 -2.5625
   37POPC  C311 5020   0.513   2.370   7.385 -0.0357 -0.9824 -0.0262
   37POPC  H11X 5021   0.525   2.446   7.465  0.7210  0.4214 -1.4055
   37POPC  H11Y 5022   0.610   2.319   7.366  1.3405  0.6788  2.0972
   37POPC  C312 5023   0.416   2.268   7.435  0.3871 -0.1684 -0.8513
   37POPC  H12X 5024   0.393   2.210   7.343 -0.3027 -1.2067 -0.0585
   37POPC  H12Y 5025   0.320   2.316   7.463  0.3576 -0.6469 -0.1030
   37POPC  C313 5026   0.477   2.186   7.553  0.0554 -0.4797  0.2194
   37POPC  H13X 5027   0.563   2.132   7.508  1.1548  1.1805  0.2240
   37POPC  H13Y 5028   0.399   2.119   7.596 -0.7726  0.9789  1.0850
   37POPC  C314 5029   0.528   2.258   7.675  0.1435 -0.0374 -0.5928
   37POPC  H14X 5030   0.440   2.309   7.719  0.4274  0.8219 -1.0050
   37POPC  H14Y 5031   0.603   2.337   7.651  0.7675 -0.2290  0.6270
   37POPC  C315 5032   0.600   2.172   7.782 -0.0087 -0.1347  0.2273
   37POPC  H15X 5033   0.682   2.114   7.733 -0.4124 -0.0489 -0.5624
   37POPC  H15Y 5034   0.532   2.091   7.818 -0.3299  0.4412  0.9450
   37POPC  C316 5035   0.650   2.246   7.901  0.0808 -0.8795 -0.3693
   37POPC  H16X 5036   0.725   2.190   7.961 -1.0878 -0.0616  2.0295
   37POPC  H16Y 5037   0.566   2.274   7.969  0.8934  1.1618 -0.1182
   37POPC  H16Z 5038   0.703   2.338   7.867  1.7920 -1.9608 -0.7552
   38POPC     N 5039   2.167   4.461   6.327  0.0572  0.3399 -0.4459
   38POPC   C12 5040   2.307   4.404   6.299 -0.1845  0.6936  0.4842
   38POPC  H12A 5041   2.380   4.482   6.287 -0.6112  0.7353 -2.7058
   38POPC  H12B 5042   2.294   4.356   6.203  0.1107  2.4309 -0.4562
   38POPC   C13 5043   2.159   4.536   6.454 -0.2502 -0.9434  0.2448
   38POPC  H13A 5044   2.231   4.617   6.462 -0.5989 -0.4615 -1.2292
   38POPC  H13B 5045   2.060   4.562   6.489 -0.8202 -1.6116 -0.8332
   38POPC  H13C 5046   2.187   4.469   6.535 -1.2835 -0.8170  0.7176
   38POPC   C14 5047   2.132   4.551   6.212  0.2049 -0.1528  0.0008
   38POPC  H14A 5048   2.208   4.628   6.207  0.2081 -0.0766  1.0291
   38POPC  H14B 5049   2.142   4.492   6.122  1.3851 -2.0057  1.2658
   38POPC  H14C 5050   2.030   4.586   6.223 -0.5956 -2.3446 -0.0208
   38POPC   C15 5051   2.072   4.351   6.342 -0.1752  0.4083 -0.3893
   38POPC  H15A 5052   2.108   4.270   6.403  1.1837  0.4832 -1.0582
   38POPC  H15B 5053   2.035   4.309   6.250 -1.1684  0.4856 -0.0368
   38POPC  H15C 5054   1.982   4.382   6.394  1.1873  1.8862  1.2136
   38POPC   C11 5055   2.370   4.286   6.386 -0.9129 -0.3950 -0.0270
   38POPC  H11A 5056   2.380   4.325   6.489  0.5953  0.5603 -0.4983
   38POPC  H11B 5057   2.470   4.276   6.337 -0.6316  2.6666 -0.2679
   38POPC     P 5058   2.340   4.024   6.357 -0.3503  0.2750  0.0152
   38POPC   O13 5059   2.406   4.017   6.224  0.0944 -0.2310  0.0001
   38POPC   O14 5060   2.246   3.919   6.400 -0.2055  0.2188 -0.1336
   38POPC   O12 5061   2.298   4.167   6.398 -0.6666 -0.3647  0.0305
   38POPC   O11 5062   2.465   4.020   6.456 -0.1751 -0.0465 -0.7664
   38POPC    C1 5063   2.443   4.035   6.599 -0.4919  0.1348  0.9198
   38POPC    HA 5064   2.351   3.987   6.638  0.2852 -0.0357  2.6224
   38POPC    HB 5065   2.432   4.142   6.628  1.4572 -0.0729  2.6180
   38POPC    C2 5066   2.558   3.978   6.673  0.5251  0.2296  0.4173
   38POPC    HS 5067   2.548   3.871   6.700  0.5922  0.0382 -0.2801
   38POPC   O21 5068   2.578   4.060   6.791 -0.3099  0.1502 -0.0468
   38POPC   C21 5069   2.483   4.050   6.880 -0.4241 -0.3476 -0.0503
   38POPC   O22 5070   2.397   3.969   6.885  0.4605  0.1016 -0.2236
   38POPC   C22 5071   2.506   4.157   6.998  0.2211  0.1412  0.2651
   38POPC   H2R 5072   2.428   4.122   7.068 -0.6711 -0.5946 -1.0464
   38POPC   H2S 5073   2.473   4.250   6.948  2.1288  0.7145  0.0059
   38POPC    C3 5074   2.684   3.995   6.593 -0.0229  0.3668 -0.3098
   38POPC    HX 5075   2.679   4.095   6.545 -0.4932  0.7196  0.4623
   38POPC    HY 5076   2.686   3.923   6.508 -2.2776 -1.2347  0.8861
   38POPC   O31 5077   2.803   3.973   6.679  0.5681 -0.2961  0.0373
   38POPC   C31 5078   2.869   4.082   6.719 -0.3964  0.2068  0.3364
   38POPC   O32 5079   2.830   4.197   6.683 -0.2585 -0.1923  0.0269
   38POPC   C32 5080   2.997   4.053   6.797 -0.4473  1.2554  0.1614
   38POPC   H2X 5081   3.074   4.133   6.793  0.3952  0.7032  3.0951
   38POPC   H2Y 5082   3.036   3.958   6.756  0.3445  2.0627 -1.0127
   38POPC   C23 5083   2.657   4.164   7.041  0.3202  0.5298  0.0068
   38POPC   H3R 5084   2.704   4.189   6.944 -1.9405  1.2844 -0.9497
   38POPC   H3S 5085   2.696   4.069   7.085 -1.1946  0.2920  0.9026
   38POPC   C24 5086   2.682   4.273   7.140  0.1569 -0.1280 -0.1559
   38POPC   H4R 5087   2.773   4.256   7.203  0.0700  1.1912  0.3396
   38POPC   H4S 5088   2.592   4.259   7.204  0.3475 -2.3767 -0.2839
   38POPC   C25 5089   2.688   4.416   7.077 -0.4973 -0.3625 -0.9066
   38POPC   H5R 5090   2.620   4.414   6.989 -2.4426 -1.9306  0.5039
   38POPC   H5S 5091   2.793   4.416   7.043  0.4272 -1.6226  1.6429
   38POPC   C26 5092   2.679   4.531   7.179  0.5249 -1.3268  0.0211
   38POPC   H6R 5093   2.757   4.516   7.257  0.4619  3.2669  1.2598
   38POPC   H6S 5094   2.579   4.538   7.229  1.2004  0.1263  1.2488
   38POPC   C27 5095   2.691   4.664   7.114 -0.6058  0.4096  0.4540
   38POPC   H7R 5096   2.609   4.686   7.043 -1.2511 -2.0073  0.3339
   38POPC   H7S 5097   2.778   4.650   7.047  0.1326  1.5654  1.1479
   38POPC   C28 5098   2.706   4.782   7.213 -0.7576  0.3393 -0.0113
   38POPC   H8R 5099   2.729   4.869   7.147  0.4331 -0.3299 -0.5154
   38POPC   H8S 5100   2.796   4.768   7.277 -1.3441 -1.2470  0.5080
   38POPC   C29 5101   2.582   4.813   7.284  0.0553  0.5027  0.0532
   38POPC   H91 5102   2.505   4.847   7.213  0.5557  1.2366 -0.1605
   38POPC  C210 5103   2.562   4.808   7.421  0.1553 -0.1624  0.3089
   38POPC  H101 5104   2.456   4.813   7.450 -0.2006 -1.2669 -0.7361
   38POPC  C211 5105   2.659   4.765   7.529 -0.1127 -0.1465 -0.1239
   38POPC  H11R 5106   2.625   4.797   7.630  2.6408  2.7345  0.0407
   38POPC  H11S 5107   2.749   4.829   7.519 -0.9846  0.8244 -2.3094
   38POPC  C212 5108   2.708   4.622   7.534  0.0559  0.3361  0.4256
   38POPC  H12R 5109   2.776   4.607   7.621 -0.5781 -0.4450  0.8014
   38POPC  H12S 5110   2.753   4.582   7.440 -0.4696 -2.8778  1.3913
   38POPC  C213 5111   2.600   4.521   7.559 -0.0274 -0.2392  0.6662
   38POPC  H13R 5112   2.532   4.525   7.470  2.2612 -0.0098 -1.1606
   38POPC  H13S 5113   2.527   4.541   7.640 -0.4160  1.7060 -0.1132
   38POPC  C214 5114   2.639   4.372   7.567  1.1765 -0.6172  0.7349
   38POPC  H14R 5115   2.683   4.348   7.666  1.9634 -2.1850  0.0336
   38POPC  H14S 5116   2.721   4.356   7.494 -2.8978 -1.7714 -4.1376
   38POPC  C215 5117   2.540   4.262   7.524  0.3182  0.5754 -0.3280
   38POPC  H15R 5118   2.493   4.306   7.434  1.7721  1.0194 -0.9095
   38POPC  H15S 5119   2.464   4.241   7.602 -0.1604 -0.1638 -0.9677
   38POPC  C216 5120   2.608   4.136   7.468 -0.4099 -0.0023  1.1385
   38POPC  H16R 5121   2.660   4.083   7.550  1.7441  1.3994  0.7524
   38POPC  H16S 5122   2.691   4.169   7.402  1.0682 -1.6013  2.1329
   38POPC  C217 5123   2.504   4.047   7.413  0.4192 -0.0237 -1.2297
   38POPC  H17R 5124   2.452   4.078   7.320  1.7347 -0.9865 -2.3274
   38POPC  H17S 5125   2.416   4.044   7.481 -0.4198  1.0905 -2.2344
   38POPC  C218 5126   2.560   3.906   7.395  0.2875 -0.4895 -0.0587
   38POPC  H18R 5127   2.641   3.918   7.320 -0.8870  2.6054 -0.9993
   38POPC  H18S 5128   2.488   3.833   7.351 -0.1646 -0.8636  1.2627
   38POPC  H18T 5129   2.589   3.867   7.495  0.8101  0.4250  0.1570
   38POPC   C33 5130   2.957   4.039   6.947  0.4562  0.4743  0.0230
   38POPC   H3X 5131   2.869   3.971   6.954  1.8873 -1.6507 -1.3749
   38POPC   H3Y 5132   2.940   4.142   6.986 -1.2871 -0.0175  0.6432
   38POPC   C34 5133   3.076   3.974   7.026  0.5759  0.5477  0.0603
   38POPC   H4X 5134   3.166   4.037   7.013  0.1536  1.3917  1.0999
   38POPC   H4Y 5135   3.089   3.874   6.979 -2.2688 -0.1663  0.6014
   38POPC   C35 5136   3.037   3.958   7.181  0.1157 -0.7460  0.7896
   38POPC   H5X 5137   3.098   3.873   7.217 -0.0723 -2.0477 -1.7378
   38POPC   H5Y 5138   2.929   3.937   7.189 -0.1462  0.2979  0.2267
   38POPC   C36 5139   3.059   4.093   7.250 -0.4751  0.5452  0.0992
   38POPC   H6X 5140   2.994   4.172   7.207 -2.0037  1.6569  3.9773
   38POPC   H6Y 5141   3.169   4.106   7.243  0.5275 -4.8695  1.3690
   38POPC   C37 5142   3.025   4.080   7.399 -0.6153  0.1265 -0.2775
   38POPC   H7X 5143   3.094   4.006   7.445 -1.0447 -0.8663 -1.1861
   38POPC   H7Y 5144   2.923   4.041   7.420 -0.2226 -0.6943  0.1529
   38POPC   C38 5145   3.035   4.201   7.493  0.0887  0.3225  0.4224
   38POPC   H8X 5146   2.973   4.286   7.456 -3.3178 -1.1445  2.3154
   38POPC   H8Y 5147   3.137   4.245   7.488  0.9507 -1.6069 -0.2829
   38POPC   C39 5148   3.005   4.170   7.643 -0.9025 -0.7653  0.3020
   38POPC   H9X 5149   3.099   4.116   7.671 -0.6879 -0.9141 -0.6876
   38POPC   H9Y 5150   2.919   4.104   7.664 -0.0299 -1.4895  1.8172
   38POPC  C310 5151   2.993   4.303   7.717  0.4951  0.3021 -0.7044
   38POPC  H10X 5152   2.910   4.355   7.666 -2.6933 -1.1844  2.5269
   38POPC  H10Y 5153   3.086   4.361   7.700  0.5477 -0.0181 -1.5610
   38POPC  C311 5154   2.989   4.285   7.873  0.0939 -0.3329 -0.1716
   38POPC  H11X 5155   3.075   4.218   7.897  0.3465 -0.3717 -1.1446
   38POPC  H11Y 5156   2.893   4.242   7.908  0.8166 -1.9296 -0.0551
   38POPC  C312 5157   3.015   4.421   7.947  1.2541  0.3505  0.4189
   38POPC  H12X 5158   3.119   4.455   7.924  0.7698  1.9144  0.4069
   38POPC  H12Y 5159   3.006   4.411   8.057 -1.4798 -1.2308  0.1333
   38POPC  C313 5160   2.916   4.538   7.904 -0.1384 -0.2001 -0.3073
   38POPC  H13X 5161   2.909   4.556   7.795  0.2232  0.9256 -0.1684
   38POPC  H13Y 5162   2.950   4.635   7.948  1.0247 -0.7001 -0.0723
   38POPC  C314 5163   2.773   4.517   7.954  0.4683  0.6727  0.4194
   38POPC  H14X 5164   2.777   4.485   8.060  1.1456 -0.1697  0.1510
   38POPC  H14Y 5165   2.732   4.429   7.899 -0.2484  0.6750  0.9386
   38POPC  C315 5166   2.661   4.631   7.927 -0.6834  0.0520 -0.0210
   38POPC  H15X 5167   2.676   4.670   7.825 -2.0203  2.6405  0.6813
   38POPC  H15Y 5168   2.690   4.713   7.996 -1.7802 -0.3860  1.0159
   38POPC  C316 5169   2.520   4.596   7.961 -0.4290  0.4102 -0.2964
   38POPC  H16X 5170   2.450   4.680   7.941 -1.1535  0.1194  0.9557
   38POPC  H16Y 5171   2.524   4.571   8.069 -0.8500 -0.0191 -0.3771
   38POPC  H16Z 5172   2.481   4.514   7.897  2.9408 -2.3209  0.8439
   39POPC     N 5173   4.745   0.682   5.665  0.3503 -0.1228  0.0851
   39POPC   C12 5174   4.673   0.585   5.753  0.3004  0.0568 -0.2395
   39POPC  H12A 5175   4.726   0.491   5.753  0.3191  0.0673 -0.1679
   39POPC  H12B 5176   4.581   0.555   5.703  0.1527  0.8585 -0.4609
   39POPC   C13 5177   4.667   0.811   5.662 -0.0389  0.1566  0.2540
   39POPC  H13A 5178   4.609   0.831   5.751  2.2700  0.3693  1.8203
   39POPC  H13B 5179   4.731   0.898   5.652 -1.9935  1.5092 -1.0199
   39POPC  H13C 5180   4.605   0.808   5.574 -1.1749  0.9830  0.9938
   39POPC   C14 5181   4.876   0.701   5.726 -0.4828 -0.0322 -0.2491
   39POPC  H14A 5182   4.939   0.763   5.665 -0.4829 -0.1416 -0.3602
   39POPC  H14B 5183   4.861   0.748   5.822 -1.9000  1.9758 -1.3917
   39POPC  H14C 5184   4.922   0.604   5.737 -0.3658  0.0187 -0.2909
   39POPC   C15 5185   4.767   0.617   5.531  0.5846 -0.0180  0.0224
   39POPC  H15A 5186   4.680   0.592   5.473  0.6835  2.5419 -1.3686
   39POPC  H15B 5187   4.829   0.530   5.548 -0.3754 -0.1376  3.5543
   39POPC  H15C 5188   4.820   0.690   5.471  2.2367 -0.8521  0.3839
   39POPC   C11 5189   4.630   0.636   5.893  0.0975  0.0333 -0.4496
   39POPC  H11A 5190   4.553   0.569   5.937 -0.2691  0.5290 -0.3282
   39POPC  H11B 5191   4.572   0.730   5.886 -1.4435 -0.7934  0.6906
   39POPC     P 5192   4.799   0.535   6.075  0.2557  0.0816 -0.3653
   39POPC   O13 5193   4.946   0.551   6.067  0.5815 -0.4429 -0.4093
   39POPC   O14 5194   4.748   0.403   6.030 -0.4344 -0.2569 -0.5457
   39POPC   O12 5195   4.737   0.656   5.985 -0.5490  0.6842  0.1371
   39POPC   O11 5196   4.764   0.560   6.226 -0.0412 -0.2583 -0.9547
   39POPC    C1 5197   4.632   0.595   6.265 -1.1803  0.8131 -0.5168
   39POPC    HA 5198   4.572   0.501   6.263  1.5945 -1.0672 -1.8963
   39POPC    HB 5199   4.573   0.668   6.206 -2.6763 -0.0584 -0.1428
   39POPC    C2 5200   4.625   0.649   6.403  0.1627 -0.4634 -0.1095
   39POPC    HS 5201   4.663   0.753   6.400  0.5437 -0.6192 -2.2318
   39POPC   O21 5202   4.697   0.574   6.498  0.2532  0.0102  0.3336
   39POPC   C21 5203   4.828   0.604   6.510  0.3830 -0.2746  0.4893
   39POPC   O22 5204   4.890   0.694   6.453  0.0584  0.8391 -0.3223
   39POPC   C22 5205   4.886   0.524   6.622 -0.3363  0.0093  0.2729
   39POPC   H2R 5206   4.853   0.420   6.598 -1.0965  0.5097 -0.9607
   39POPC   H2S 5207   4.844   0.561   6.718 -1.3625  3.5785 -1.4028
   39POPC    C3 5208   4.476   0.664   6.461 -0.6996  0.7282  0.0334
   39POPC    HX 5209   4.446   0.560   6.486 -0.6707  0.6168 -0.3805
   39POPC    HY 5210   4.397   0.707   6.397  0.8534 -0.4758 -2.8911
   39POPC   O31 5211   4.479   0.722   6.591  0.5055  0.3707 -0.2251
   39POPC   C31 5212   4.470   0.855   6.586 -0.4158 -0.2103  0.1879
   39POPC   O32 5213   4.450   0.918   6.480  0.2080 -0.4081  0.3896
   39POPC   C32 5214   4.491   0.922   6.726 -0.2192  0.2059  0.0774
   39POPC   H2X 5215   4.568   1.000   6.707 -1.5217  1.2780 -0.9825
   39POPC   H2Y 5216   4.398   0.967   6.766  0.2009  1.4286 -0.2705
   39POPC   C23 5217   5.037   0.506   6.610  0.4125 -0.5753 -0.8196
   39POPC   H3R 5218   5.080   0.567   6.692  0.3656 -0.3214 -0.9805
   39POPC   H3S 5219   5.081   0.542   6.514  0.6659  1.4065  0.0032
   39POPC   C24 5220   5.084   0.360   6.627  0.1967  0.0051  0.4665
   39POPC   H4R 5221   5.195   0.365   6.632  0.3251 -2.3556  1.6599
   39POPC   H4S 5222   5.060   0.301   6.536  2.2565  0.6142 -0.5473
   39POPC   C25 5223   5.036   0.283   6.754 -0.1081 -0.2524  0.0667
   39POPC   H5R 5224   5.100   0.192   6.757  3.5966  2.1249  0.1032
   39POPC   H5S 5225   4.938   0.239   6.729  1.3019 -2.5307 -1.8879
   39POPC   C26 5226   5.049   0.362   6.881  0.0075 -0.4198 -0.1224
   39POPC   H6R 5227   4.979   0.449   6.878 -1.1964 -1.3805 -0.9169
   39POPC   H6S 5228   5.149   0.409   6.870  0.2354 -0.6877  0.7210
   39POPC   C27 5229   5.040   0.276   7.002  0.2901 -0.1137  0.1394
   39POPC   H7R 5230   5.098   0.183   6.980 -2.1079 -1.4752 -0.8765
   39POPC   H7S 5231   4.935   0.249   7.023  0.4322 -1.0883 -0.3322
   39POPC   C28 5232   5.098   0.341   7.126  0.4654  0.8003  0.7300
   39POPC   H8R 5233   5.199   0.385   7.109  1.1501 -0.6977  0.7281
   39POPC   H8S 5234   5.107   0.255   7.196 -0.9963 -0.0896 -0.1177
   39POPC   C29 5235   5.014   0.452   7.177  0.1053 -0.3048 -0.4761
   39POPC   H91 5236   5.017   0.544   7.117 -0.0465 -1.5692 -2.5360
   39POPC  C210 5237   4.952   0.458   7.295  0.0215 -0.9300  0.0605
   39POPC  H101 5238   4.908   0.557   7.316 -0.9997 -1.4512  0.4658
   39POPC  C211 5239   4.955   0.346   7.397 -0.1239 -0.5312  0.0455
   39POPC  H11R 5240   5.039   0.274   7.387  1.1173  1.0209 -1.3587
   39POPC  H11S 5241   4.858   0.294   7.401 -0.9392  0.9715  2.4808
   39POPC  C212 5242   4.975   0.407   7.537  0.1529  0.3678  0.4164
   39POPC  H12R 5243   4.982   0.324   7.610  0.6912  0.1736  0.1497
   39POPC  H12S 5244   4.886   0.470   7.560 -1.1533 -1.0935 -0.4278
   39POPC  C213 5245   5.115   0.477   7.560  0.3957 -0.4210 -0.2637
   39POPC  H13R 5246   5.113   0.572   7.502 -2.6292 -0.6745 -0.7268
   39POPC  H13S 5247   5.188   0.406   7.517 -0.0844 -0.3758 -1.1719
   39POPC  C214 5248   5.149   0.520   7.708  0.3553 -0.4054 -0.4968
   39POPC  H14R 5249   5.099   0.619   7.724  0.7292 -0.3190  0.2115
   39POPC  H14S 5250   5.258   0.536   7.721  0.5248  0.6455 -2.7969
   39POPC  C215 5251   5.106   0.421   7.819 -0.0886 -0.2065  1.1305
   39POPC  H15R 5252   5.161   0.328   7.793  2.3102  0.3941  3.6089
   39POPC  H15S 5253   4.997   0.398   7.814  0.0338 -0.6598  0.4131
   39POPC  C216 5254   5.148   0.473   7.958 -0.1750 -0.1376  0.3312
   39POPC  H16R 5255   5.098   0.572   7.960  0.0355 -0.0480  1.1653
   39POPC  H16S 5256   5.257   0.492   7.957 -0.4537  1.8875 -2.3276
   39POPC  C217 5257   5.098   0.391   8.068  0.2536  0.5410 -0.6492
   39POPC  H17R 5258   4.987   0.391   8.067  0.2430 -0.7168 -1.8684
   39POPC  H17S 5259   5.130   0.434   8.166  0.0478 -0.5786 -0.0776
   39POPC  C218 5260   5.151   0.246   8.082  0.5834 -0.7492 -0.1971
   39POPC  H18R 5261   5.125   0.203   8.181  2.7140  0.9783  1.2108
   39POPC  H18S 5262   5.260   0.230   8.068  0.9289  1.3352 -0.1426
   39POPC  H18T 5263   5.095   0.195   8.001 -1.1340  1.3652 -0.4310
   39POPC   C33 5264   4.559   0.824   6.827  0.5332 -0.2030 -0.1581
   39POPC   H3X 5265   4.654   0.793   6.777  0.7112 -1.4266  0.8744
   39POPC   H3Y 5266   4.496   0.732   6.831  0.1880 -0.0694 -1.7766
   39POPC   C34 5267   4.582   0.893   6.955 -0.8253  0.7981  0.8570
   39POPC   H4X 5268   4.488   0.909   7.012 -1.2473 -1.9149  1.0489
   39POPC   H4Y 5269   4.639   0.984   6.926 -0.3574 -0.2381 -1.7340
   39POPC   C35 5270   4.674   0.806   7.048 -0.0501  0.4417  0.3355
   39POPC   H5X 5271   4.770   0.789   6.994  1.1888 -1.0330  2.8021
   39POPC   H5Y 5272   4.620   0.711   7.065 -0.8176  0.4969 -1.6141
   39POPC   C36 5273   4.699   0.878   7.181 -0.5094 -0.0036 -0.3537
   39POPC   H6X 5274   4.611   0.928   7.227 -1.1737 -1.7394  0.3593
   39POPC   H6Y 5275   4.778   0.955   7.167 -0.8374  0.6523  1.1995
   39POPC   C37 5276   4.749   0.783   7.295 -0.2680  0.2670  0.4216
   39POPC   H7X 5277   4.848   0.739   7.270 -0.5642 -0.8308  1.1614
   39POPC   H7Y 5278   4.677   0.699   7.297  2.3356 -2.0875  1.3815
   39POPC   C38 5279   4.759   0.846   7.427 -0.6295 -1.1439  0.3466
   39POPC   H8X 5280   4.658   0.886   7.450  0.2935  2.1024 -0.6287
   39POPC   H8Y 5281   4.819   0.938   7.411 -3.4985  0.7951  0.0014
   39POPC   C39 5282   4.826   0.758   7.539  0.4021 -0.3539 -0.3484
   39POPC   H9X 5283   4.907   0.702   7.487  0.9314  0.8141 -0.8109
   39POPC   H9Y 5284   4.749   0.692   7.584  1.4934 -0.8380  0.8794
   39POPC  C310 5285   4.873   0.836   7.663  0.7426  0.3038  0.9641
   39POPC  H10X 5286   4.937   0.916   7.621 -0.8273  1.2466  0.2659
   39POPC  H10Y 5287   4.941   0.770   7.721 -0.3063  1.1060  3.2174
   39POPC  C311 5288   4.769   0.912   7.743 -0.1632 -0.5205  0.0644
   39POPC  H11X 5289   4.683   0.843   7.757 -0.1845 -0.5192 -0.0577
   39POPC  H11Y 5290   4.731   0.998   7.683  2.5110 -0.8915 -2.3395
   39POPC  C312 5291   4.817   0.960   7.873  0.2108  0.2088  1.0657
   39POPC  H12X 5292   4.898   1.036   7.870  0.5181 -0.1588 -0.8449
   39POPC  H12Y 5293   4.847   0.867   7.927 -1.1031 -0.4211  0.7573
   39POPC  C313 5294   4.703   1.028   7.941  0.0056 -0.2833  0.3964
   39POPC  H13X 5295   4.616   0.959   7.952 -1.1931  1.3810  1.9903
   39POPC  H13Y 5296   4.658   1.103   7.872  0.5379  0.3732  0.7495
   39POPC  C314 5297   4.730   1.080   8.078 -0.1248 -0.1687 -0.2116
   39POPC  H14X 5298   4.812   1.154   8.084 -0.4688  0.1755  0.3517
   39POPC  H14Y 5299   4.750   0.993   8.145  2.9496 -0.0636 -0.8624
   39POPC  C315 5300   4.599   1.146   8.140  0.3389  0.1989  0.0415
   39POPC  H15X 5301   4.514   1.074   8.142  0.2343  0.3233  0.1380
   39POPC  H15Y 5302   4.562   1.225   8.071 -1.4029 -1.0069 -0.4808
   39POPC  C316 5303   4.603   1.208   8.276  0.1044 -0.0275 -0.4255
   39POPC  H16X 5304   4.687   1.279   8.292  1.3223 -2.0555  3.3243
   39POPC  H16Y 5305   4.608   1.134   8.358  0.5475 -0.0844 -0.5001
   39POPC  H16Z 5306   4.511   1.269   8.289 -0.5429 -1.1466  0.4048
   40POPC     N 5307   3.632   1.341   6.387 -0.3361 -0.0536  0.1277
   40POPC   C12 5308   3.539   1.221   6.379 -0.3484  0.1139 -0.3001
   40POPC  H12A 5309   3.593   1.136   6.417 -0.8862  0.1165  0.4901
   40POPC  H12B 5310   3.515   1.203   6.275  0.7949  0.3648 -0.6211
   40POPC   C13 5311   3.743   1.306   6.293  0.0730  0.2267  0.4458
   40POPC  H13A 5312   3.806   1.393   6.282 -0.6593  0.4648 -2.8577
   40POPC  H13B 5313   3.793   1.212   6.310 -0.4908  0.0437  1.1202
   40POPC  H13C 5314   3.702   1.304   6.193  2.2911  0.6803 -0.5152
   40POPC   C14 5315   3.568   1.466   6.350 -0.5759 -1.0123  0.1139
   40POPC  H14A 5316   3.635   1.549   6.365  0.3736 -1.7490 -0.0290
   40POPC  H14B 5317   3.535   1.473   6.247 -0.5244 -2.3387  0.0011
   40POPC  H14C 5318   3.482   1.485   6.413  1.6297  2.4336  2.4315
   40POPC   C15 5319   3.686   1.354   6.527 -0.9787  0.2916 -1.1409
   40POPC  H15A 5320   3.611   1.366   6.603  0.0279 -1.5046  0.2062
   40POPC  H15B 5321   3.750   1.440   6.538  0.0255 -0.6932  1.4386
   40POPC  H15C 5322   3.757   1.274   6.544 -0.1106  1.2663 -0.1040
   40POPC   C11 5323   3.400   1.224   6.460  0.1325 -0.3431 -0.5778
   40POPC  H11A 5324   3.432   1.249   6.564  1.0205  1.3009 -1.2016
   40POPC  H11B 5325   3.350   1.126   6.451 -0.4800  0.0464 -1.5396
   40POPC     P 5326   3.233   1.300   6.290  0.3750 -0.1793  0.2214
   40POPC   O13 5327   3.316   1.215   6.205  0.0150 -0.1236  0.1484
   40POPC   O14 5328   3.194   1.434   6.236 -0.4647  0.5150  1.4508
   40POPC   O12 5329   3.308   1.328   6.428  0.9190 -0.0107  0.1125
   40POPC   O11 5330   3.102   1.216   6.332 -0.0878 -0.2670  0.6547
   40POPC    C1 5331   3.000   1.264   6.422 -0.3299 -0.7740 -0.9563
   40POPC    HA 5332   2.905   1.209   6.409 -1.5134  0.3687  1.9133
   40POPC    HB 5333   2.982   1.372   6.401  0.3709 -0.4710 -0.0909
   40POPC    C2 5334   3.033   1.243   6.571 -0.2955  0.0515  0.0631
   40POPC    HS 5335   3.133   1.291   6.577 -0.0867  0.2163 -2.9675
   40POPC   O21 5336   3.030   1.102   6.602 -0.0559 -0.2548 -0.2304
   40POPC   C21 5337   3.123   1.064   6.680 -0.6340  0.3189  0.1508
   40POPC   O22 5338   3.215   1.138   6.715 -0.1958  0.1879  0.3845
   40POPC   C22 5339   3.108   0.914   6.705 -1.0909  0.7861  0.2974
   40POPC   H2R 5340   3.122   0.855   6.612 -1.6831  0.3052  0.5129
   40POPC   H2S 5341   3.019   0.883   6.764  0.5360 -1.0808  1.8800
   40POPC    C3 5342   2.949   1.322   6.672  0.1618 -0.0827  0.2599
   40POPC    HX 5343   2.842   1.305   6.652  0.1537 -0.4886  0.6233
   40POPC    HY 5344   2.983   1.427   6.657  1.8515 -0.7689 -1.1022
   40POPC   O31 5345   2.973   1.288   6.808 -0.3960  0.3791 -0.0135
   40POPC   C31 5346   3.083   1.334   6.869 -0.4998 -0.2523 -0.0705
   40POPC   O32 5347   3.157   1.419   6.828 -0.2214 -0.1430 -0.0922
   40POPC   C32 5348   3.094   1.271   7.009 -0.4704 -0.3400  0.5668
   40POPC   H2X 5349   3.164   1.186   6.994 -0.1385 -0.3725  2.1293
   40POPC   H2Y 5350   2.996   1.234   7.044 -1.5289  0.4655 -1.4078
   40POPC   C23 5351   3.233   0.863   6.786 -0.2773 -0.1087  0.3437
   40POPC   H3R 5352   3.335   0.878   6.747 -0.6718 -1.3695 -1.2851
   40POPC   H3S 5353   3.231   0.751   6.787  2.6598 -0.2273  1.3417
   40POPC   C24 5354   3.242   0.911   6.932  0.0487 -0.0099  0.6385
   40POPC   H4R 5355   3.138   0.919   6.970 -0.6401  1.1283 -1.3264
   40POPC   H4S 5356   3.275   1.017   6.934  0.9062 -0.1692 -1.7289
   40POPC   C25 5357   3.326   0.832   7.030 -0.7350 -0.0658  0.5061
   40POPC   H5R 5358   3.434   0.831   7.001 -0.6292  0.9092  0.8179
   40POPC   H5S 5359   3.279   0.732   7.039  0.6331 -0.9390 -1.4349
   40POPC   C26 5360   3.319   0.905   7.171  0.2500  0.0152  0.4461
   40POPC   H6R 5361   3.211   0.913   7.196  0.3145 -2.5751  1.8482
   40POPC   H6S 5362   3.352   1.011   7.169 -0.6799  0.3196 -1.0256
   40POPC   C27 5363   3.387   0.819   7.274 -0.0030  0.8312 -0.3072
   40POPC   H7R 5364   3.487   0.783   7.243 -0.0685  1.0168 -0.7452
   40POPC   H7S 5365   3.345   0.720   7.303  0.5954 -0.0808 -2.3499
   40POPC   C28 5366   3.405   0.894   7.411  0.1103  0.7847 -0.8398
   40POPC   H8R 5367   3.302   0.900   7.451  0.2695 -0.2768 -0.2135
   40POPC   H8S 5368   3.438   0.998   7.391  2.0914  0.6362  1.3351
   40POPC   C29 5369   3.482   0.822   7.521 -0.0506  0.2993 -0.3582
   40POPC   H91 5370   3.454   0.718   7.545  3.2352 -0.5325  0.3363
   40POPC  C210 5371   3.582   0.870   7.601 -0.3498 -0.3807  0.0619
   40POPC  H101 5372   3.622   0.792   7.668  2.6139 -1.0365 -2.2566
   40POPC  C211 5373   3.635   1.011   7.611  0.7516 -0.2617  0.4520
   40POPC  H11R 5374   3.567   1.083   7.560 -2.0834 -1.7419  1.8871
   40POPC  H11S 5375   3.726   1.010   7.547 -0.1798 -0.8035 -0.9093
   40POPC  C212 5376   3.679   1.052   7.755  0.0709 -0.4180  0.1308
   40POPC  H12R 5377   3.749   1.138   7.743 -0.0394 -0.2528  0.6430
   40POPC  H12S 5378   3.742   0.969   7.794  1.3448 -0.6663 -2.2382
   40POPC  C213 5379   3.560   1.068   7.846 -0.1198  0.6913  0.0686
   40POPC  H13R 5380   3.517   0.966   7.845  1.3433  0.0548 -1.6996
   40POPC  H13S 5381   3.495   1.145   7.800  0.1496  1.3156  0.7136
   40POPC  C214 5382   3.601   1.121   7.987  0.8722  0.5959 -1.0170
   40POPC  H14R 5383   3.673   1.205   7.974  0.8366  0.8627  0.3151
   40POPC  H14S 5384   3.663   1.049   8.045  1.8083  2.3340  0.2587
   40POPC  C215 5385   3.471   1.163   8.066 -0.3340  0.2248  0.2105
   40POPC  H15R 5386   3.420   1.077   8.114 -1.0520 -0.7462 -2.1513
   40POPC  H15S 5387   3.397   1.216   8.003 -1.6590 -1.4170  0.3152
   40POPC  C216 5388   3.510   1.261   8.178  0.2423 -0.0371  0.1937
   40POPC  H16R 5389   3.422   1.324   8.203  0.9949  0.6547  1.1716
   40POPC  H16S 5390   3.587   1.331   8.138 -1.6158  2.3621  0.5813
   40POPC  C217 5391   3.567   1.187   8.294 -0.1207 -0.0146  0.5329
   40POPC  H17R 5392   3.651   1.129   8.251  0.8786  0.9398  1.1720
   40POPC  H17S 5393   3.491   1.121   8.343 -0.3599  1.0718  1.6593
   40POPC  C218 5394   3.621   1.282   8.407  0.2502  0.4980  0.6687
   40POPC  H18R 5395   3.533   1.344   8.436  0.2552 -0.0235  1.8562
   40POPC  H18S 5396   3.704   1.345   8.369 -0.4019  0.1303 -1.5440
   40POPC  H18T 5397   3.648   1.223   8.497  0.4550 -1.6462 -0.7326
   40POPC   C33 5398   3.163   1.370   7.103 -0.1065  0.8830 -0.0742
   40POPC   H3X 5399   3.096   1.456   7.127  2.1149  2.2179  1.8791
   40POPC   H3Y 5400   3.255   1.413   7.059  0.8367  0.0190  1.0024
   40POPC   C34 5401   3.201   1.317   7.237 -0.0792  0.4121 -0.8695
   40POPC   H4X 5402   3.276   1.380   7.290  0.7874  0.8877 -2.5617
   40POPC   H4Y 5403   3.254   1.220   7.231 -0.4483  0.1433  0.0623
   40POPC   C35 5404   3.092   1.306   7.344  0.1269  0.8199 -0.4323
   40POPC   H5X 5405   3.019   1.227   7.314  2.1857 -1.3355 -0.0092
   40POPC   H5Y 5406   3.022   1.392   7.350  0.1112  0.8717 -1.2002
   40POPC   C36 5407   3.141   1.283   7.491  0.7678 -0.9886  0.2069
   40POPC   H6X 5408   3.052   1.296   7.556  0.2815  1.4999 -0.8566
   40POPC   H6Y 5409   3.222   1.354   7.518  3.0707 -2.6110 -1.9684
   40POPC   C37 5410   3.204   1.150   7.527 -0.8109  0.1589  0.4107
   40POPC   H7X 5411   3.303   1.156   7.476 -0.1191  0.1873  1.7234
   40POPC   H7Y 5412   3.150   1.063   7.484 -0.1311  1.2328 -2.9996
   40POPC   C38 5413   3.227   1.123   7.675  0.9187 -0.2772  0.1922
   40POPC   H8X 5414   3.260   1.213   7.730  0.3359 -0.5146  0.9361
   40POPC   H8Y 5415   3.307   1.047   7.686 -0.1620 -1.4922 -0.0673
   40POPC   C39 5416   3.095   1.082   7.752 -0.3955  0.1962  0.0275
   40POPC   H9X 5417   3.078   0.972   7.747  1.5112 -0.1826  0.9310
   40POPC   H9Y 5418   3.002   1.128   7.711 -1.7974 -0.8896  1.8427
   40POPC  C310 5419   3.102   1.127   7.900 -0.0459 -0.3090 -0.2676
   40POPC  H10X 5420   3.081   1.236   7.903 -0.3138 -0.3719  0.6595
   40POPC  H10Y 5421   3.206   1.102   7.928  0.2006 -3.2374 -3.1553
   40POPC  C311 5422   3.002   1.052   7.993 -0.5126 -0.2419  0.2662
   40POPC  H11X 5423   2.907   1.041   7.937 -0.0829 -1.2981 -0.2646
   40POPC  H11Y 5424   2.970   1.105   8.086 -2.1663 -1.4087  0.3960
   40POPC  C312 5425   3.057   0.919   8.044  0.0142  0.5230  0.8942
   40POPC  H12X 5426   3.165   0.932   8.068  0.3902  1.8911 -1.3130
   40POPC  H12Y 5427   3.060   0.860   7.949  0.1051  4.3668 -1.6959
   40POPC  C313 5428   2.973   0.849   8.155  0.1270 -0.4821  0.4346
   40POPC  H13X 5429   2.868   0.835   8.123  0.4988 -1.3932 -0.4208
   40POPC  H13Y 5430   2.955   0.925   8.234 -1.6722 -1.7531  1.3130
   40POPC  C314 5431   3.031   0.721   8.205 -0.3347 -0.4968  0.0467
   40POPC  H14X 5432   3.141   0.738   8.217 -0.5793  1.6863 -0.4739
   40POPC  H14Y 5433   3.015   0.639   8.132 -1.2277  1.6786 -2.3184
   40POPC  C315 5434   2.973   0.702   8.338  0.5634  0.0905  0.0772
   40POPC  H15X 5435   2.873   0.751   8.345  0.7244  0.5279 -0.6456
   40POPC  H15Y 5436   3.031   0.762   8.412  0.6656  1.4352 -1.0650
   40POPC  C316 5437   2.957   0.553   8.366 -0.5196  0.2015 -0.0443
   40POPC  H16X 5438   2.928   0.544   8.472 -1.4723  0.9436 -0.2284
   40POPC  H16Y 5439   3.049   0.495   8.343  0.3745 -0.1335  3.7590
   40POPC  H16Z 5440   2.877   0.514   8.299 -0.9850 -0.5728  0.9427
   41CHL1    C3 5441   3.105   0.506   9.925  0.6874  0.2439 -0.4151
   41CHL1    H3 5442   3.003   0.550   9.919  1.4562  1.9402 -5.5153
   41CHL1    O3 5443   3.139   0.487  10.056  0.0173  0.2813  0.1643
   41CHL1   H3' 5444   3.139   0.394  10.078 -1.7859  0.4991  1.2466
   41CHL1    C4 5445   3.101   0.374   9.853 -0.1874 -0.1170  0.5160
   41CHL1   H4A 5446   3.187   0.308   9.877 -0.3674 -0.0704  1.3118
   41CHL1   H4B 5447   3.018   0.317   9.900 -0.4044 -0.4274 -0.2367
   41CHL1    C5 5448   3.068   0.376   9.706 -0.0217 -0.4737  0.0495
   41CHL1    C6 5449   2.967   0.309   9.656  0.4426  0.4258  0.7978
   41CHL1    H6 5450   2.911   0.244   9.724 -0.5042 -1.3721 -1.5705
   41CHL1    C7 5451   2.928   0.318   9.511  0.0737  0.2061  0.2685
   41CHL1   H7A 5452   2.900   0.221   9.465  1.8374 -0.0962 -0.2142
   41CHL1   H7B 5453   2.835   0.379   9.509 -0.6997 -0.9597 -0.5263
   41CHL1    C8 5454   3.034   0.388   9.417 -0.5352  0.0737 -0.2545
   41CHL1    H8 5455   3.111   0.312   9.393 -0.4246 -0.2977  1.1630
   41CHL1   C14 5456   2.973   0.433   9.281  0.5547 -0.2625  0.2928
   41CHL1   H14 5457   2.896   0.512   9.293  0.6896 -0.2911  1.4681
   41CHL1   C15 5458   2.903   0.324   9.191  0.8362  0.0275 -0.4498
   41CHL1  H15A 5459   2.961   0.230   9.186  1.0970  0.1695 -0.2007
   41CHL1  H15B 5460   2.803   0.316   9.238  0.6960  0.2387 -0.7121
   41CHL1   C16 5461   2.895   0.393   9.054  0.5583  0.7057  0.3520
   41CHL1  H16A 5462   2.932   0.317   8.981  0.5898 -0.3971  1.4839
   41CHL1  H16B 5463   2.790   0.423   9.039  1.0075  1.8354 -0.7153
   41CHL1   C17 5464   2.989   0.518   9.055 -0.1638 -0.7572  0.3029
   41CHL1   H17 5465   2.926   0.610   9.056 -0.2618 -0.8198  0.0668
   41CHL1   C13 5466   3.071   0.505   9.186 -0.4559  0.0988 -0.5351
   41CHL1   C18 5467   3.180   0.410   9.139  0.2668  0.6289  0.9187
   41CHL1  H18A 5468   3.244   0.388   9.227  2.4975  0.9357 -0.5496
   41CHL1  H18B 5469   3.145   0.311   9.102  0.9493  0.0254  1.8655
   41CHL1  H18C 5470   3.246   0.464   9.068  0.8406  2.3686  2.6803
   41CHL1   C12 5471   3.130   0.632   9.261  0.3138 -0.4335  0.3773
   41CHL1  H12A 5472   3.206   0.673   9.192  0.2295 -1.2697 -0.2243
   41CHL1  H12B 5473   3.050   0.707   9.283 -0.2859 -1.4574  1.8466
   41CHL1   C11 5474   3.188   0.596   9.401 -0.4066 -0.2128 -1.0405
   41CHL1  H11A 5475   3.288   0.549   9.386  0.0559  0.0788  0.8492
   41CHL1  H11B 5476   3.203   0.693   9.452  2.0799 -0.3537 -1.3436
   41CHL1    C9 5477   3.090   0.511   9.489  0.6370  0.1718  0.0972
   41CHL1    H9 5478   3.005   0.582   9.501  2.2100  2.1314  0.2909
   41CHL1   C10 5479   3.144   0.486   9.635 -0.2783  0.4642 -0.9799
   41CHL1   C19 5480   3.290   0.424   9.612 -0.3288  0.7466  0.4064
   41CHL1  H19A 5481   3.344   0.406   9.707  1.7912  0.5340 -0.7829
   41CHL1  H19B 5482   3.289   0.320   9.571 -0.5200  1.2352 -0.8746
   41CHL1  H19C 5483   3.363   0.489   9.559  2.1145 -1.9820  0.1867
   41CHL1    C1 5484   3.154   0.615   9.716 -0.1257 -0.9797  0.4886
   41CHL1   H1A 5485   3.234   0.674   9.665 -0.8432 -1.4909 -1.2853
   41CHL1   H1B 5486   3.062   0.675   9.706 -0.5635 -1.7860 -0.4820
   41CHL1    C2 5487   3.203   0.602   9.858 -0.0956  0.5980 -0.1713
   41CHL1   H2A 5488   3.201   0.699   9.912  2.3477  0.5608  0.0872
   41CHL1   H2B 5489   3.308   0.565   9.858 -0.1997  0.3050 -0.1317
   41CHL1   C20 5490   3.057   0.541   8.917 -0.2238  0.2582 -0.2955
   41CHL1   H20 5491   3.126   0.457   8.895 -4.2943 -3.0580 -1.7712
   41CHL1   C21 5492   3.132   0.671   8.918 -0.2293 -0.6079 -1.2908
   41CHL1  H21A 5493   3.069   0.760   8.938  0.9595  0.0600 -0.4425
   41CHL1  H21B 5494   3.193   0.688   8.827  0.0591  1.5871 -0.7270
   41CHL1  H21C 5495   3.206   0.674   9.001 -1.9380 -2.5297  0.4115
   41CHL1   C22 5496   2.953   0.527   8.799 -0.7235  0.1510  0.2655
   41CHL1  H22A 5497   3.017   0.559   8.714  0.3413 -0.9646  0.6117
   41CHL1  H22B 5498   2.917   0.422   8.786 -1.0416  0.4363 -1.3620
   41CHL1   C23 5499   2.840   0.627   8.809  0.3119 -0.4967 -0.9298
   41CHL1  H23A 5500   2.776   0.601   8.896 -0.5398  1.3110 -0.9800
   41CHL1  H23B 5501   2.861   0.735   8.819  0.9260 -0.6614 -0.3906
   41CHL1   C24 5502   2.753   0.622   8.683  0.8114  0.2265  0.0459
   41CHL1  H24A 5503   2.662   0.680   8.711 -0.7689 -2.1632  0.1034
   41CHL1  H24B 5504   2.806   0.678   8.603  2.0405  0.5954  1.0880
   41CHL1   C25 5505   2.699   0.488   8.626 -0.1059  0.2086 -0.9702
   41CHL1   H25 5506   2.776   0.414   8.595 -0.6242 -0.5452 -0.5229
   41CHL1   C26 5507   2.604   0.413   8.730 -0.1752 -0.1015  0.1194
   41CHL1  H26A 5508   2.560   0.324   8.679  1.0884 -0.3631 -0.5518
   41CHL1  H26B 5509   2.656   0.379   8.822  3.3872  0.3264 -1.5751
   41CHL1  H26C 5510   2.537   0.498   8.758  0.5831 -0.3430  2.9249
   41CHL1   C27 5511   2.622   0.533   8.498 -0.0265  0.2365  1.0305
   41CHL1  H27A 5512   2.554   0.455   8.461 -0.7680  1.4727 -0.3102
   41CHL1  H27B 5513   2.563   0.625   8.518  0.5431  0.9185 -0.2948
   41CHL1  H27C 5514   2.698   0.557   8.420 -0.0787  3.5925  1.8511
   42CHL1    C3 5515   3.737   6.875   9.768 -0.5288 -0.2910  0.0949
   42CHL1    H3 5516   3.712   6.780   9.717 -1.0965  0.6156 -1.3525
   42CHL1    O3 5517   3.750   6.859   9.906 -0.9448 -0.3005 -0.6377
   42CHL1   H3' 5518   3.778   6.947   9.934  0.3693  0.0783 -2.9197
   42CHL1    C4 5519   3.865   6.957   9.716  0.1442  0.4383 -0.1572
   42CHL1   H4A 5520   3.883   7.038   9.789  0.5086  0.3111 -0.1044
   42CHL1   H4B 5521   3.956   6.893   9.715  0.4630  0.8464 -2.1207
   42CHL1    C5 5522   3.858   7.012   9.576  0.7387 -0.2445 -0.0302
   42CHL1    C6 5523   3.956   6.999   9.486  0.3155 -0.1453  0.2468
   42CHL1    H6 5524   4.053   6.954   9.513  0.6950 -1.1335 -2.5069
   42CHL1    C7 5525   3.957   7.063   9.350  0.2525 -0.3054  0.1366
   42CHL1   H7A 5526   4.055   7.100   9.311 -0.2944  0.3917 -0.6240
   42CHL1   H7B 5527   3.934   6.975   9.285  0.9288 -1.1392  0.9986
   42CHL1    C8 5528   3.834   7.158   9.329 -0.7162 -0.7287  0.3298
   42CHL1    H8 5529   3.869   7.251   9.377  1.9362 -1.1040 -0.7249
   42CHL1   C14 5530   3.807   7.184   9.180  1.2740 -0.1373 -0.1012
   42CHL1   H14 5531   3.762   7.095   9.133 -0.6954 -0.1346  1.6286
   42CHL1   C15 5532   3.925   7.213   9.093 -0.6618  0.2915  0.4488
   42CHL1  H15A 5533   3.997   7.280   9.143  0.3947 -0.3993 -0.1255
   42CHL1  H15B 5534   3.978   7.122   9.057  0.3202  0.5475  1.1973
   42CHL1   C16 5535   3.870   7.289   8.969  0.5025 -0.9243 -0.5552
   42CHL1  H16A 5536   3.910   7.392   8.969  0.3347 -0.8556 -0.2272
   42CHL1  H16B 5537   3.889   7.235   8.874 -1.5036 -1.2613 -0.8143
   42CHL1   C17 5538   3.715   7.305   8.998 -0.4626 -0.4216 -0.0792
   42CHL1   H17 5539   3.660   7.217   8.958  0.4082 -0.4271 -1.3454
   42CHL1   C13 5540   3.702   7.295   9.152 -0.1781 -0.1409  0.0732
   42CHL1   C18 5541   3.740   7.434   9.204 -0.2559 -0.4647 -0.1983
   42CHL1  H18A 5542   3.843   7.466   9.180 -1.2041  1.2114 -2.3325
   42CHL1  H18B 5543   3.668   7.514   9.176 -1.2484 -0.7608  1.3425
   42CHL1  H18C 5544   3.743   7.446   9.315  3.0579 -0.6144 -0.1653
   42CHL1   C12 5545   3.570   7.249   9.215 -0.9025 -0.1465  0.0825
   42CHL1  H12A 5546   3.488   7.322   9.197 -1.5736 -1.0298 -0.5285
   42CHL1  H12B 5547   3.544   7.153   9.165  2.0229 -0.8862 -0.2366
   42CHL1   C11 5548   3.580   7.210   9.364 -0.2480  0.1560 -0.0202
   42CHL1  H11A 5549   3.593   7.307   9.417  1.4453  0.3885 -0.7839
   42CHL1  H11B 5550   3.486   7.161   9.396  1.6418 -1.0943  4.3597
   42CHL1    C9 5551   3.706   7.114   9.395  0.6403 -0.1746 -0.0874
   42CHL1    H9 5552   3.683   7.011   9.360 -0.0708 -0.5888  1.5293
   42CHL1   C10 5553   3.726   7.085   9.545  0.8299 -0.6426 -0.0369
   42CHL1   C19 5554   3.725   7.216   9.624  0.4165  0.1346 -0.5556
   42CHL1  H19A 5555   3.765   7.205   9.727  0.4408 -1.3746 -0.7040
   42CHL1  H19B 5556   3.785   7.295   9.573  0.6037 -0.1395 -0.7626
   42CHL1  H19C 5557   3.618   7.244   9.629  0.4032  0.2169 -1.1693
   42CHL1    C1 5558   3.605   6.998   9.595 -0.0918 -0.1782  0.0782
   42CHL1   H1A 5559   3.511   7.054   9.576  0.3569  0.3696 -0.5885
   42CHL1   H1B 5560   3.608   6.904   9.536  1.5628  0.5097 -1.0171
   42CHL1    C2 5561   3.616   6.964   9.744  0.4855  0.4464  0.0464
   42CHL1   H2A 5562   3.529   6.901   9.771 -0.1516  1.5592  0.6439
   42CHL1   H2B 5563   3.627   7.055   9.806  0.3783  1.1658 -0.9615
   42CHL1   C20 5564   3.660   7.414   8.913 -0.1444 -0.7163  0.1409
   42CHL1   H20 5565   3.705   7.508   8.952 -1.4779 -0.0365  0.1179
   42CHL1   C21 5566   3.509   7.436   8.941  0.5533 -0.1396 -0.3180
   42CHL1  H21A 5567   3.500   7.475   9.044 -1.1834 -1.7773  0.2209
   42CHL1  H21B 5568   3.454   7.342   8.921 -0.7126  0.0418  2.0037
   42CHL1  H21C 5569   3.459   7.510   8.875  1.0505  0.8387  0.3907
   42CHL1   C22 5570   3.696   7.408   8.762  0.3111 -0.3615 -0.2061
   42CHL1  H22A 5571   3.807   7.401   8.762  0.3552  0.2849 -0.8381
   42CHL1  H22B 5572   3.654   7.314   8.722 -0.1368  0.5131 -1.8666
   42CHL1   C23 5573   3.642   7.516   8.655 -0.2893  0.0279 -0.0791
   42CHL1  H23A 5574   3.531   7.507   8.648 -0.0974 -1.1672 -2.6067
   42CHL1  H23B 5575   3.663   7.614   8.703 -0.1316  1.1553 -2.3036
   42CHL1   C24 5576   3.696   7.497   8.505  0.1702 -0.3909 -0.1596
   42CHL1  H24A 5577   3.807   7.500   8.504  0.2467  2.8467  2.2636
   42CHL1  H24B 5578   3.664   7.399   8.464  0.1702 -0.1860 -0.6549
   42CHL1   C25 5579   3.655   7.618   8.416  0.1571 -0.4012 -0.3087
   42CHL1   H25 5580   3.544   7.624   8.412  0.1967 -0.3127 -2.5455
   42CHL1   C26 5581   3.721   7.744   8.448  0.4606  0.7168  0.0543
   42CHL1  H26A 5582   3.680   7.796   8.537 -0.7429  1.1111 -0.7082
   42CHL1  H26B 5583   3.831   7.731   8.458  0.2896  0.3509  1.5854
   42CHL1  H26C 5584   3.698   7.814   8.365  0.3109  0.4594 -0.1231
   42CHL1   C27 5585   3.692   7.583   8.274  0.7050 -0.6230 -1.1857
   42CHL1  H27A 5586   3.800   7.561   8.260  0.7354 -0.3522 -1.3814
   42CHL1  H27B 5587   3.645   7.486   8.248 -0.1397 -0.2190 -1.2057
   42CHL1  H27C 5588   3.632   7.655   8.213 -0.4266 -1.3997 -1.0168
   43CHL1    C3 5589   3.715   0.714   9.789  0.8052 -0.3850  0.3743
   43CHL1    H3 5590   3.769   0.629   9.742 -2.9565 -2.2187 -1.0712
   43CHL1    O3 5591   3.730   0.708   9.929 -0.1228 -0.4529 -0.0871
   43CHL1   H3' 5592   3.698   0.795   9.953  0.5750  0.1622 -1.2897
   43CHL1    C4 5593   3.788   0.846   9.744 -0.6163  0.3251 -0.6484
   43CHL1   H4A 5594   3.753   0.934   9.803  0.6033 -0.2152  0.9402
   43CHL1   H4B 5595   3.896   0.833   9.765 -0.5985  2.3510  0.8040
   43CHL1    C5 5596   3.773   0.872   9.593 -0.2896  0.4613  0.0715
   43CHL1    C6 5597   3.884   0.903   9.523  0.3089  0.0908 -0.1058
   43CHL1    H6 5598   3.980   0.908   9.577 -0.7264 -1.3517  2.0209
   43CHL1    C7 5599   3.870   0.947   9.378  0.8344 -0.6233 -0.1628
   43CHL1   H7A 5600   3.932   1.036   9.359 -0.4692 -0.2020 -3.0575
   43CHL1   H7B 5601   3.899   0.859   9.317 -2.6917 -1.4015 -0.9543
   43CHL1    C8 5602   3.722   0.976   9.329  0.3277  0.0882 -0.3615
   43CHL1    H8 5603   3.706   1.084   9.351  0.6049  0.3630 -1.4398
   43CHL1   C14 5604   3.708   0.972   9.177 -0.3725 -0.2559 -1.1382
   43CHL1   H14 5605   3.734   0.869   9.143 -2.7179 -0.0399 -4.0285
   43CHL1   C15 5606   3.801   1.052   9.087 -0.6587  0.1274 -1.2321
   43CHL1  H15A 5607   3.826   1.153   9.128  1.6037 -0.7434 -0.3300
   43CHL1  H15B 5608   3.900   1.004   9.079 -0.2281  0.8997 -0.7382
   43CHL1   C16 5609   3.733   1.035   8.945  0.2855 -0.1488  0.0198
   43CHL1  H16A 5610   3.745   1.136   8.901 -0.4288 -0.0064  0.1366
   43CHL1  H16B 5611   3.795   0.969   8.882  0.2887  0.3036 -0.4600
   43CHL1   C17 5612   3.589   0.977   8.968 -0.3083 -0.3349  0.4897
   43CHL1   H17 5613   3.605   0.871   8.939  0.2239 -0.3927  0.9898
   43CHL1   C13 5614   3.568   0.992   9.122 -0.4581  0.4792 -0.1703
   43CHL1   C18 5615   3.518   1.134   9.154 -1.0630 -0.2422 -0.2581
   43CHL1  H18A 5616   3.526   1.145   9.264 -1.4757  0.8390 -0.3227
   43CHL1  H18B 5617   3.597   1.195   9.104  1.3607 -1.6882  1.5764
   43CHL1  H18C 5618   3.411   1.146   9.128 -1.3749 -1.4944  0.3769
   43CHL1   C12 5619   3.468   0.889   9.179 -0.4718  0.4635 -0.9324
   43CHL1  H12A 5620   3.363   0.908   9.147 -0.5544  1.8485  0.0626
   43CHL1  H12B 5621   3.497   0.786   9.150 -1.4851 -0.3615  0.7964
   43CHL1   C11 5622   3.481   0.895   9.339  0.4522 -0.1143  1.0591
   43CHL1  H11A 5623   3.429   0.991   9.360 -3.2799 -1.4800 -1.0131
   43CHL1  H11B 5624   3.424   0.808   9.380 -1.8477  0.2237 -1.1705
   43CHL1    C9 5625   3.620   0.881   9.388 -0.2424 -0.3052  0.0101
   43CHL1    H9 5626   3.657   0.779   9.361  3.1087  1.0782 -1.1596
   43CHL1   C10 5627   3.626   0.873   9.544  0.2752 -0.3351 -0.1389
   43CHL1   C19 5628   3.556   0.999   9.598 -0.3917 -0.4498  0.2657
   43CHL1  H19A 5629   3.568   1.009   9.708  0.7461 -1.5210  0.2671
   43CHL1  H19B 5630   3.608   1.088   9.555 -0.2384 -1.6935 -2.3159
   43CHL1  H19C 5631   3.447   1.010   9.581 -0.4729 -0.7975  0.5413
   43CHL1    C1 5632   3.550   0.746   9.600  0.4918  0.6848  0.3145
   43CHL1   H1A 5633   3.442   0.756   9.576  0.9980  0.1612 -2.4375
   43CHL1   H1B 5634   3.590   0.651   9.561 -0.0113  0.6723 -0.1867
   43CHL1    C2 5635   3.566   0.724   9.752 -0.2078 -0.0637  0.1866
   43CHL1   H2A 5636   3.517   0.625   9.769  3.1351 -2.0253 -0.6029
   43CHL1   H2B 5637   3.516   0.808   9.804 -2.0810 -0.7320 -0.4442
   43CHL1   C20 5638   3.476   1.027   8.875 -0.1083 -0.0133 -0.2458
   43CHL1   H20 5639   3.387   1.036   8.941 -0.0084 -1.1278  0.0570
   43CHL1   C21 5640   3.449   0.930   8.758 -0.4314  0.0591  0.4497
   43CHL1  H21A 5641   3.393   0.978   8.676 -1.0885 -2.9507 -0.9973
   43CHL1  H21B 5642   3.416   0.828   8.789  1.7661 -0.9957 -0.4561
   43CHL1  H21C 5643   3.550   0.918   8.713 -0.1464  1.2662  0.7310
   43CHL1   C22 5644   3.509   1.170   8.816 -0.1975 -0.1268  0.1701
   43CHL1  H22A 5645   3.563   1.232   8.891  1.5793 -3.7693  2.1505
   43CHL1  H22B 5646   3.580   1.151   8.733 -1.2533  1.9870 -1.3331
   43CHL1   C23 5647   3.383   1.247   8.785  0.1283  0.0518 -0.0955
   43CHL1  H23A 5648   3.312   1.194   8.718  0.8031 -1.0306  0.0217
   43CHL1  H23B 5649   3.328   1.252   8.882 -0.8650  1.3538 -0.7001
   43CHL1   C24 5650   3.410   1.387   8.724  0.1336 -0.7360  0.2493
   43CHL1  H24A 5651   3.456   1.382   8.623 -0.6837 -0.6480 -0.1387
   43CHL1  H24B 5652   3.311   1.430   8.696  0.9329  2.4579  1.8671
   43CHL1   C25 5653   3.492   1.489   8.810 -0.3398 -0.0996  0.0974
   43CHL1   H25 5654   3.596   1.453   8.826 -0.0068  1.0377  0.5782
   43CHL1   C26 5655   3.512   1.627   8.735  0.2300 -0.8642  0.0544
   43CHL1  H26A 5656   3.415   1.680   8.744  0.3085 -0.9589  1.7847
   43CHL1  H26B 5657   3.602   1.682   8.772 -0.8004  1.8407 -1.1830
   43CHL1  H26C 5658   3.532   1.609   8.627  0.6125 -2.2935  0.3443
   43CHL1   C27 5659   3.428   1.515   8.949 -0.5637 -0.6073 -0.0566
   43CHL1  H27A 5660   3.479   1.609   8.978 -2.5470  0.5245 -0.0655
   43CHL1  H27B 5661   3.317   1.517   8.954 -0.5077  1.5897  1.3441
   43CHL1  H27C 5662   3.459   1.433   9.018  0.0683 -0.0784  0.2904
   44CHL1    C3 5663   3.946   6.366   9.964 -0.0031 -0.7108 -0.2482
   44CHL1    H3 5664   3.995   6.267   9.976 -0.3726 -0.8466  0.2027
   44CHL1    O3 5665   3.879   6.387  10.090  0.2523 -0.0561 -0.0354
   44CHL1   H3' 5666   3.855   6.480  10.094 -2.1381 -0.6102 -0.3119
   44CHL1    C4 5667   4.051   6.476   9.956  0.0371 -0.5980  0.4058
   44CHL1   H4A 5668   4.000   6.574   9.970  1.9871  0.2523  2.1191
   44CHL1   H4B 5669   4.129   6.474  10.036  1.8611  3.1342 -1.0447
   44CHL1    C5 5670   4.120   6.471   9.817  0.2101 -0.9537  0.4204
   44CHL1    C6 5671   4.257   6.465   9.805  0.6825  0.7012 -0.7602
   44CHL1    H6 5672   4.308   6.473   9.902 -0.3913  1.9772 -0.2757
   44CHL1    C7 5673   4.332   6.478   9.676  0.4340 -0.6406 -0.0065
   44CHL1   H7A 5674   4.402   6.563   9.693 -0.1734 -0.6023  2.5983
   44CHL1   H7B 5675   4.386   6.387   9.644  1.3370 -0.6421  1.4397
   44CHL1    C8 5676   4.233   6.514   9.559 -0.1620  0.8607  0.2572
   44CHL1    H8 5677   4.206   6.621   9.573  3.7191  2.3281 -1.7565
   44CHL1   C14 5678   4.307   6.493   9.432 -0.8051  0.1936  0.6808
   44CHL1   H14 5679   4.314   6.382   9.442  0.1117  0.3792  2.5607
   44CHL1   C15 5680   4.454   6.551   9.414 -0.2179 -0.4111 -0.7265
   44CHL1  H15A 5681   4.467   6.654   9.454  0.8668 -1.2271  1.1995
   44CHL1  H15B 5682   4.518   6.486   9.478  0.5371 -1.4521 -2.4678
   44CHL1   C16 5683   4.483   6.535   9.268  0.0369 -0.4583  0.3507
   44CHL1  H16A 5684   4.510   6.635   9.228  1.6249 -1.3154 -0.8035
   44CHL1  H16B 5685   4.560   6.458   9.244  1.3251  1.1871 -1.0472
   44CHL1   C17 5686   4.345   6.491   9.212 -0.3829  0.2473  0.2777
   44CHL1   H17 5687   4.348   6.381   9.225 -1.7084 -0.3507 -3.3530
   44CHL1   C13 5688   4.241   6.531   9.310  0.2940 -0.1078 -0.0854
   44CHL1   C18 5689   4.219   6.690   9.311  0.2772 -0.7698 -0.0012
   44CHL1  H18A 5690   4.137   6.730   9.374  0.7852  1.7881 -0.8487
   44CHL1  H18B 5691   4.310   6.749   9.334 -0.8486  0.8048  0.5845
   44CHL1  H18C 5692   4.196   6.733   9.211  0.8632  2.3616  1.1001
   44CHL1   C12 5693   4.111   6.450   9.302  0.9105 -0.2630 -0.8496
   44CHL1  H12A 5694   4.051   6.498   9.222 -1.3798 -0.7345  0.4918
   44CHL1  H12B 5695   4.134   6.346   9.269 -0.2895 -1.1128  0.8195
   44CHL1   C11 5696   4.024   6.461   9.428 -0.7223  0.7067  0.2683
   44CHL1  H11A 5697   3.977   6.562   9.432  1.4127  1.7759  0.1448
   44CHL1  H11B 5698   3.934   6.397   9.417 -0.2563 -0.1931  1.5074
   44CHL1    C9 5699   4.103   6.431   9.562  1.0676 -0.4827 -0.1673
   44CHL1    H9 5700   4.127   6.323   9.558  0.8011 -0.5543  0.0900
   44CHL1   C10 5701   4.029   6.457   9.698  1.1493 -0.5953  0.1836
   44CHL1   C19 5702   3.954   6.603   9.696 -0.5772  0.3224  0.8372
   44CHL1  H19A 5703   3.901   6.613   9.599  3.3567 -0.0248 -1.5866
   44CHL1  H19B 5704   3.891   6.618   9.786  0.7153  1.4739  1.5754
   44CHL1  H19C 5705   4.027   6.686   9.691  0.4673 -0.6094  0.1480
   44CHL1    C1 5706   3.916   6.356   9.717  0.1352  0.0421 -0.2951
   44CHL1   H1A 5707   3.844   6.370   9.633 -0.6414 -0.1388  0.3245
   44CHL1   H1B 5708   3.972   6.261   9.705  0.0169 -0.0171 -0.3787
   44CHL1    C2 5709   3.845   6.365   9.848  0.2548 -0.0911 -0.7108
   44CHL1   H2A 5710   3.774   6.280   9.856  1.8263 -1.4019 -0.1120
   44CHL1   H2B 5711   3.787   6.459   9.851 -0.2443 -0.2261 -3.4539
   44CHL1   C20 5712   4.320   6.511   9.059  0.0538 -0.1086  0.2271
   44CHL1   H20 5713   4.214   6.489   9.035  0.0690  0.1217 -0.0526
   44CHL1   C21 5714   4.383   6.391   8.989 -0.0760 -0.7207 -0.0289
   44CHL1  H21A 5715   4.489   6.375   9.018 -0.1259 -2.1274 -0.5373
   44CHL1  H21B 5716   4.380   6.407   8.879 -3.3374  0.2907  0.0972
   44CHL1  H21C 5717   4.332   6.296   9.016  0.3027 -0.1256  3.1357
   44CHL1   C22 5718   4.375   6.635   8.991  0.0826 -0.5482 -0.0876
   44CHL1  H22A 5719   4.358   6.720   9.060 -1.6248 -0.6458 -0.3430
   44CHL1  H22B 5720   4.486   6.629   8.981 -0.0229 -0.2124 -1.8244
   44CHL1   C23 5721   4.303   6.670   8.862  0.1533  0.7214 -0.7517
   44CHL1  H23A 5722   4.295   6.571   8.811  1.5431 -1.2315  2.5484
   44CHL1  H23B 5723   4.199   6.705   8.883 -0.6399 -1.6428 -0.3736
   44CHL1   C24 5724   4.384   6.770   8.776  0.3933 -0.0376  0.9511
   44CHL1  H24A 5725   4.387   6.871   8.823  0.2046 -0.4168  1.7920
   44CHL1  H24B 5726   4.490   6.736   8.784  0.3511 -0.1332  1.1096
   44CHL1   C25 5727   4.331   6.789   8.632  0.6394 -0.0283  0.1839
   44CHL1   H25 5728   4.330   6.696   8.570 -2.0876  0.0882 -0.0839
   44CHL1   C26 5729   4.186   6.830   8.644 -0.3185 -0.3912 -0.4438
   44CHL1  H26A 5730   4.122   6.747   8.681 -0.6637 -0.3049 -0.8337
   44CHL1  H26B 5731   4.195   6.918   8.711 -2.3932 -0.9376  0.6449
   44CHL1  H26C 5732   4.149   6.858   8.543 -1.3898  1.3052  0.3784
   44CHL1   C27 5733   4.408   6.896   8.558 -0.4021  0.0296 -0.0163
   44CHL1  H27A 5734   4.406   6.993   8.612  1.1720 -0.5558  1.1674
   44CHL1  H27B 5735   4.510   6.854   8.545 -0.4079  0.6243 -2.6407
   44CHL1  H27C 5736   4.365   6.916   8.457  0.0671  1.7765  0.1003
   45CHL1    C3 5737   1.578   4.141  10.167  0.0704 -0.1102  0.1215
   45CHL1    H3 5738   1.679   4.122  10.209 -0.8092 -1.1079  1.9257
   45CHL1    O3 5739   1.499   4.166  10.284  0.1106  0.2733 -0.1746
   45CHL1   H3' 5740   1.410   4.171  10.250 -0.5352  1.7567  1.5841
   45CHL1    C4 5741   1.568   4.267  10.082 -0.1780  0.4609  0.4029
   45CHL1   H4A 5742   1.465   4.306  10.069 -0.3370  1.2099  3.1648
   45CHL1   H4B 5743   1.614   4.341  10.152  0.7562 -1.8076  2.3364
   45CHL1    C5 5744   1.638   4.262   9.946  0.1538 -0.0882  0.6063
   45CHL1    C6 5745   1.734   4.352   9.916  0.1969 -0.3624 -0.5483
   45CHL1    H6 5746   1.754   4.437   9.983 -0.8022  0.9794 -1.8727
   45CHL1    C7 5747   1.820   4.339   9.789 -1.0556 -0.0089 -0.1326
   45CHL1   H7A 5748   1.832   4.444   9.755 -0.0016  1.0441  3.0825
   45CHL1   H7B 5749   1.919   4.304   9.825 -1.4802 -2.0850 -0.8467
   45CHL1    C8 5750   1.773   4.240   9.677  0.0468  1.1751 -0.0664
   45CHL1    H8 5751   1.868   4.219   9.623 -0.4611 -0.4470 -0.3927
   45CHL1   C14 5752   1.681   4.297   9.570 -0.3637  0.9006 -0.3277
   45CHL1   H14 5753   1.592   4.341   9.619 -1.9583 -3.4021  1.0849
   45CHL1   C15 5754   1.761   4.410   9.497  0.3398 -1.2218  0.0322
   45CHL1  H15A 5755   1.695   4.498   9.483  2.5095  0.3582 -0.8601
   45CHL1  H15B 5756   1.853   4.444   9.549 -0.1940  0.5773 -0.1533
   45CHL1   C16 5757   1.810   4.352   9.362  0.0340 -0.2260  0.1691
   45CHL1  H16A 5758   1.772   4.418   9.281 -1.3401 -3.1177 -1.7523
   45CHL1  H16B 5759   1.921   4.351   9.352 -0.1060  0.1176 -2.0762
   45CHL1   C17 5760   1.752   4.210   9.351 -0.3565  0.2388  0.1626
   45CHL1   H17 5761   1.827   4.146   9.402 -1.5757  1.1234  3.3039
   45CHL1   C13 5762   1.638   4.208   9.456 -0.7765 -0.2262  0.5855
   45CHL1   C18 5763   1.514   4.273   9.387 -0.1949  0.9663 -0.2853
   45CHL1  H18A 5764   1.428   4.247   9.451  0.1321  1.7163  0.4937
   45CHL1  H18B 5765   1.525   4.384   9.378 -0.4303  1.0037 -0.1010
   45CHL1  H18C 5766   1.482   4.223   9.293  4.1988 -1.1378 -0.9354
   45CHL1   C12 5767   1.612   4.061   9.500  0.0038  0.5129 -0.1979
   45CHL1  H12A 5768   1.507   4.056   9.537 -0.4180  0.9466 -1.2742
   45CHL1  H12B 5769   1.602   3.993   9.412  0.1195 -1.3010  1.1329
   45CHL1   C11 5770   1.686   4.010   9.628  0.1037 -0.1667  0.6162
   45CHL1  H11A 5771   1.628   3.923   9.665  1.5281 -1.0980  0.7149
   45CHL1  H11B 5772   1.783   3.972   9.589 -0.7414 -0.2493 -1.5811
   45CHL1    C9 5773   1.711   4.108   9.741 -0.3643 -0.4101 -0.4461
   45CHL1    H9 5774   1.792   4.051   9.790 -0.7828 -2.9141 -2.4513
   45CHL1   C10 5775   1.613   4.136   9.865  0.0895  0.2302  0.4786
   45CHL1   C19 5776   1.475   4.149   9.805  0.2279 -0.5173  0.6026
   45CHL1  H19A 5777   1.465   4.205   9.709 -0.0896 -1.7449 -0.1045
   45CHL1  H19B 5778   1.439   4.048   9.775 -1.1463 -0.2066  1.1511
   45CHL1  H19C 5779   1.402   4.203   9.869 -0.7257 -0.0897 -0.7995
   45CHL1    C1 5780   1.609   4.007   9.955 -0.4097  0.1258 -0.4329
   45CHL1   H1A 5781   1.564   3.916   9.909  1.2232 -2.4763  2.6486
   45CHL1   H1B 5782   1.716   3.983   9.972 -0.5816 -2.0831 -2.1107
   45CHL1    C2 5783   1.529   4.024  10.081  0.1666  0.0038 -0.4261
   45CHL1   H2A 5784   1.546   3.936  10.147  3.4246  2.2660  2.1301
   45CHL1   H2B 5785   1.421   4.032  10.059  0.1448 -0.0810 -0.3504
   45CHL1   C20 5786   1.737   4.149   9.214  0.0626 -0.0829 -0.2560
   45CHL1   H20 5787   1.668   4.062   9.225 -0.7379  0.5916  0.1788
   45CHL1   C21 5788   1.877   4.096   9.175  0.3469 -0.6096  0.6384
   45CHL1  H21A 5789   1.866   4.051   9.074  0.7321  0.3756  0.1480
   45CHL1  H21B 5790   1.932   4.035   9.250  1.9809  0.2280  0.1458
   45CHL1  H21C 5791   1.936   4.189   9.162 -1.1005  0.2892  0.3248
   45CHL1   C22 5792   1.686   4.249   9.107  0.6880 -0.4129 -0.2896
   45CHL1  H22A 5793   1.609   4.320   9.143  0.3835 -1.1332  0.5217
   45CHL1  H22B 5794   1.779   4.305   9.086  1.0331 -0.7423  0.3275
   45CHL1   C23 5795   1.644   4.188   8.970 -0.2285 -0.0448 -0.5712
   45CHL1  H23A 5796   1.730   4.134   8.926  0.0186  0.8330 -1.1923
   45CHL1  H23B 5797   1.561   4.117   8.992 -0.7396  0.5591 -0.5382
   45CHL1   C24 5798   1.593   4.295   8.869 -0.7518  0.3205 -0.5652
   45CHL1  H24A 5799   1.688   4.340   8.833 -0.6875 -0.1331 -0.9804
   45CHL1  H24B 5800   1.546   4.225   8.795 -0.1183 -0.2818 -0.4072
   45CHL1   C25 5801   1.477   4.399   8.893 -0.4696  0.3762  0.5337
   45CHL1   H25 5802   1.530   4.465   8.965  1.0300 -2.0258  1.7762
   45CHL1   C26 5803   1.429   4.470   8.769  0.0700  0.0689  0.2916
   45CHL1  H26A 5804   1.407   4.398   8.688  0.3438 -1.4112  1.4744
   45CHL1  H26B 5805   1.341   4.536   8.784 -1.1127 -0.7287 -2.4622
   45CHL1  H26C 5806   1.510   4.541   8.742 -0.5577  0.9568  0.6723
   45CHL1   C27 5807   1.354   4.331   8.971  0.5071  0.0036 -0.2912
   45CHL1  H27A 5808   1.275   4.409   8.969  0.3432 -0.1663 -2.2993
   45CHL1  H27B 5809   1.316   4.246   8.910  1.8633 -0.3810 -0.6615
   45CHL1  H27C 5810   1.398   4.305   9.070 -0.0212 -2.9101 -0.7485
   46CHL1    C3 5811   1.231   4.631  10.036  0.2534  0.0851 -0.1400
   46CHL1    H3 5812   1.243   4.522  10.058 -0.6089  0.1289  0.6461
   46CHL1    O3 5813   1.277   4.700  10.155 -0.3242  0.7563  0.1904
   46CHL1   H3' 5814   1.237   4.786  10.165 -0.3462  0.6076  1.5568
   46CHL1    C4 5815   1.312   4.658   9.918  0.3273 -0.4334 -0.0843
   46CHL1   H4A 5816   1.331   4.767   9.905  3.2788 -0.7902  0.5469
   46CHL1   H4B 5817   1.410   4.606   9.933 -0.0513 -0.8650  0.9878
   46CHL1    C5 5818   1.252   4.608   9.790 -0.2608  0.4521  0.1441
   46CHL1    C6 5819   1.320   4.524   9.709 -0.2175  0.2035  0.2869
   46CHL1    H6 5820   1.426   4.506   9.731  1.1003  3.6549 -2.3661
   46CHL1    C7 5821   1.278   4.466   9.572  0.3668  0.1212  0.2033
   46CHL1   H7A 5822   1.364   4.475   9.502  1.4808  0.2437  1.5382
   46CHL1   H7B 5823   1.251   4.358   9.573 -0.4927  0.3322  0.1259
   46CHL1    C8 5824   1.152   4.536   9.530  0.4246 -0.4410 -0.2217
   46CHL1    H8 5825   1.172   4.642   9.506 -0.0253 -0.8002 -2.3677
   46CHL1   C14 5826   1.078   4.462   9.420 -0.2923  0.2587 -0.0258
   46CHL1   H14 5827   1.038   4.376   9.478 -0.6703 -0.1752 -0.9136
   46CHL1   C15 5828   1.151   4.408   9.296  0.2638 -0.0299 -0.3456
   46CHL1  H15A 5829   1.218   4.486   9.254 -0.0516 -0.1507 -1.0783
   46CHL1  H15B 5830   1.205   4.312   9.312  0.2806 -0.1252 -0.9718
   46CHL1   C16 5831   1.040   4.385   9.190 -0.5620 -0.3034 -0.8281
   46CHL1  H16A 5832   1.072   4.454   9.109  1.4744 -0.9455 -0.6202
   46CHL1  H16B 5833   1.019   4.283   9.152 -0.4209 -0.8097  0.3957
   46CHL1   C17 5834   0.907   4.434   9.255  0.2190 -0.5639 -0.4951
   46CHL1   H17 5835   0.870   4.340   9.301 -0.1107 -0.8949 -1.4058
   46CHL1   C13 5836   0.956   4.533   9.371  0.1069 -0.4268  0.6853
   46CHL1   C18 5837   0.989   4.675   9.313  0.0018  0.6389 -0.2137
   46CHL1  H18A 5838   1.068   4.661   9.237 -0.4504 -1.0891 -0.4118
   46CHL1  H18B 5839   0.901   4.730   9.273  1.9787  4.4258  0.1327
   46CHL1  H18C 5840   1.029   4.742   9.393 -0.4909 -0.5546  1.0722
   46CHL1   C12 5841   0.854   4.538   9.486 -0.1518 -0.3130  0.7008
   46CHL1  H12A 5842   0.760   4.592   9.461  1.2704  0.8878 -2.5818
   46CHL1  H12B 5843   0.839   4.433   9.519  2.7570 -0.7685  0.8643
   46CHL1   C11 5844   0.917   4.607   9.607  0.9394 -0.4685  0.3728
   46CHL1  H11A 5845   0.936   4.712   9.575 -0.8933 -0.9974 -2.9098
   46CHL1  H11B 5846   0.851   4.618   9.695  0.6525  1.9028 -0.0492
   46CHL1    C9 5847   1.055   4.559   9.650  0.3338 -0.1722 -0.3086
   46CHL1    H9 5848   1.040   4.454   9.684  1.5322 -0.4436 -0.5525
   46CHL1   C10 5849   1.110   4.651   9.768  0.3990  0.8392  0.4377
   46CHL1   C19 5850   1.103   4.798   9.732 -0.4931  0.6173 -0.5628
   46CHL1  H19A 5851   1.000   4.832   9.755 -1.3193 -2.1189  0.0897
   46CHL1  H19B 5852   1.183   4.866   9.768  0.0474 -1.0569  1.6006
   46CHL1  H19C 5853   1.110   4.816   9.623  0.0701 -0.2873 -0.6843
   46CHL1    C1 5854   1.025   4.613   9.897 -0.0657  0.0503  0.0221
   46CHL1   H1A 5855   0.918   4.641   9.900 -1.0499 -3.2704  0.0279
   46CHL1   H1B 5856   1.017   4.502   9.902  0.4320  0.0200  0.2240
   46CHL1    C2 5857   1.083   4.666  10.027 -0.4315  0.3055  1.0231
   46CHL1   H2A 5858   1.036   4.607  10.109 -0.2173 -1.0475  0.2075
   46CHL1   H2B 5859   1.073   4.776  10.034 -0.0429  0.4021  0.1050
   46CHL1   C20 5860   0.797   4.477   9.149  0.6260  0.4206 -0.5629
   46CHL1   H20 5861   0.836   4.558   9.084 -1.1985  3.2491  1.6299
   46CHL1   C21 5862   0.676   4.542   9.226 -1.2536  0.0929  0.2119
   46CHL1  H21A 5863   0.705   4.643   9.263 -0.7331 -0.0520  0.2152
   46CHL1  H21B 5864   0.640   4.471   9.303  0.4481 -1.4561 -0.3628
   46CHL1  H21C 5865   0.601   4.553   9.145  0.8670 -2.9127 -2.4162
   46CHL1   C22 5866   0.746   4.356   9.064  0.0717  0.2523 -1.0392
   46CHL1  H22A 5867   0.831   4.289   9.040 -1.1311 -2.2773  1.2242
   46CHL1  H22B 5868   0.701   4.282   9.134  1.2084  1.0990  0.6749
   46CHL1   C23 5869   0.657   4.390   8.947 -0.1097 -0.8055  0.1048
   46CHL1  H23A 5870   0.563   4.438   8.982  0.0940 -0.1097 -0.2867
   46CHL1  H23B 5871   0.710   4.476   8.900 -1.1783  0.6014  1.3329
   46CHL1   C24 5872   0.641   4.282   8.848 -0.5583  0.0220 -0.3442
   46CHL1  H24A 5873   0.738   4.244   8.809 -0.5712  0.8395 -1.2143
   46CHL1  H24B 5874   0.588   4.200   8.902  1.1544 -1.1359 -0.3085
   46CHL1   C25 5875   0.563   4.313   8.717 -0.4219 -0.5177  0.4611
   46CHL1   H25 5876   0.607   4.404   8.671  0.8406 -1.2141  0.2321
   46CHL1   C26 5877   0.584   4.194   8.630  0.3532  0.5763  0.4848
   46CHL1  H26A 5878   0.572   4.096   8.681 -0.0829 -0.2880 -1.2244
   46CHL1  H26B 5879   0.519   4.201   8.541  2.5985  1.5566 -1.1826
   46CHL1  H26C 5880   0.684   4.213   8.585  0.1123 -2.7799 -1.7655
   46CHL1   C27 5881   0.417   4.335   8.743 -0.2436 -0.5222 -0.1216
   46CHL1  H27A 5882   0.370   4.380   8.653  0.0064  0.5915  0.2985
   46CHL1  H27B 5883   0.376   4.234   8.768  1.7955 -1.9055 -1.9257
   46CHL1  H27C 5884   0.416   4.409   8.826  0.6986 -0.6713  0.0342
   47CHL1    C3 5885   2.179   0.140  10.026  0.1560 -0.2596 -0.5435
   47CHL1    H3 5886   2.230   0.237  10.010  2.8873 -1.6601 -0.9191
   47CHL1    O3 5887   2.245   0.070  10.132  0.6258 -0.3312  0.2607
   47CHL1   H3' 5888   2.204  -0.017  10.137  0.5705 -0.3464 -0.3526
   47CHL1    C4 5889   2.026   0.143  10.048 -0.6373  0.2989  0.5992
   47CHL1   H4A 5890   1.987   0.041  10.068  1.8007 -0.6068  1.0485
   47CHL1   H4B 5891   2.012   0.198  10.144 -1.8032 -0.6916  1.0210
   47CHL1    C5 5892   1.958   0.212   9.932  0.5179  0.2957 -0.1262
   47CHL1    C6 5893   1.880   0.322   9.941  0.1668 -0.6228 -0.9576
   47CHL1    H6 5894   1.873   0.381  10.034 -0.4232 -0.2993 -1.2032
   47CHL1    C7 5895   1.814   0.390   9.824 -0.3123 -0.2372  0.6055
   47CHL1   H7A 5896   1.714   0.435   9.842 -0.9347 -0.6600 -1.4916
   47CHL1   H7B 5897   1.884   0.466   9.784 -2.2125  0.8495 -0.8387
   47CHL1    C8 5898   1.792   0.285   9.711  0.3484  0.8008 -0.9426
   47CHL1    H8 5899   1.718   0.210   9.745  0.7774 -0.3814 -2.5135
   47CHL1   C14 5900   1.735   0.365   9.591 -0.1166 -0.3205 -0.3385
   47CHL1   H14 5901   1.819   0.436   9.568  1.3977 -1.7929  0.4584
   47CHL1   C15 5902   1.614   0.450   9.606  0.2671  0.1832  0.6917
   47CHL1  H15A 5903   1.527   0.393   9.647 -1.9073  1.3014 -2.0171
   47CHL1  H15B 5904   1.628   0.545   9.660 -0.2832 -0.2245  1.5876
   47CHL1   C16 5905   1.582   0.482   9.462 -0.2424 -0.4570  0.6846
   47CHL1  H16A 5906   1.482   0.438   9.440 -0.3131 -0.7454  1.5663
   47CHL1  H16B 5907   1.565   0.587   9.429  1.2089  0.2946  2.1725
   47CHL1   C17 5908   1.687   0.402   9.370  0.0937 -0.2169  0.4779
   47CHL1   H17 5909   1.772   0.470   9.351  0.6765 -1.0575  0.0327
   47CHL1   C13 5910   1.728   0.290   9.462  0.0405 -0.0138 -0.1479
   47CHL1   C18 5911   1.623   0.180   9.472 -0.6906  0.2173 -0.4466
   47CHL1  H18A 5912   1.643   0.094   9.540  0.8130 -1.6395 -3.0665
   47CHL1  H18B 5913   1.533   0.230   9.513  0.6063  0.6842  2.0226
   47CHL1  H18C 5914   1.600   0.125   9.378  0.4581 -2.4202  0.7188
   47CHL1   C12 5915   1.871   0.229   9.434  0.4969  0.3395 -0.4885
   47CHL1  H12A 5916   1.861   0.159   9.349  2.8381 -0.2999 -0.2953
   47CHL1  H12B 5917   1.941   0.313   9.411  0.2344  0.9277  0.7763
   47CHL1   C11 5918   1.922   0.139   9.548  0.7293 -0.3121  0.2246
   47CHL1  H11A 5919   1.856   0.051   9.564  0.3244 -0.0353  0.0882
   47CHL1  H11B 5920   2.021   0.094   9.525  1.3089  0.9293  0.2009
   47CHL1    C9 5921   1.919   0.210   9.681 -0.6623 -0.0560  0.6040
   47CHL1    H9 5922   1.992   0.293   9.672 -1.2870  0.3056 -1.5332
   47CHL1   C10 5923   1.970   0.133   9.803 -0.3398  1.1506 -0.0730
   47CHL1   C19 5924   1.895   0.001   9.818  0.3959  0.3937 -0.0971
   47CHL1  H19A 5925   1.905  -0.064   9.729 -1.2925 -1.0394  0.7024
   47CHL1  H19B 5926   1.932  -0.061   9.903 -0.3930  0.1835  0.1027
   47CHL1  H19C 5927   1.787   0.019   9.835  0.3762 -0.3323  0.6458
   47CHL1    C1 5928   2.122   0.113   9.778 -0.2098 -0.2893 -0.2539
   47CHL1   H1A 5929   2.140   0.042   9.694  1.9534  0.1783 -0.2268
   47CHL1   H1B 5930   2.168   0.210   9.753  2.2181 -0.8824  1.5820
   47CHL1    C2 5931   2.204   0.066   9.898  0.0319  0.2809 -0.5479
   47CHL1   H2A 5932   2.311   0.079   9.873  0.0274  0.0961 -0.6680
   47CHL1   H2B 5933   2.177  -0.042   9.902 -1.9135  0.6992 -0.9586
   47CHL1   C20 5934   1.626   0.356   9.229  0.1796 -0.2015 -0.4232
   47CHL1   H20 5935   1.533   0.295   9.236 -0.6728  0.7899 -2.4334
   47CHL1   C21 5936   1.720   0.262   9.154 -0.0902  0.3643  0.6354
   47CHL1  H21A 5937   1.828   0.291   9.160  0.2128 -0.0361 -1.8144
   47CHL1  H21B 5938   1.688   0.259   9.048  1.6030  0.5943  0.0893
   47CHL1  H21C 5939   1.717   0.156   9.188 -0.1126 -0.1899 -1.0230
   47CHL1   C22 5940   1.591   0.480   9.146 -0.0028  0.2167  0.3312
   47CHL1  H22A 5941   1.585   0.570   9.211  2.6741  1.4410 -0.9673
   47CHL1  H22B 5942   1.672   0.517   9.080 -0.8029 -0.1498 -0.8782
   47CHL1   C23 5943   1.458   0.465   9.073 -0.2078  0.0924  0.5873
   47CHL1  H23A 5944   1.448   0.360   9.040  2.3790 -0.4030  1.0837
   47CHL1  H23B 5945   1.376   0.492   9.143 -2.6523 -1.0268 -1.7146
   47CHL1   C24 5946   1.453   0.566   8.956  0.0371  0.3360 -0.6575
   47CHL1  H24A 5947   1.346   0.567   8.926 -0.5563 -1.9956  1.1368
   47CHL1  H24B 5948   1.472   0.665   9.004 -0.6482 -0.5082  1.4488
   47CHL1   C25 5949   1.549   0.531   8.838  0.1414 -0.9082  0.2395
   47CHL1   H25 5950   1.648   0.540   8.887 -0.1074  1.3257  0.3925
   47CHL1   C26 5951   1.526   0.390   8.776 -0.1418 -0.6828  0.5537
   47CHL1  H26A 5952   1.596   0.380   8.690 -1.3689 -0.0751 -0.5604
   47CHL1  H26B 5953   1.425   0.384   8.730 -0.3605 -1.7246  1.1427
   47CHL1  H26C 5954   1.542   0.300   8.839  2.1897 -0.5514  0.2503
   47CHL1   C27 5955   1.535   0.647   8.732 -0.1604  0.1225  0.1681
   47CHL1  H27A 5956   1.538   0.743   8.787 -0.9787 -1.3211  2.9281
   47CHL1  H27B 5957   1.619   0.632   8.660  0.2520 -2.4916  1.0969
   47CHL1  H27C 5958   1.444   0.638   8.669 -0.1730  0.1926  0.1772
   48CHL1    C3 5959   0.161   0.589   9.943  0.4502 -0.5523 -0.9235
   48CHL1    H3 5960   0.140   0.482   9.919  3.1657 -0.9715 -1.7872
   48CHL1    O3 5961   0.175   0.606  10.084 -0.0552 -0.1501  0.4817
   48CHL1   H3' 5962   0.215   0.692  10.098  2.6064 -1.4505  1.5453
   48CHL1    C4 5963   0.297   0.601   9.874  0.4146 -0.5167 -0.4588
   48CHL1   H4A 5964   0.340   0.693   9.917  0.0864 -0.7336  0.3408
   48CHL1   H4B 5965   0.363   0.515   9.898  0.9497 -0.0944 -0.4090
   48CHL1    C5 5966   0.298   0.622   9.725  0.7652 -0.2762 -0.9181
   48CHL1    C6 5967   0.376   0.546   9.645  0.4152  0.3298 -0.4581
   48CHL1    H6 5968   0.435   0.465   9.692 -0.0061  0.4204  0.2369
   48CHL1    C7 5969   0.376   0.556   9.490  0.4764 -0.6345 -0.4780
   48CHL1   H7A 5970   0.481   0.551   9.455  0.5967 -1.3246 -0.0177
   48CHL1   H7B 5971   0.321   0.473   9.441 -2.9319  0.9136  0.3893
   48CHL1    C8 5972   0.303   0.686   9.440 -0.1082 -0.4084  0.2377
   48CHL1    H8 5973   0.376   0.769   9.454 -0.0593 -0.2051 -1.0791
   48CHL1   C14 5974   0.280   0.675   9.294  0.5365 -0.2676 -0.5185
   48CHL1   H14 5975   0.210   0.588   9.288  0.2830 -0.3595  2.4991
   48CHL1   C15 5976   0.401   0.635   9.207  0.3218  0.3731 -0.1214
   48CHL1  H15A 5977   0.487   0.692   9.248 -0.9860  0.4868  2.6695
   48CHL1  H15B 5978   0.426   0.527   9.206 -0.5981  0.1526 -0.2589
   48CHL1   C16 5979   0.354   0.677   9.070  0.3703 -0.0191  0.3337
   48CHL1  H16A 5980   0.431   0.747   9.032  0.8901 -0.0587  1.2835
   48CHL1  H16B 5981   0.337   0.584   9.013  0.5013  1.4354 -2.2022
   48CHL1   C17 5982   0.225   0.765   9.090 -0.9460 -0.2849 -0.1625
   48CHL1   H17 5983   0.138   0.700   9.067 -3.4013  2.1931  1.4628
   48CHL1   C13 5984   0.215   0.798   9.241  0.0416 -0.3077  0.1610
   48CHL1   C18 5985   0.303   0.921   9.262 -0.3088 -0.7553  0.0832
   48CHL1  H18A 5986   0.405   0.908   9.220  0.3893 -2.6799  2.1519
   48CHL1  H18B 5987   0.268   1.009   9.205  1.6311  1.1874  1.7108
   48CHL1  H18C 5988   0.311   0.962   9.365  0.2560  0.4427 -0.4215
   48CHL1   C12 5989   0.077   0.821   9.298 -0.9931  0.0727  0.1251
   48CHL1  H12A 5990   0.026   0.914   9.265 -1.4074  0.9700  3.0323
   48CHL1  H12B 5991   0.012   0.737   9.264 -1.8058  0.2285  1.2173
   48CHL1   C11 5992   0.080   0.818   9.448 -0.0790 -0.0164  0.0109
   48CHL1  H11A 5993   0.116   0.920   9.473 -1.0444  0.5421 -0.7935
   48CHL1  H11B 5994  -0.024   0.806   9.485  0.0540 -0.8951  0.1033
   48CHL1    C9 5995   0.171   0.709   9.514 -0.0017  0.3919 -0.4523
   48CHL1    H9 5996   0.108   0.619   9.496 -0.4636  0.7034 -0.4009
   48CHL1   C10 5997   0.186   0.718   9.672  0.0666  0.0439 -0.3596
   48CHL1   C19 5998   0.233   0.861   9.701  0.0416  0.7148  0.4634
   48CHL1  H19A 5999   0.323   0.880   9.639  0.2991  0.4137  0.7391
   48CHL1  H19B 6000   0.157   0.939   9.678  0.4752  1.7706  2.3992
   48CHL1  H19C 6001   0.283   0.876   9.799  2.0914 -3.1822  0.1976
   48CHL1    C1 6002   0.048   0.678   9.737 -0.0678 -0.5074 -0.0237
   48CHL1   H1A 6003  -0.037   0.729   9.685  1.5374  0.7785 -1.4987
   48CHL1   H1B 6004   0.033   0.569   9.724 -1.4481 -0.3411 -0.0003
   48CHL1    C2 6005   0.052   0.688   9.891 -0.1354  0.9595 -0.6060
   48CHL1   H2A 6006  -0.046   0.665   9.938  0.0759  1.6959  0.2328
   48CHL1   H2B 6007   0.092   0.787   9.920  1.5034  0.5115 -1.2628
   48CHL1   C20 6008   0.217   0.876   8.989 -0.7329 -0.6282 -0.5806
   48CHL1   H20 6009   0.291   0.958   9.001 -1.0249 -0.2643 -1.2204
   48CHL1   C21 6010   0.072   0.934   9.004 -0.1949 -0.0987 -0.1067
   48CHL1  H21A 6011   0.034   0.991   8.917 -3.0808 -1.5507  0.0667
   48CHL1  H21B 6012   0.071   1.008   9.087 -3.9783 -0.6250  0.4770
   48CHL1  H21C 6013  -0.007   0.859   9.027 -1.1750  0.5316 -1.3356
   48CHL1   C22 6014   0.222   0.827   8.848 -0.2578  0.3144 -0.5448
   48CHL1  H22A 6015   0.314   0.765   8.832 -1.0318 -0.4704 -2.2438
   48CHL1  H22B 6016   0.135   0.759   8.834 -1.7839  1.8727  0.9862
   48CHL1   C23 6017   0.239   0.942   8.739  0.2574 -0.2114  0.7004
   48CHL1  H23A 6018   0.178   1.030   8.769 -0.6334 -0.0754 -1.3111
   48CHL1  H23B 6019   0.347   0.962   8.752  0.4363 -0.6630 -0.0102
   48CHL1   C24 6020   0.221   0.897   8.596  0.0972 -0.0548  0.5209
   48CHL1  H24A 6021   0.289   0.813   8.574 -0.7310 -0.6570  0.2136
   48CHL1  H24B 6022   0.118   0.856   8.593 -0.6279  1.4047  2.8220
   48CHL1   C25 6023   0.244   1.006   8.491 -0.0041  0.5713  0.7909
   48CHL1   H25 6024   0.223   0.943   8.403 -0.0366  0.5730  0.7970
   48CHL1   C26 6025   0.140   1.119   8.489  0.2249  0.0209 -0.5110
   48CHL1  H26A 6026   0.155   1.166   8.390 -0.3704  0.0023 -0.6150
   48CHL1  H26B 6027   0.039   1.075   8.498 -0.0782  0.4884 -1.5153
   48CHL1  H26C 6028   0.147   1.190   8.573 -0.7334  0.1611 -0.5457
   48CHL1   C27 6029   0.393   1.056   8.475 -0.5221  0.4435 -0.8693
   48CHL1  H27A 6030   0.459   0.967   8.464  0.7230  0.8133  2.3835
   48CHL1  H27B 6031   0.415   1.132   8.397 -1.6106 -0.5528 -2.1962
   48CHL1  H27C 6032   0.429   1.093   8.574 -3.9589 -2.5931  1.8183
   49CHL1    C3 6033   0.964   2.148   9.911 -0.0770  0.4075  0.5692
   49CHL1    H3 6034   0.905   2.233   9.872  1.8900  1.4727 -0.2500
   49CHL1    O3 6035   0.923   2.133  10.049  0.2399 -0.7525  0.2523
   49CHL1   H3' 6036   0.974   2.057  10.078 -1.4854 -0.9562  3.2356
   49CHL1    C4 6037   0.918   2.027   9.834  0.3729  0.8548  0.3973
   49CHL1   H4A 6038   0.959   1.936   9.883  1.5181 -0.2299 -2.3651
   49CHL1   H4B 6039   0.809   2.019   9.854  0.4914  1.6799  1.4572
   49CHL1    C5 6040   0.965   2.028   9.689  0.7410 -0.2837  0.0785
   49CHL1    C6 6041   0.872   2.009   9.591  0.1373 -0.3935 -0.6442
   49CHL1    H6 6042   0.769   1.988   9.625 -0.1124  0.2266 -0.9949
   49CHL1    C7 6043   0.911   2.011   9.444 -0.6535  0.0514  0.0724
   49CHL1   H7A 6044   0.879   1.917   9.394  0.5255 -0.2280 -0.2016
   49CHL1   H7B 6045   0.863   2.099   9.397  2.5183  1.1270 -1.4597
   49CHL1    C8 6046   1.070   2.008   9.416 -0.5243 -0.1817  0.3467
   49CHL1    H8 6047   1.101   1.905   9.443 -0.9694 -0.3938  0.0465
   49CHL1   C14 6048   1.110   2.049   9.267 -0.1246 -0.0318 -0.4474
   49CHL1   H14 6049   1.086   2.158   9.262 -2.2582 -0.5070 -1.6960
   49CHL1   C15 6050   1.028   1.989   9.159 -0.5871  0.4515 -0.5381
   49CHL1  H15A 6051   1.021   1.879   9.172  0.7272  0.4826  0.6780
   49CHL1  H15B 6052   0.923   2.025   9.159 -0.6849  0.1805 -1.1710
   49CHL1   C16 6053   1.116   2.011   9.035  0.6845 -0.7677  0.0879
   49CHL1  H16A 6054   1.137   1.913   8.986 -0.7013 -0.9551 -0.1810
   49CHL1  H16B 6055   1.074   2.074   8.954  1.8427 -2.6971 -2.1724
   49CHL1   C17 6056   1.252   2.072   9.091 -0.3997 -0.7515 -0.1831
   49CHL1   H17 6057   1.233   2.182   9.086 -2.1862 -1.0907 -2.0278
   49CHL1   C13 6058   1.255   2.034   9.235  0.3772  0.7034  0.1453
   49CHL1   C18 6059   1.297   1.883   9.244 -0.2523  0.4510  0.6440
   49CHL1  H18A 6060   1.237   1.834   9.163  1.5414 -2.3495  0.9002
   49CHL1  H18B 6061   1.404   1.882   9.217 -0.9809  0.4088 -2.6914
   49CHL1  H18C 6062   1.270   1.846   9.345 -1.8051 -2.7328 -0.7995
   49CHL1   C12 6063   1.334   2.118   9.338 -0.2605  0.1132  0.2574
   49CHL1  H12A 6064   1.445   2.107   9.332 -0.3669 -0.5351 -0.7991
   49CHL1  H12B 6065   1.325   2.226   9.313  2.4973  1.2831  3.5263
   49CHL1   C11 6066   1.300   2.094   9.485 -0.3964 -0.0439  0.9891
   49CHL1  H11A 6067   1.349   1.997   9.512 -1.3381 -0.1627  2.3460
   49CHL1  H11B 6068   1.355   2.164   9.552  0.4369 -0.4407  0.7352
   49CHL1    C9 6069   1.148   2.096   9.516 -0.0225 -0.0113  0.3099
   49CHL1    H9 6070   1.115   2.201   9.501 -1.8150 -0.4767  0.7987
   49CHL1   C10 6071   1.110   2.064   9.665 -0.3224 -0.0268  0.2751
   49CHL1   C19 6072   1.202   1.950   9.716 -0.2365 -0.0946  0.4798
   49CHL1  H19A 6073   1.304   1.995   9.722 -0.1603 -0.4395  2.5442
   49CHL1  H19B 6074   1.165   1.908   9.812 -1.1301 -1.7090 -0.5491
   49CHL1  H19C 6075   1.213   1.858   9.656  1.0750 -1.0357  2.0752
   49CHL1    C1 6076   1.158   2.188   9.750  0.4991  1.0183 -0.0388
   49CHL1   H1A 6077   1.268   2.186   9.764  0.2695  0.3793  2.1694
   49CHL1   H1B 6078   1.126   2.289   9.719  0.1806  1.2256  0.9343
   49CHL1    C2 6079   1.112   2.167   9.896  0.1455 -0.3376 -0.0129
   49CHL1   H2A 6080   1.134   2.263   9.948 -0.8624 -0.2156  0.2089
   49CHL1   H2B 6081   1.175   2.090   9.945 -0.6631 -1.0819 -0.1127
   49CHL1   C20 6082   1.388   2.057   9.004  0.1361 -0.3980 -0.0012
   49CHL1   H20 6083   1.437   1.963   9.037  0.0299 -0.2240  0.6643
   49CHL1   C21 6084   1.495   2.171   9.028  0.4127 -0.1247  0.3743
   49CHL1  H21A 6085   1.538   2.166   9.130  4.5205  1.8652 -1.0170
   49CHL1  H21B 6086   1.439   2.266   9.014 -2.0011 -1.6089 -0.6398
   49CHL1  H21C 6087   1.575   2.152   8.953 -0.0154 -1.0740  0.1455
   49CHL1   C22 6088   1.358   2.033   8.846 -0.0170 -0.1135  0.6592
   49CHL1  H22A 6089   1.300   1.939   8.837 -0.1959 -0.1955  2.4728
   49CHL1  H22B 6090   1.315   2.126   8.802  0.6786  0.3671  0.9818
   49CHL1   C23 6091   1.487   1.998   8.761 -0.1900 -0.4611  0.0068
   49CHL1  H23A 6092   1.556   2.085   8.752 -0.1005 -0.3396  1.5549
   49CHL1  H23B 6093   1.544   1.928   8.826  2.0773  0.5146 -0.8071
   49CHL1   C24 6094   1.465   1.941   8.623 -0.0668 -0.2784  0.0152
   49CHL1  H24A 6095   1.402   1.852   8.639 -2.1355  0.7750 -1.8131
   49CHL1  H24B 6096   1.397   2.016   8.578 -1.2032 -1.2910  0.0087
   49CHL1   C25 6097   1.596   1.919   8.544 -0.2861  0.1072 -0.2060
   49CHL1   H25 6098   1.633   2.022   8.527 -2.5911  0.8587 -1.1674
   49CHL1   C26 6099   1.703   1.841   8.623 -0.1597  0.2922  0.0211
   49CHL1  H26A 6100   1.776   1.904   8.679 -0.8451  0.3078  0.9181
   49CHL1  H26B 6101   1.655   1.762   8.685  0.3352  0.6260  0.8439
   49CHL1  H26C 6102   1.764   1.777   8.556 -0.4120  0.6999 -0.6000
   49CHL1   C27 6103   1.569   1.867   8.400 -0.1679  0.1161  0.4820
   49CHL1  H27A 6104   1.666   1.854   8.347  0.6601  2.5774  1.2527
   49CHL1  H27B 6105   1.505   1.776   8.399 -0.0327  0.0222  0.3271
   49CHL1  H27C 6106   1.526   1.957   8.350  3.2196  1.3712 -0.4986
   50CHL1    C3 6107   0.999   3.908   9.994 -0.1602  0.3196  0.0328
   50CHL1    H3 6108   1.002   3.797   9.996  0.5366  0.3213 -0.4848
   50CHL1    O3 6109   0.964   3.945  10.130  0.0735  0.1559 -0.2289
   50CHL1   H3' 6110   0.996   3.881  10.194  0.0479  0.9314  0.5827
   50CHL1    C4 6111   1.142   3.958   9.951 -0.3616 -0.1232 -0.9615
   50CHL1   H4A 6112   1.146   4.068   9.958 -0.8703 -0.0582 -1.5927
   50CHL1   H4B 6113   1.218   3.916  10.020 -0.7488 -0.6635 -0.8519
   50CHL1    C5 6114   1.174   3.914   9.810  0.2416 -0.5523  0.3228
   50CHL1    C6 6115   1.280   3.833   9.784 -0.2630 -0.2522 -0.3881
   50CHL1    H6 6116   1.351   3.799   9.861 -0.7115  0.1998  0.2319
   50CHL1    C7 6117   1.319   3.789   9.644 -0.0606 -0.2616  0.3103
   50CHL1   H7A 6118   1.429   3.783   9.630 -0.2263 -0.4100 -1.1268
   50CHL1   H7B 6119   1.278   3.686   9.630 -0.3415 -0.3128  1.4768
   50CHL1    C8 6120   1.255   3.881   9.533  0.4394 -0.0786  0.1422
   50CHL1    H8 6121   1.306   3.979   9.523 -0.0462  0.3420  1.5829
   50CHL1   C14 6122   1.259   3.805   9.399  0.2271 -0.2845  0.4422
   50CHL1   H14 6123   1.188   3.720   9.405  2.0457 -1.8769  0.4203
   50CHL1   C15 6124   1.385   3.747   9.351 -0.6129 -0.1014 -0.7625
   50CHL1  H15A 6125   1.457   3.832   9.355  0.6503 -0.6583 -5.4788
   50CHL1  H15B 6126   1.429   3.666   9.412  1.0727  1.3702  0.0809
   50CHL1   C16 6127   1.358   3.710   9.209 -0.8757 -0.2066  0.6136
   50CHL1  H16A 6128   1.445   3.747   9.150 -0.5716 -0.6272  0.7898
   50CHL1  H16B 6129   1.339   3.608   9.171 -2.1077  1.1184 -2.7047
   50CHL1   C17 6130   1.227   3.780   9.166  0.4288 -0.1928 -0.6944
   50CHL1   H17 6131   1.150   3.705   9.193 -0.2321  0.9748  0.8182
   50CHL1   C13 6132   1.202   3.889   9.283  0.0124  0.2083  0.1792
   50CHL1   C18 6133   1.290   4.016   9.250 -0.0629 -0.6892 -0.1864
   50CHL1  H18A 6134   1.301   4.088   9.334 -0.7399  1.5113 -1.8862
   50CHL1  H18B 6135   1.391   3.986   9.217  0.0960 -1.7438  1.1496
   50CHL1  H18C 6136   1.238   4.073   9.170  2.2890  2.4454  0.3344
   50CHL1   C12 6137   1.054   3.925   9.308 -0.5900  0.2903 -0.2753
   50CHL1  H12A 6138   1.038   3.992   9.221  0.1754 -1.4548 -1.8409
   50CHL1  H12B 6139   0.976   3.849   9.286 -2.3164  1.9522 -0.1273
   50CHL1   C11 6140   1.042   3.999   9.444 -0.9723  0.1733 -0.3897
   50CHL1  H11A 6141   1.089   4.099   9.429  2.3141 -1.0103  1.0662
   50CHL1  H11B 6142   0.933   4.000   9.467 -0.5550  1.6979  1.8910
   50CHL1    C9 6143   1.114   3.920   9.563  0.9559  0.1379 -0.1981
   50CHL1    H9 6144   1.054   3.826   9.565  0.3896  0.4721 -0.9842
   50CHL1   C10 6145   1.079   3.968   9.699  0.1986  0.7537 -0.3783
   50CHL1   C19 6146   1.109   4.120   9.694  0.1870 -0.1753  0.5204
   50CHL1  H19A 6147   1.053   4.179   9.619 -0.7792 -1.7673 -0.0572
   50CHL1  H19B 6148   1.077   4.182   9.780  0.7934  2.4630 -1.0502
   50CHL1  H19C 6149   1.216   4.138   9.669  0.2585 -3.3284 -2.2032
   50CHL1    C1 6150   0.936   3.932   9.746  0.1467  0.4474  0.0486
   50CHL1   H1A 6151   0.871   3.985   9.673  0.1384  0.0667 -0.2238
   50CHL1   H1B 6152   0.918   3.824   9.727 -0.6576  0.3411  1.3465
   50CHL1    C2 6153   0.896   3.959   9.891 -0.4122 -0.2827  0.3218
   50CHL1   H2A 6154   0.800   3.909   9.919 -0.7307 -0.0106 -0.2625
   50CHL1   H2B 6155   0.883   4.068   9.907  2.5897  0.3858 -1.1579
   50CHL1   C20 6156   1.204   3.815   9.015  0.1645  0.5406 -0.4611
   50CHL1   H20 6157   1.123   3.892   9.011 -1.2093 -0.8663 -0.6185
   50CHL1   C21 6158   1.167   3.676   8.944  0.1086 -0.0286  0.5076
   50CHL1  H21A 6159   1.129   3.695   8.842 -0.3750  1.1890  0.8862
   50CHL1  H21B 6160   1.079   3.629   8.994 -0.1788 -0.8335 -0.7040
   50CHL1  H21C 6161   1.247   3.599   8.938 -1.7809 -2.0252 -0.4410
   50CHL1   C22 6162   1.326   3.870   8.930 -0.7029  0.4264  0.5745
   50CHL1  H22A 6163   1.368   3.963   8.974 -0.3298  1.8719 -2.5553
   50CHL1  H22B 6164   1.404   3.792   8.941  0.5446  1.8092  2.0062
   50CHL1   C23 6165   1.285   3.916   8.786  0.4560  0.5047 -0.3095
   50CHL1  H23A 6166   1.223   3.842   8.731  1.0316  0.6058 -1.1194
   50CHL1  H23B 6167   1.234   4.014   8.801 -0.1844 -0.1257  1.8251
   50CHL1   C24 6168   1.418   3.931   8.700 -0.4560 -0.0407  0.5665
   50CHL1  H24A 6169   1.481   4.005   8.753  0.4543  0.6877 -1.4373
   50CHL1  H24B 6170   1.478   3.838   8.695  0.3217  0.4430  0.7448
   50CHL1   C25 6171   1.405   3.977   8.554 -0.0243 -0.1414 -0.1857
   50CHL1   H25 6172   1.364   4.080   8.549  0.7285  0.1310 -0.8779
   50CHL1   C26 6173   1.539   3.972   8.491  0.0554  0.0875 -0.1735
   50CHL1  H26A 6174   1.574   3.867   8.478  0.9881  0.2223  0.9902
   50CHL1  H26B 6175   1.548   4.026   8.394 -0.9933 -1.1038 -0.9555
   50CHL1  H26C 6176   1.605   4.025   8.564 -0.9701  0.4658  0.5043
   50CHL1   C27 6177   1.310   3.898   8.455  0.1768 -0.3676  0.3897
   50CHL1  H27A 6178   1.201   3.920   8.458 -0.1308 -0.6605 -3.6482
   50CHL1  H27B 6179   1.338   3.913   8.349 -0.2121 -2.8499 -0.1158
   50CHL1  H27C 6180   1.315   3.789   8.471  1.9865 -0.7314 -2.1324
   51CHL1    C3 6181   1.310   6.592  10.085  0.3533  0.1417 -0.7085
   51CHL1    H3 6182   1.245   6.505  10.060 -1.0677  0.8513  0.3578
   51CHL1    O3 6183   1.329   6.606  10.224 -0.3378 -0.1795  0.0877
   51CHL1   H3' 6184   1.336   6.518  10.262 -2.5145 -0.2330  0.4838
   51CHL1    C4 6185   1.446   6.576  10.020 -0.3519 -0.6413 -0.4165
   51CHL1   H4A 6186   1.498   6.674  10.027 -0.1899 -0.7284 -0.4148
   51CHL1   H4B 6187   1.501   6.494  10.071 -1.5270 -1.5099 -0.5092
   51CHL1    C5 6188   1.440   6.544   9.875  0.0724  0.4883 -0.0029
   51CHL1    C6 6189   1.476   6.423   9.819  0.1001  0.0900  0.7683
   51CHL1    H6 6190   1.526   6.354   9.889 -0.4778 -2.5203 -1.2656
   51CHL1    C7 6191   1.465   6.387   9.672 -0.2950  0.1069 -0.2447
   51CHL1   H7A 6192   1.556   6.337   9.632  0.4694  0.9620  0.3644
   51CHL1   H7B 6193   1.391   6.304   9.669 -1.5946  1.1951 -3.6208
   51CHL1    C8 6194   1.422   6.506   9.582 -0.0018  0.2249 -0.0440
   51CHL1    H8 6195   1.510   6.571   9.564  0.7061 -0.9229 -0.8043
   51CHL1   C14 6196   1.367   6.461   9.448  0.9054  0.0523  0.2556
   51CHL1   H14 6197   1.265   6.417   9.458  0.8299  0.4576  1.4088
   51CHL1   C15 6198   1.448   6.348   9.381 -0.6285 -0.2050  0.5124
   51CHL1  H15A 6199   1.553   6.372   9.409 -0.9720 -1.0432  2.6256
   51CHL1  H15B 6200   1.417   6.251   9.423 -2.5111  0.1582  0.0392
   51CHL1   C16 6201   1.421   6.360   9.227  0.1770  0.0585  0.3644
   51CHL1  H16A 6202   1.517   6.395   9.185  0.7723 -2.9094 -0.9802
   51CHL1  H16B 6203   1.400   6.263   9.177  1.3578 -0.5500  0.9986
   51CHL1   C17 6204   1.308   6.478   9.209  0.1562 -0.5269  0.3573
   51CHL1   H17 6205   1.215   6.417   9.219 -0.3522  0.3810  1.3027
   51CHL1   C13 6206   1.334   6.567   9.342  0.0762  0.3029  0.3962
   51CHL1   C18 6207   1.450   6.654   9.309 -0.4029 -0.3989  0.4811
   51CHL1  H18A 6208   1.536   6.597   9.267 -1.0303  0.1101 -1.6271
   51CHL1  H18B 6209   1.425   6.727   9.229 -0.4887  0.0265  0.8966
   51CHL1  H18C 6210   1.488   6.710   9.396 -1.1697 -0.5479  0.9227
   51CHL1   C12 6211   1.216   6.647   9.406 -0.2093  0.5204  0.2966
   51CHL1  H12A 6212   1.193   6.737   9.345 -1.7951  0.4326  0.7356
   51CHL1  H12B 6213   1.128   6.580   9.412 -0.6288  0.8758 -1.3693
   51CHL1   C11 6214   1.250   6.692   9.548  0.1058  0.0715 -0.3670
   51CHL1  H11A 6215   1.323   6.776   9.546 -0.4674  0.9461  4.3424
   51CHL1  H11B 6216   1.155   6.732   9.590  0.7309  0.9706  0.2164
   51CHL1    C9 6217   1.309   6.585   9.644  0.4073  0.6274  0.1339
   51CHL1    H9 6218   1.221   6.522   9.669 -0.0316 -0.2724 -3.1882
   51CHL1   C10 6219   1.361   6.647   9.783  0.3110 -0.3149 -0.6432
   51CHL1   C19 6220   1.458   6.763   9.757  0.5568 -0.5510 -0.0819
   51CHL1  H19A 6221   1.535   6.787   9.834  0.4867  0.9427 -0.4509
   51CHL1  H19B 6222   1.519   6.747   9.666  2.0994  1.3852  0.5382
   51CHL1  H19C 6223   1.405   6.860   9.749  2.1620  0.4037  0.3302
   51CHL1    C1 6224   1.234   6.690   9.865  0.5273  0.2431 -0.3266
   51CHL1   H1A 6225   1.191   6.780   9.817  0.4330  2.0026  2.7930
   51CHL1   H1B 6226   1.156   6.612   9.858 -0.6601  1.4638 -1.2112
   51CHL1    C2 6227   1.242   6.711  10.021 -0.7378  0.0548  0.7361
   51CHL1   H2A 6228   1.137   6.731  10.052 -0.3937  0.8879  1.4328
   51CHL1   H2B 6229   1.299   6.805  10.038 -2.4762  0.9562  1.8700
   51CHL1   C20 6230   1.308   6.536   9.069 -0.1890  0.1364 -0.1931
   51CHL1   H20 6231   1.390   6.610   9.060 -0.9837  0.9558 -0.9402
   51CHL1   C21 6232   1.172   6.597   9.053  0.0966 -0.3052  0.7319
   51CHL1  H21A 6233   1.093   6.522   9.031  0.5319 -0.9720  1.3905
   51CHL1  H21B 6234   1.167   6.654   8.958 -1.1896 -0.9419  0.4022
   51CHL1  H21C 6235   1.133   6.661   9.135  0.4190 -0.2175  0.8187
   51CHL1   C22 6236   1.322   6.427   8.953 -0.5773  0.1193  0.6931
   51CHL1  H22A 6237   1.417   6.374   8.977 -0.1808  1.5368  2.4603
   51CHL1  H22B 6238   1.234   6.360   8.946 -0.7178  0.4402 -0.7906
   51CHL1   C23 6239   1.344   6.491   8.808 -0.3123  0.6920 -0.5918
   51CHL1  H23A 6240   1.251   6.548   8.788  0.3357  2.1774  0.4685
   51CHL1  H23B 6241   1.432   6.558   8.808 -0.4831  0.9235 -1.2182
   51CHL1   C24 6242   1.348   6.376   8.697 -0.0746 -0.5694 -0.4237
   51CHL1  H24A 6243   1.426   6.308   8.736 -0.4697 -1.2226 -0.7458
   51CHL1  H24B 6244   1.258   6.312   8.687 -0.5776  0.0781 -0.1192
   51CHL1   C25 6245   1.386   6.421   8.554  0.7607 -0.6576 -0.0075
   51CHL1   H25 6246   1.466   6.497   8.570 -1.4286  1.7612  0.1139
   51CHL1   C26 6247   1.434   6.302   8.472  0.3886 -0.4889  0.3572
   51CHL1  H26A 6248   1.349   6.232   8.465  0.7488 -0.7741 -2.2167
   51CHL1  H26B 6249   1.455   6.345   8.371 -3.4969 -1.3829 -1.0250
   51CHL1  H26C 6250   1.528   6.272   8.523  1.4441  1.3231 -0.4045
   51CHL1   C27 6251   1.254   6.489   8.504  0.6184  0.5850  0.1298
   51CHL1  H27A 6252   1.235   6.587   8.553  0.4115 -0.2254  1.7295
   51CHL1  H27B 6253   1.248   6.503   8.394 -2.1435 -0.9233 -0.0031
   51CHL1  H27C 6254   1.171   6.424   8.538 -0.1332  2.5920  2.4226
   52CHL1    C3 6255   5.901   2.203   9.820 -0.0604  0.7907  0.4409
   52CHL1    H3 6256   6.008   2.208   9.788  0.3411  1.6832  1.8057
   52CHL1    O3 6257   5.889   2.187   9.958 -0.2681  0.5423 -0.9411
   52CHL1   H3' 6258   5.810   2.234   9.985  0.2701  0.8921  0.1006
   52CHL1    C4 6259   5.842   2.336   9.771 -0.1345  0.4347  0.4633
   52CHL1   H4A 6260   5.733   2.337   9.796 -0.7187  1.5627 -1.8287
   52CHL1   H4B 6261   5.884   2.421   9.829  0.8806  0.5545 -0.4253
   52CHL1    C5 6262   5.848   2.349   9.625  0.3982 -0.0062 -0.2159
   52CHL1    C6 6263   5.912   2.449   9.564  0.1975 -0.6345 -0.2064
   52CHL1    H6 6264   5.953   2.529   9.627 -2.1001  1.3426 -1.0611
   52CHL1    C7 6265   5.921   2.477   9.415 -0.5242  0.5602 -0.3161
   52CHL1   H7A 6266   5.887   2.577   9.380 -3.6547  0.3101  1.6593
   52CHL1   H7B 6267   6.029   2.463   9.392 -0.3201 -0.7292  1.2452
   52CHL1    C8 6268   5.843   2.372   9.334  0.2441  0.6649 -0.1724
   52CHL1    H8 6269   5.738   2.409   9.340  0.3329  0.7258  1.4914
   52CHL1   C14 6270   5.887   2.374   9.184  0.3437  0.0670  0.2625
   52CHL1   H14 6271   5.989   2.333   9.198  0.5367  0.7819  1.0705
   52CHL1   C15 6272   5.902   2.507   9.110  0.1630  0.3934 -0.3485
   52CHL1  H15A 6273   5.810   2.562   9.138 -1.1323 -1.4466 -0.8083
   52CHL1  H15B 6274   5.993   2.564   9.141 -0.3377  0.6401  0.6883
   52CHL1   C16 6275   5.914   2.458   8.966 -0.4343  0.0800  0.9709
   52CHL1  H16A 6276   5.841   2.512   8.901 -0.0518  0.1225  0.5754
   52CHL1  H16B 6277   6.014   2.479   8.923 -0.1836  1.5136  2.1808
   52CHL1   C17 6278   5.881   2.302   8.964 -0.1301 -0.3723  0.0756
   52CHL1   H17 6279   5.976   2.245   8.971  0.2371  0.0854 -0.9651
   52CHL1   C13 6280   5.810   2.273   9.098  0.1829  0.3551  0.1876
   52CHL1   C18 6281   5.658   2.323   9.091 -0.3191  0.1648  0.2501
   52CHL1  H18A 6282   5.608   2.322   9.190  3.3006  2.0130  2.2921
   52CHL1  H18B 6283   5.653   2.420   9.036 -0.3878  0.6376  1.0779
   52CHL1  H18C 6284   5.606   2.250   9.026  0.3678 -0.2212  0.1216
   52CHL1   C12 6285   5.829   2.126   9.156  0.1173  0.5323 -0.2766
   52CHL1  H12A 6286   5.761   2.050   9.111 -0.6224  1.1772 -0.2865
   52CHL1  H12B 6287   5.935   2.096   9.163  0.0139  0.5278  2.3282
   52CHL1   C11 6288   5.782   2.132   9.304  0.0680 -0.1113 -0.8855
   52CHL1  H11A 6289   5.671   2.139   9.300  0.0900  0.4316 -0.6830
   52CHL1  H11B 6290   5.809   2.030   9.338 -0.1756 -0.7020 -2.3901
   52CHL1    C9 6291   5.855   2.234   9.395  0.4321  0.6963 -0.1552
   52CHL1    H9 6292   5.962   2.204   9.392  0.1625 -0.1888 -1.3235
   52CHL1   C10 6293   5.806   2.226   9.544 -0.5548 -0.4657  0.2707
   52CHL1   C19 6294   5.648   2.236   9.553 -0.2997 -0.5194 -0.5081
   52CHL1  H19A 6295   5.610   2.234   9.657  0.2562 -3.4265 -0.2670
   52CHL1  H19B 6296   5.611   2.328   9.503 -0.0382 -0.0220  0.2075
   52CHL1  H19C 6297   5.614   2.135   9.519  1.5961 -0.4470 -2.9269
   52CHL1    C1 6298   5.860   2.089   9.596 -0.1655  0.3936  0.2737
   52CHL1   H1A 6299   5.812   2.002   9.546  0.6962  1.2394 -2.1776
   52CHL1   H1B 6300   5.968   2.081   9.572 -0.5007  0.3848 -1.3819
   52CHL1    C2 6301   5.848   2.074   9.749  0.1043 -0.9725  0.1234
   52CHL1   H2A 6302   5.903   1.984   9.784  1.7748  0.5830  1.8190
   52CHL1   H2B 6303   5.744   2.070   9.786  1.0300  0.7674  3.4004
   52CHL1   C20 6304   5.811   2.261   8.834  0.4069 -0.4585  0.8764
   52CHL1   H20 6305   5.704   2.291   8.830  1.0978  2.3581 -3.1174
   52CHL1   C21 6306   5.813   2.109   8.822 -0.0470  0.1470  0.2409
   52CHL1  H21A 6307   5.918   2.075   8.815 -0.2040 -0.6498  1.5052
   52CHL1  H21B 6308   5.755   2.067   8.737  0.7600 -1.1707  0.3221
   52CHL1  H21C 6309   5.772   2.050   8.906 -2.1241 -0.4195 -1.0849
   52CHL1   C22 6310   5.868   2.323   8.702  0.0746 -0.0324  0.3772
   52CHL1  H22A 6311   5.861   2.433   8.690 -0.9247 -0.2335 -1.3147
   52CHL1  H22B 6312   5.977   2.306   8.712  0.1530  1.3905  2.4701
   52CHL1   C23 6313   5.795   2.273   8.574 -0.2800 -0.1072  0.9893
   52CHL1  H23A 6314   5.804   2.163   8.563  3.5598  0.0423  1.1418
   52CHL1  H23B 6315   5.687   2.295   8.586 -0.6996 -0.4285 -1.6859
   52CHL1   C24 6316   5.861   2.321   8.443  0.1404 -0.0661 -0.0366
   52CHL1  H24A 6317   5.821   2.423   8.426  1.7433  0.9559  1.9638
   52CHL1  H24B 6318   5.972   2.328   8.445  0.1014  1.4268 -1.0317
   52CHL1   C25 6319   5.813   2.240   8.329  0.0696 -0.3187 -0.3368
   52CHL1   H25 6320   5.828   2.131   8.345 -0.9183 -0.1298  2.5166
   52CHL1   C26 6321   5.659   2.275   8.298 -0.0486 -0.5347  0.2170
   52CHL1  H26A 6322   5.624   2.195   8.229 -0.3903  0.4942 -0.8474
   52CHL1  H26B 6323   5.596   2.266   8.388 -1.7089  0.0889 -0.8337
   52CHL1  H26C 6324   5.647   2.370   8.241 -1.1524 -0.8684 -0.1352
   52CHL1   C27 6325   5.903   2.281   8.212 -0.1723 -0.1361 -0.2822
   52CHL1  H27A 6326   5.878   2.388   8.196  0.3603 -0.1525 -1.3395
   52CHL1  H27B 6327   6.012   2.270   8.231 -0.3984  0.6960  1.7851
   52CHL1  H27C 6328   5.885   2.223   8.119 -1.9633 -0.4151  0.1941
   53CHL1    C3 6329   5.185   0.980   9.972  0.6696  1.0237  0.5174
   53CHL1    H3 6330   5.252   1.066   9.953  0.4451  1.3554  1.1899
   53CHL1    O3 6331   5.153   0.951  10.111  0.2499 -0.0005 -0.1612
   53CHL1   H3' 6332   5.220   0.886  10.133  1.2651  0.5948 -1.3868
   53CHL1    C4 6333   5.048   0.996   9.899  0.1622 -0.0277  0.1830
   53CHL1   H4A 6334   4.975   0.916   9.922 -1.4326  1.0698 -0.8125
   53CHL1   H4B 6335   4.998   1.088   9.936  1.6475  1.0887 -0.4995
   53CHL1    C5 6336   5.075   1.017   9.748 -0.1848  0.0431 -0.4174
   53CHL1    C6 6337   5.028   1.131   9.685 -0.3302  1.0393  0.4025
   53CHL1    H6 6338   4.977   1.214   9.737  0.4271  2.8258 -1.5815
   53CHL1    C7 6339   5.051   1.143   9.531  0.6815 -0.5963  0.2884
   53CHL1   H7A 6340   4.952   1.171   9.488  1.6995  1.3904 -0.9429
   53CHL1   H7B 6341   5.120   1.223   9.498 -1.4986  1.6647  0.8441
   53CHL1    C8 6342   5.088   1.003   9.457 -0.3607 -0.0055 -0.0825
   53CHL1    H8 6343   4.998   0.938   9.458 -1.0516  0.9377 -0.1311
   53CHL1   C14 6344   5.139   1.035   9.318  0.2685  0.2199 -0.0472
   53CHL1   H14 6345   5.236   1.088   9.331  1.1705 -1.2885 -0.3390
   53CHL1   C15 6346   5.050   1.121   9.236 -0.0938  0.4033  0.2547
   53CHL1  H15A 6347   4.949   1.079   9.256 -0.6473  1.5316 -0.0618
   53CHL1  H15B 6348   5.053   1.228   9.268  1.8821  0.9386 -1.4620
   53CHL1   C16 6349   5.089   1.090   9.091 -0.5296  0.2753 -0.3544
   53CHL1  H16A 6350   5.013   1.018   9.052  1.3469 -2.4627  0.6938
   53CHL1  H16B 6351   5.099   1.182   9.029  0.7789  0.9570  0.8180
   53CHL1   C17 6352   5.206   0.987   9.107  0.1911 -0.8048  0.6355
   53CHL1   H17 6353   5.290   1.057   9.124  0.3802 -0.5055 -1.3416
   53CHL1   C13 6354   5.179   0.913   9.241  0.1649 -0.6367  1.0048
   53CHL1   C18 6355   5.062   0.808   9.223 -0.0765  0.7898  0.1257
   53CHL1  H18A 6356   4.969   0.862   9.196  0.4748  2.1329  0.8280
   53CHL1  H18B 6357   5.087   0.728   9.150  0.0195 -0.5745  1.5915
   53CHL1  H18C 6358   5.047   0.758   9.321 -0.5151  0.9910  0.1631
   53CHL1   C12 6359   5.306   0.848   9.308  0.4429 -0.6151  0.0780
   53CHL1  H12A 6360   5.351   0.757   9.262  1.8005  0.8358 -1.6369
   53CHL1  H12B 6361   5.393   0.918   9.304 -1.0496  1.2895 -0.5293
   53CHL1   C11 6362   5.277   0.818   9.459 -0.5072  0.5035 -0.4000
   53CHL1  H11A 6363   5.218   0.724   9.464 -0.1581  0.2977 -0.1171
   53CHL1  H11B 6364   5.374   0.794   9.507 -0.5949 -0.4632 -0.6924
   53CHL1    C9 6365   5.202   0.934   9.532 -0.2778  0.1360  0.2140
   53CHL1    H9 6366   5.285   1.007   9.545  1.3376 -1.7787  1.1782
   53CHL1   C10 6367   5.155   0.900   9.677  0.0856 -0.3385 -0.0687
   53CHL1   C19 6368   5.070   0.780   9.675 -0.8510 -0.7188 -0.3375
   53CHL1  H19A 6369   5.032   0.751   9.776 -1.1772 -0.7130 -0.4553
   53CHL1  H19B 6370   4.984   0.797   9.606 -0.2690 -0.4178 -0.9928
   53CHL1  H19C 6371   5.126   0.688   9.646  1.6356  0.9478 -1.0695
   53CHL1    C1 6372   5.283   0.880   9.758 -0.0489  0.6906  0.3624
   53CHL1   H1A 6373   5.323   0.785   9.717 -1.9751 -0.6718  1.5003
   53CHL1   H1B 6374   5.357   0.960   9.736  2.3833 -1.1901  1.2684
   53CHL1    C2 6375   5.266   0.864   9.913  0.8078  0.1288 -0.2853
   53CHL1   H2A 6376   5.360   0.845   9.970  0.2862  0.8468  0.8481
   53CHL1   H2B 6377   5.210   0.770   9.931 -0.3329  0.6267 -1.1397
   53CHL1   C20 6378   5.233   0.916   8.975  0.4168  0.3739  0.1601
   53CHL1   H20 6379   5.154   0.849   8.936 -0.2958  2.2278 -1.7726
   53CHL1   C21 6380   5.356   0.829   8.989 -0.4352  0.5264  0.2874
   53CHL1  H21A 6381   5.446   0.886   9.021  1.8296 -1.2683 -2.3302
   53CHL1  H21B 6382   5.390   0.790   8.890  0.2639 -0.6465  0.9586
   53CHL1  H21C 6383   5.338   0.739   9.051 -2.1691  0.6781  0.0368
   53CHL1   C22 6384   5.262   1.007   8.855 -0.1536 -0.3094 -0.1988
   53CHL1  H22A 6385   5.213   1.105   8.873 -1.8517 -1.7622  5.0098
   53CHL1  H22B 6386   5.371   1.023   8.860 -0.1948  0.3741 -1.1625
   53CHL1   C23 6387   5.229   0.948   8.716  0.1121 -0.2736 -0.7115
   53CHL1  H23A 6388   5.286   1.006   8.639 -3.1582 -0.1280 -3.2847
   53CHL1  H23B 6389   5.255   0.841   8.704 -1.7285 -0.7871 -0.4822
   53CHL1   C24 6390   5.089   0.978   8.674 -0.0517  0.0401 -0.2053
   53CHL1  H24A 6391   5.021   0.974   8.761 -0.9799  0.0008 -0.9252
   53CHL1  H24B 6392   5.089   1.084   8.641 -2.9291 -0.0569 -0.7429
   53CHL1   C25 6393   5.047   0.888   8.563  0.1613 -0.1000 -0.5778
   53CHL1   H25 6394   5.063   0.784   8.597  1.4896 -0.2025 -1.4348
   53CHL1   C26 6395   4.898   0.905   8.544  0.9108 -1.1989 -0.4862
   53CHL1  H26A 6396   4.845   0.916   8.642 -0.1059 -1.7779 -0.9546
   53CHL1  H26B 6397   4.882   0.998   8.485 -0.8688 -0.3036  1.2825
   53CHL1  H26C 6398   4.844   0.825   8.490 -0.3738 -0.6450 -0.0735
   53CHL1   C27 6399   5.121   0.900   8.426 -0.5146  0.4569 -0.8063
   53CHL1  H27A 6400   5.230   0.889   8.444 -1.0340 -0.6369  2.1389
   53CHL1  H27B 6401   5.086   0.815   8.364 -2.1601  0.5047  0.0175
   53CHL1  H27C 6402   5.101   0.996   8.373 -4.4660  0.5050  0.4640
   54CHL1    C3 6403   6.804   0.266   9.930  0.3287  0.6069 -0.4228
   54CHL1    H3 6404   6.847   0.369   9.939  0.3455  0.7728 -2.0555
   54CHL1    O3 6405   6.754   0.214  10.049 -0.2652  0.0575  0.0502
   54CHL1   H3' 6406   6.834   0.210  10.101 -0.0632  0.8416 -0.1803
   54CHL1    C4 6407   6.693   0.263   9.817 -0.0269  0.2705  0.2104
   54CHL1   H4A 6408   6.646   0.162   9.825 -1.0809  0.7285 -0.0393
   54CHL1   H4B 6409   6.616   0.331   9.859  0.5678  0.2061  1.4527
   54CHL1    C5 6410   6.736   0.295   9.675  0.2458 -0.4694 -0.3781
   54CHL1    C6 6411   6.694   0.404   9.611 -0.1157  0.8787  0.0320
   54CHL1    H6 6412   6.614   0.464   9.658 -0.2259  0.5124  0.3159
   54CHL1    C7 6413   6.734   0.447   9.473 -0.2689 -0.4535 -0.4152
   54CHL1   H7A 6414   6.636   0.473   9.429 -0.7129 -0.2946  0.6591
   54CHL1   H7B 6415   6.793   0.541   9.477 -0.9790 -0.0447  0.9909
   54CHL1    C8 6416   6.798   0.333   9.400 -0.2159  0.0860  0.3099
   54CHL1    H8 6417   6.723   0.258   9.368 -0.7547  0.8516 -0.2768
   54CHL1   C14 6418   6.858   0.385   9.275  0.2920  0.0912 -1.0478
   54CHL1   H14 6419   6.941   0.454   9.304  0.8306 -1.0430  0.2108
   54CHL1   C15 6420   6.763   0.458   9.180  0.5543  0.2647 -0.5528
   54CHL1  H15A 6421   6.677   0.397   9.143  1.1125 -1.4646  0.8780
   54CHL1  H15B 6422   6.731   0.556   9.220  1.2118 -0.9465  3.3355
   54CHL1   C16 6423   6.849   0.455   9.052  0.2739 -0.4949 -0.8323
   54CHL1  H16A 6424   6.784   0.415   8.971 -0.3397 -1.0579 -0.0732
   54CHL1  H16B 6425   6.891   0.554   9.024  1.6432 -1.2039 -1.3821
   54CHL1   C17 6426   6.974   0.363   9.070  0.3438  0.5005 -0.2423
   54CHL1   H17 6427   7.055   0.433   9.099 -0.8004  2.6621 -1.9857
   54CHL1   C13 6428   6.934   0.274   9.190 -0.1464  0.7154  0.5169
   54CHL1   C18 6429   6.843   0.159   9.139  0.5402 -0.0285 -0.3005
   54CHL1  H18A 6430   6.910   0.079   9.101  1.1524 -1.8098  4.0032
   54CHL1  H18B 6431   6.786   0.103   9.216 -1.7686  0.1382 -1.7945
   54CHL1  H18C 6432   6.775   0.181   9.054  1.3764  0.3228 -0.8957
   54CHL1   C12 6433   7.051   0.227   9.281  0.0584  0.0681  0.4760
   54CHL1  H12A 6434   7.109   0.145   9.235 -3.2183 -2.3320  0.3153
   54CHL1  H12B 6435   7.114   0.317   9.296  0.1860  0.1355 -0.4454
   54CHL1   C11 6436   7.002   0.163   9.415 -0.6526  0.3407 -0.7108
   54CHL1  H11A 6437   6.945   0.071   9.391  1.6634 -1.2045 -0.5918
   54CHL1  H11B 6438   7.089   0.135   9.478 -0.1210  2.1845 -0.5557
   54CHL1    C9 6439   6.904   0.259   9.490  0.5554 -0.1777 -0.5100
   54CHL1    H9 6440   6.970   0.346   9.512 -0.9499  0.3924  2.2739
   54CHL1   C10 6441   6.846   0.203   9.620 -0.1148 -0.2368 -0.3227
   54CHL1   C19 6442   6.787   0.064   9.589 -0.0062  0.4305 -1.0717
   54CHL1  H19A 6443   6.865  -0.014   9.574  0.9206  1.2596 -0.6465
   54CHL1  H19B 6444   6.743   0.025   9.683 -0.3125  1.7381 -0.6510
   54CHL1  H19C 6445   6.719   0.077   9.502 -0.9833  2.0147 -0.1081
   54CHL1    C1 6446   6.960   0.208   9.731 -0.3306  0.0557 -0.5607
   54CHL1   H1A 6447   7.044   0.139   9.706  0.7475  0.5496  1.5048
   54CHL1   H1B 6448   7.007   0.308   9.733  1.0058 -0.5514  1.2116
   54CHL1    C2 6449   6.921   0.181   9.877  0.2029 -0.8147  0.1889
   54CHL1   H2A 6450   7.001   0.205   9.950 -2.3295  1.4853  2.4258
   54CHL1   H2B 6451   6.894   0.073   9.876  0.3898 -0.8602 -0.0485
   54CHL1   C20 6452   7.017   0.305   8.934 -0.4995 -0.1867  0.4108
   54CHL1   H20 6453   6.937   0.233   8.904 -0.4328  1.1929 -3.7181
   54CHL1   C21 6454   7.147   0.219   8.957  0.9054 -0.4225 -0.1604
   54CHL1  H21A 6455   7.129   0.142   9.035  0.6050  1.1658  1.3809
   54CHL1  H21B 6456   7.221   0.284   9.008 -0.3936 -0.3992  1.8188
   54CHL1  H21C 6457   7.183   0.159   8.870 -2.0198 -0.2937 -1.5871
   54CHL1   C22 6458   7.038   0.408   8.822 -0.2045 -0.0809 -0.5075
   54CHL1  H22A 6459   6.960   0.486   8.831 -1.2109 -1.1661  0.3912
   54CHL1  H22B 6460   7.136   0.455   8.847  0.1027 -1.2171  0.5245
   54CHL1   C23 6461   7.031   0.349   8.684  0.3379  0.0048  0.4583
   54CHL1  H23A 6462   7.118   0.280   8.671  1.9989  2.3706 -2.3964
   54CHL1  H23B 6463   6.933   0.297   8.681  0.3075 -0.1202  2.4186
   54CHL1   C24 6464   7.054   0.468   8.588  0.7286  0.0966 -0.6359
   54CHL1  H24A 6465   6.953   0.513   8.595  0.3182 -0.7144 -1.2546
   54CHL1  H24B 6466   7.131   0.540   8.623 -0.4514  0.9524  0.2744
   54CHL1   C25 6467   7.090   0.430   8.448 -0.2317  0.4629 -0.9628
   54CHL1   H25 6468   7.189   0.380   8.453  0.0805  1.1836  2.2163
   54CHL1   C26 6469   6.979   0.338   8.387 -0.3021  0.0483  0.7245
   54CHL1  H26A 6470   6.998   0.316   8.280  0.9420  0.6006  0.8170
   54CHL1  H26B 6471   6.983   0.243   8.445  0.4284 -0.3519  0.0376
   54CHL1  H26C 6472   6.878   0.385   8.393  0.5544  1.9529  1.0542
   54CHL1   C27 6473   7.122   0.555   8.358  0.7166  0.1395 -0.3606
   54CHL1  H27A 6474   7.162   0.508   8.266  0.5871 -2.8342  1.0073
   54CHL1  H27B 6475   7.024   0.606   8.343  1.9754  2.8717  0.0325
   54CHL1  H27C 6476   7.197   0.627   8.396 -0.8407  1.2980  0.6604
   55CHL1    C3 6477   0.905   1.491  10.033 -0.0170 -0.9796 -0.2646
   55CHL1    H3 6478   0.795   1.503  10.019 -0.0310 -0.8159 -0.0258
   55CHL1    O3 6479   0.915   1.494  10.174 -0.6812  0.0912 -0.1794
   55CHL1   H3' 6480   0.990   1.552  10.191 -0.4582 -0.6754  1.7866
   55CHL1    C4 6481   0.966   1.368   9.982 -0.6051 -0.1853  0.4136
   55CHL1   H4A 6482   1.069   1.380  10.022 -0.2447 -3.2827  0.6762
   55CHL1   H4B 6483   0.929   1.275  10.030 -2.3666  1.0102  1.4975
   55CHL1    C5 6484   0.970   1.370   9.830 -0.0234  0.9429 -0.0704
   55CHL1    C6 6485   0.929   1.259   9.763 -0.4711  0.2393 -0.2403
   55CHL1    H6 6486   0.893   1.164   9.807  0.3817 -0.7811 -1.6766
   55CHL1    C7 6487   0.920   1.252   9.615 -0.1041  0.2816  0.4589
   55CHL1   H7A 6488   0.950   1.149   9.585 -1.1426  0.1478 -0.1532
   55CHL1   H7B 6489   0.818   1.269   9.575 -0.1759  1.0205  0.9265
   55CHL1    C8 6490   1.014   1.352   9.545 -0.2320 -0.2212 -0.4936
   55CHL1    H8 6491   1.115   1.316   9.572  0.0085  0.8446  0.1126
   55CHL1   C14 6492   0.999   1.338   9.390  0.8569 -0.3261 -0.2093
   55CHL1   H14 6493   0.892   1.358   9.371  0.6539  0.4775  1.5943
   55CHL1   C15 6494   1.039   1.206   9.334  1.0263 -0.9530  0.2304
   55CHL1  H15A 6495   1.133   1.170   9.381  1.6831 -0.9213 -1.0339
   55CHL1  H15B 6496   0.958   1.133   9.356  0.1820 -1.0440 -2.7525
   55CHL1   C16 6497   1.063   1.236   9.182  0.6717  0.3791  0.0275
   55CHL1  H16A 6498   1.159   1.205   9.135 -1.6429 -0.6933 -4.5043
   55CHL1  H16B 6499   0.983   1.195   9.117  2.8488 -1.1111 -1.9018
   55CHL1   C17 6500   1.045   1.393   9.171  0.5894  0.3655  0.2320
   55CHL1   H17 6501   0.939   1.419   9.154  0.4836  0.9826  1.7147
   55CHL1   C13 6502   1.072   1.450   9.317 -0.3622  0.3485 -0.1714
   55CHL1   C18 6503   1.228   1.441   9.345  0.1458 -0.0612 -0.2153
   55CHL1  H18A 6504   1.268   1.540   9.315 -0.2442  0.1758  0.0390
   55CHL1  H18B 6505   1.252   1.409   9.448  1.0527  0.4751 -0.2517
   55CHL1  H18C 6506   1.269   1.358   9.283 -1.0862 -1.3830  0.6659
   55CHL1   C12 6507   1.014   1.590   9.360 -0.2299 -0.0157  0.1035
   55CHL1  H12A 6508   1.072   1.666   9.302 -0.6299  0.1386 -0.0957
   55CHL1  H12B 6509   0.907   1.596   9.330 -0.7726 -0.8694  1.7515
   55CHL1   C11 6510   1.028   1.613   9.515 -1.0180 -0.2685  0.1764
   55CHL1  H11A 6511   1.138   1.623   9.531 -0.7902 -0.8826 -0.8746
   55CHL1  H11B 6512   0.990   1.714   9.540  2.1756  1.2452 -0.5597
   55CHL1    C9 6513   0.980   1.495   9.599  0.2561  0.2226  0.3911
   55CHL1    H9 6514   0.870   1.494   9.592  0.1948 -1.9570  0.9588
   55CHL1   C10 6515   1.004   1.500   9.750 -0.0981 -0.3351 -0.7711
   55CHL1   C19 6516   1.156   1.520   9.771  0.2225 -0.7733 -0.1461
   55CHL1  H19A 6517   1.194   1.508   9.875 -0.0781  1.8108  0.3260
   55CHL1  H19B 6518   1.206   1.443   9.708  0.0956 -1.0031  0.0321
   55CHL1  H19C 6519   1.189   1.623   9.747  1.9718 -1.1945  0.3044
   55CHL1    C1 6520   0.934   1.619   9.825  0.4563 -0.0887 -0.3293
   55CHL1   H1A 6521   0.967   1.712   9.774 -2.1398  0.3923 -1.2882
   55CHL1   H1B 6522   0.825   1.605   9.808 -0.1763  1.4106  1.9846
   55CHL1    C2 6523   0.961   1.621   9.978 -0.2195  0.3898 -0.1278
   55CHL1   H2A 6524   0.900   1.702  10.024  0.1856  0.0525  1.0316
   55CHL1   H2B 6525   1.069   1.633   9.998 -0.2145 -2.8589  2.4926
   55CHL1   C20 6526   1.127   1.442   9.052 -0.6278  0.7067  0.1505
   55CHL1   H20 6527   1.230   1.404   9.063 -1.3123 -0.5193  3.2962
   55CHL1   C21 6528   1.113   1.598   9.039  0.2265  0.4559 -0.2345
   55CHL1  H21A 6529   1.147   1.643   8.943 -0.9981 -0.5503 -1.1776
   55CHL1  H21B 6530   1.170   1.648   9.119 -0.2342 -0.5177  0.7234
   55CHL1  H21C 6531   1.008   1.627   9.057 -0.1974 -1.1147 -0.0147
   55CHL1   C22 6532   1.076   1.378   8.913  0.7487 -0.0477  0.4609
   55CHL1  H22A 6533   1.026   1.279   8.920 -0.4254  0.6365  2.7049
   55CHL1  H22B 6534   0.985   1.437   8.890  0.4778  0.0373  1.6636
   55CHL1   C23 6535   1.169   1.392   8.798  0.0320 -0.2826 -0.3870
   55CHL1  H23A 6536   1.195   1.499   8.791 -0.1652 -0.2957 -1.7031
   55CHL1  H23B 6537   1.266   1.346   8.828 -0.5588 -0.0520  2.0134
   55CHL1   C24 6538   1.105   1.348   8.663  0.3283  0.2814  0.3581
   55CHL1  H24A 6539   1.094   1.238   8.661  3.1545 -0.0778  0.0577
   55CHL1  H24B 6540   1.002   1.388   8.648  0.0525 -0.7577 -0.6694
   55CHL1   C25 6541   1.193   1.375   8.537 -0.1132  0.5719 -0.2146
   55CHL1   H25 6542   1.140   1.317   8.459  0.2844  1.0069 -0.8197
   55CHL1   C26 6543   1.200   1.524   8.502  0.7133 -0.3283  0.4579
   55CHL1  H26A 6544   1.101   1.568   8.524  0.7785 -0.1375  0.3662
   55CHL1  H26B 6545   1.279   1.580   8.556  0.6996 -0.5034  0.6597
   55CHL1  H26C 6546   1.215   1.529   8.392  2.5033 -0.4185  0.6708
   55CHL1   C27 6547   1.342   1.317   8.542 -0.5615 -0.5948  0.0691
   55CHL1  H27A 6548   1.351   1.208   8.562 -0.2644 -1.1251 -2.5291
   55CHL1  H27B 6549   1.394   1.313   8.443 -0.3153  0.1186  0.1617
   55CHL1  H27C 6550   1.410   1.365   8.616  0.9519  1.0923 -2.2573
   56CHL1    C3 6551   6.699   4.859  10.080 -0.4911  0.4281 -0.4787
   56CHL1    H3 6552   6.758   4.771  10.046  0.0553  0.8419 -0.6285
   56CHL1    O3 6553   6.660   4.869  10.219 -0.3505  0.8518  0.6116
   56CHL1   H3' 6554   6.646   4.963  10.234 -1.0987  0.7703  0.4865
   56CHL1    C4 6555   6.778   4.979  10.053  0.4474  0.0149 -0.1191
   56CHL1   H4A 6556   6.730   5.068  10.097  2.2227  1.4715 -0.9775
   56CHL1   H4B 6557   6.876   4.957  10.102  1.4368 -2.2897 -2.8301
   56CHL1    C5 6558   6.806   4.999   9.907 -0.4251  0.3279  0.5150
   56CHL1    C6 6559   6.929   5.024   9.861  0.4210  0.3491  0.6699
   56CHL1    H6 6560   7.007   5.043   9.937  0.8140 -1.1887  0.6756
   56CHL1    C7 6561   6.970   5.042   9.712 -0.3511  0.4398 -0.1986
   56CHL1   H7A 6562   7.043   5.121   9.686  0.6664 -0.4975 -0.2394
   56CHL1   H7B 6563   7.012   4.951   9.665 -1.5069  0.2417 -0.8990
   56CHL1    C8 6564   6.845   5.065   9.616 -0.6505  0.1092 -0.5901
   56CHL1    H8 6565   6.815   5.172   9.627 -1.2569  0.0696 -1.7238
   56CHL1   C14 6566   6.886   5.038   9.464  0.1840 -0.2713  0.2524
   56CHL1   H14 6567   6.915   4.931   9.469  0.7868 -0.1273 -0.1208
   56CHL1   C15 6568   7.004   5.122   9.409  0.3319  0.4010  0.0488
   56CHL1  H15A 6569   7.008   5.230   9.435  1.5429  0.7357 -1.4158
   56CHL1  H15B 6570   7.100   5.074   9.437  0.0224 -0.9027 -1.0235
   56CHL1   C16 6571   6.976   5.106   9.260 -0.4448  0.9408  0.1283
   56CHL1  H16A 6572   6.976   5.202   9.203  2.4092  0.8733 -0.1407
   56CHL1  H16B 6573   7.052   5.038   9.216 -1.0422  0.1312  0.3294
   56CHL1   C17 6574   6.838   5.043   9.239 -0.2509 -0.0092 -0.5419
   56CHL1   H17 6575   6.851   4.933   9.232  1.5670  0.2087 -1.4175
   56CHL1   C13 6576   6.767   5.058   9.372 -0.7431 -0.3214 -0.0442
   56CHL1   C18 6577   6.718   5.204   9.377 -0.0972  0.0350 -0.0681
   56CHL1  H18A 6578   6.697   5.242   9.479 -0.5542  4.0856 -1.4858
   56CHL1  H18B 6579   6.803   5.264   9.338  0.6464 -1.3613 -0.6700
   56CHL1  H18C 6580   6.626   5.217   9.316  1.9248  0.7035 -3.2213
   56CHL1   C12 6581   6.649   4.961   9.413 -0.8855  0.0521 -0.1169
   56CHL1  H12A 6582   6.562   4.988   9.350 -0.9818 -1.0389 -0.4765
   56CHL1  H12B 6583   6.689   4.863   9.380  0.0594  0.3101  0.2165
   56CHL1   C11 6584   6.605   4.982   9.564 -0.2071  0.5600  0.2198
   56CHL1  H11A 6585   6.561   5.084   9.565 -0.7860  0.3155  0.0230
   56CHL1  H11B 6586   6.525   4.907   9.584 -0.6397  0.5606 -1.3486
   56CHL1    C9 6587   6.727   4.968   9.663 -0.4281 -0.0399  0.2493
   56CHL1    H9 6588   6.769   4.867   9.644 -0.2340  0.1455 -0.3476
   56CHL1   C10 6589   6.685   4.983   9.810 -0.5059  0.0668  0.6927
   56CHL1   C19 6590   6.599   5.111   9.828 -0.1334  0.3290 -0.2016
   56CHL1  H19A 6591   6.564   5.136   9.931 -0.4383  0.4413 -0.3303
   56CHL1  H19B 6592   6.645   5.206   9.792  0.0132  0.3648  0.0830
   56CHL1  H19C 6593   6.506   5.100   9.769 -1.2312  0.5230  1.4358
   56CHL1    C1 6594   6.598   4.864   9.852 -0.1220 -0.5670 -0.0313
   56CHL1   H1A 6595   6.502   4.872   9.797 -0.8595 -0.0316  1.2859
   56CHL1   H1B 6596   6.647   4.765   9.835  0.6652 -0.5056  1.6017
   56CHL1    C2 6597   6.571   4.856  10.005  0.2975 -0.0932  0.2159
   56CHL1   H2A 6598   6.530   4.755  10.026  2.2620 -0.9588  0.1100
   56CHL1   H2B 6599   6.504   4.938  10.037  0.7731  1.0460 -1.5439
   56CHL1   C20 6600   6.768   5.088   9.113 -0.8086 -0.3708  0.7303
   56CHL1   H20 6601   6.754   5.198   9.121 -1.4616 -0.3736 -0.2756
   56CHL1   C21 6602   6.630   5.017   9.095 -0.3037 -0.2163 -0.2159
   56CHL1  H21A 6603   6.582   5.040   8.998 -1.6523  1.9901  0.9040
   56CHL1  H21B 6604   6.563   5.055   9.175 -1.6671 -0.5789 -1.1677
   56CHL1  H21C 6605   6.647   4.908   9.108  3.0327 -0.0662 -2.1373
   56CHL1   C22 6606   6.861   5.076   8.991  0.8377 -0.1130  0.1397
   56CHL1  H22A 6607   6.795   5.131   8.921 -0.6075 -0.5867  1.0945
   56CHL1  H22B 6608   6.953   5.139   9.000  1.1549 -0.5255 -0.2003
   56CHL1   C23 6609   6.896   4.940   8.935 -0.3978  1.0412  0.1156
   56CHL1  H23A 6610   6.966   4.898   9.011 -1.7050  1.4346  1.5999
   56CHL1  H23B 6611   6.800   4.884   8.929  1.9817 -3.2318 -2.0299
   56CHL1   C24 6612   6.973   4.952   8.801  0.2671  0.0627  0.6134
   56CHL1  H24A 6613   7.069   5.006   8.817  0.3388 -0.1467  0.9023
   56CHL1  H24B 6614   7.003   4.852   8.764  1.6816  0.8658 -0.5206
   56CHL1   C25 6615   6.912   5.031   8.680 -0.4997 -0.5306  0.1000
   56CHL1   H25 6616   6.862   5.124   8.715  0.0015  0.0682 -0.7223
   56CHL1   C26 6617   7.028   5.075   8.578 -0.4576  0.0661 -0.9303
   56CHL1  H26A 6618   7.099   5.151   8.617 -1.9039  1.3842 -0.7697
   56CHL1  H26B 6619   7.098   4.994   8.546  1.2214  0.3415  1.6969
   56CHL1  H26C 6620   6.980   5.126   8.491 -0.5706  0.9150 -0.3827
   56CHL1   C27 6621   6.806   4.953   8.603  0.3428  0.0018  0.0155
   56CHL1  H27A 6622   6.763   5.021   8.526 -0.3002  0.5557  0.8569
   56CHL1  H27B 6623   6.853   4.862   8.559 -0.9157 -0.5107 -0.3341
   56CHL1  H27C 6624   6.724   4.925   8.673  0.4520 -1.1959 -0.3218
   57CHL1    C3 6625   6.195   1.205  10.027  0.6958  0.0051 -0.8489
   57CHL1    H3 6626   6.261   1.115  10.034  0.5806 -0.0671 -0.6919
   57CHL1    O3 6627   6.195   1.246  10.165  0.4501  0.1447  0.3406
   57CHL1   H3' 6628   6.282   1.287  10.166  0.9805 -0.8511 -1.0636
   57CHL1    C4 6629   6.250   1.318   9.941 -0.1425  0.0731  0.1011
   57CHL1   H4A 6630   6.193   1.407   9.977  0.7365  0.8377 -0.3517
   57CHL1   H4B 6631   6.355   1.325   9.976  0.3349  1.6962 -1.5102
   57CHL1    C5 6632   6.241   1.287   9.797 -0.0717 -0.2595  0.6613
   57CHL1    C6 6633   6.345   1.298   9.710 -0.5042  0.3918  0.0200
   57CHL1    H6 6634   6.440   1.336   9.752  0.0020 -0.1708 -0.5885
   57CHL1    C7 6635   6.341   1.282   9.561  0.6172 -0.0701 -0.0611
   57CHL1   H7A 6636   6.388   1.369   9.509  0.5615 -0.4728 -0.8137
   57CHL1   H7B 6637   6.388   1.185   9.534  0.6962  0.1336 -0.6774
   57CHL1    C8 6638   6.196   1.283   9.506 -0.1434  0.0946 -0.5183
   57CHL1    H8 6639   6.164   1.389   9.515 -0.0146  0.1108 -0.2358
   57CHL1   C14 6640   6.187   1.227   9.371  0.3019  0.5188 -0.5202
   57CHL1   H14 6641   6.219   1.122   9.386 -1.2713  0.2763  1.8427
   57CHL1   C15 6642   6.271   1.289   9.264 -0.6358  0.5266  0.0220
   57CHL1  H15A 6643   6.262   1.400   9.269  0.3302  0.6341 -0.4631
   57CHL1  H15B 6644   6.379   1.267   9.278 -0.6787 -0.1676 -0.6737
   57CHL1   C16 6645   6.203   1.236   9.135 -0.0875 -0.4909 -0.4096
   57CHL1  H16A 6646   6.217   1.308   9.052  0.4718 -0.4384 -0.2753
   57CHL1  H16B 6647   6.258   1.143   9.109  0.1604  0.0951 -2.1085
   57CHL1   C17 6648   6.063   1.188   9.171  0.3787  0.7729 -0.4835
   57CHL1   H17 6649   6.071   1.078   9.164 -0.1731  0.5411  1.6708
   57CHL1   C13 6650   6.040   1.232   9.318 -0.1997  0.1723 -0.6660
   57CHL1   C18 6651   5.996   1.380   9.305 -0.2089  0.4505  0.3630
   57CHL1  H18A 6652   5.893   1.395   9.265 -1.2279 -0.3698  2.5248
   57CHL1  H18B 6653   5.983   1.433   9.402 -0.1863 -1.5651  1.5218
   57CHL1  H18C 6654   6.064   1.439   9.240 -1.7138  0.2437 -1.4729
   57CHL1   C12 6655   5.953   1.137   9.401  0.7941  0.5612  0.1048
   57CHL1  H12A 6656   5.847   1.142   9.367  0.1773  0.5432  1.9543
   57CHL1  H12B 6657   5.999   1.036   9.394  0.9153  0.5590  0.8606
   57CHL1   C11 6658   5.952   1.189   9.546 -0.6660 -0.2941 -0.1362
   57CHL1  H11A 6659   5.898   1.285   9.545 -1.3365 -0.6362 -2.7005
   57CHL1  H11B 6660   5.889   1.118   9.604  2.0280 -1.2185  1.8905
   57CHL1    C9 6661   6.097   1.201   9.602  0.4355  0.0499  0.4761
   57CHL1    H9 6662   6.130   1.096   9.592 -0.6073 -0.4912  2.2746
   57CHL1   C10 6663   6.100   1.245   9.744 -0.3253 -0.2493  0.0603
   57CHL1   C19 6664   6.015   1.373   9.761  0.5219  0.6557 -0.5395
   57CHL1  H19A 6665   6.046   1.436   9.675 -1.3839 -0.7815 -2.3899
   57CHL1  H19B 6666   5.910   1.342   9.742  0.8781 -1.5171  0.7516
   57CHL1  H19C 6667   6.007   1.433   9.855 -1.2596 -0.8152  0.3111
   57CHL1    C1 6668   6.044   1.134   9.837 -0.0519 -0.4105 -0.5901
   57CHL1   H1A 6669   5.940   1.115   9.803  0.2656 -1.9683 -0.7599
   57CHL1   H1B 6670   6.098   1.038   9.824 -1.0091 -0.9270 -0.8884
   57CHL1    C2 6671   6.054   1.156   9.987 -0.0325  0.1619 -0.2238
   57CHL1   H2A 6672   6.044   1.060  10.042 -0.0807  0.2881 -0.0149
   57CHL1   H2B 6673   5.978   1.229  10.022 -1.8200 -2.1861  1.0887
   57CHL1   C20 6674   5.963   1.210   9.059  1.0354 -0.7373 -0.6615
   57CHL1   H20 6675   5.950   1.319   9.045  0.2546 -0.3959  2.0677
   57CHL1   C21 6676   5.828   1.149   9.103  0.2982  0.1640  0.4183
   57CHL1  H21A 6677   5.782   1.211   9.184  0.3711  0.2449  0.3978
   57CHL1  H21B 6678   5.858   1.056   9.156 -2.8950 -0.7175  0.8801
   57CHL1  H21C 6679   5.765   1.126   9.015  2.3079 -1.8456 -0.6027
   57CHL1   C22 6680   6.007   1.146   8.925 -0.0816  0.1369  0.4323
   57CHL1  H22A 6681   6.117   1.144   8.908 -0.0389 -0.9416  0.7835
   57CHL1  H22B 6682   5.978   1.039   8.933 -0.7007  0.2228 -0.5305
   57CHL1   C23 6683   5.938   1.213   8.805  0.2368  0.2026  0.6340
   57CHL1  H23A 6684   5.828   1.203   8.822  0.1209  1.8268  0.9960
   57CHL1  H23B 6685   5.957   1.322   8.799  0.0788  0.2262  0.5502
   57CHL1   C24 6686   5.967   1.138   8.674  0.7866  0.0827  0.3121
   57CHL1  H24A 6687   5.968   1.028   8.693  1.9757 -0.1514 -0.9297
   57CHL1  H24B 6688   5.888   1.162   8.601  1.2912 -0.3885 -0.4016
   57CHL1   C25 6689   6.098   1.162   8.601 -0.0656 -0.2708 -0.3801
   57CHL1   H25 6690   6.177   1.152   8.679 -0.0858 -0.3928 -0.3747
   57CHL1   C26 6691   6.117   1.062   8.491  0.3363 -0.0285  0.1604
   57CHL1  H26A 6692   6.030   1.057   8.422  0.4366  0.7206 -0.0279
   57CHL1  H26B 6693   6.206   1.078   8.428  0.8425 -2.2755  0.2253
   57CHL1  H26C 6694   6.133   0.963   8.538 -0.5655 -0.2551  0.0170
   57CHL1   C27 6695   6.099   1.309   8.549  0.5657 -0.0501 -0.0671
   57CHL1  H27A 6696   6.015   1.322   8.477  0.8818  0.2566 -0.3830
   57CHL1  H27B 6697   6.082   1.379   8.634  1.0064 -1.0949  0.9111
   57CHL1  H27C 6698   6.195   1.334   8.500  1.2940  0.4592  1.5354
   58CHL1    C3 6699   4.185   5.961   9.933  0.0041  0.3533  0.2485
   58CHL1    H3 6700   4.088   6.011   9.948 -0.4680 -1.0141  2.1704
   58CHL1    O3 6701   4.248   5.951  10.063  0.0170  0.5655 -0.3334
   58CHL1   H3' 6702   4.340   5.926  10.048 -0.5412 -0.3409 -2.8701
   58CHL1    C4 6703   4.147   5.822   9.884  1.2030  0.6534 -0.0634
   58CHL1   H4A 6704   4.241   5.765   9.903  0.7863 -0.1970 -0.5315
   58CHL1   H4B 6705   4.076   5.774   9.955  0.6379  0.3115 -0.8451
   58CHL1    C5 6706   4.115   5.813   9.734 -0.1886  0.3311  0.1679
   58CHL1    C6 6707   4.011   5.742   9.684  0.0637 -0.1481 -0.2292
   58CHL1    H6 6708   3.941   5.697   9.756  0.3311  1.5932  1.1781
   58CHL1    C7 6709   3.978   5.716   9.537 -1.4708 -0.1178  0.1635
   58CHL1   H7A 6710   3.962   5.606   9.527  0.2702 -0.3311 -0.6253
   58CHL1   H7B 6711   3.894   5.780   9.503 -1.5020 -0.4305 -0.3680
   58CHL1    C8 6712   4.104   5.749   9.455  0.0554 -0.8714  0.2137
   58CHL1    H8 6713   4.182   5.671   9.457  2.4657  1.2384 -2.4788
   58CHL1   C14 6714   4.058   5.754   9.311 -0.5235 -0.2886 -0.4294
   58CHL1   H14 6715   3.974   5.827   9.321  0.8405  1.0068  4.0768
   58CHL1   C15 6716   3.999   5.619   9.265  0.3545  0.2458 -0.4136
   58CHL1  H15A 6717   4.076   5.544   9.294 -0.2665 -0.1055  0.3556
   58CHL1  H15B 6718   3.901   5.586   9.304 -0.0212  0.1580 -1.3933
   58CHL1   C16 6719   3.989   5.636   9.117  0.4573 -1.0871 -0.0223
   58CHL1  H16A 6720   4.038   5.549   9.070  1.1198 -0.3201 -0.7997
   58CHL1  H16B 6721   3.883   5.632   9.085 -0.4587  1.0633  2.3939
   58CHL1   C17 6722   4.064   5.767   9.082 -0.9656  0.0070  0.2858
   58CHL1   H17 6723   3.990   5.850   9.082  1.9419  2.8523  1.8847
   58CHL1   C13 6724   4.152   5.806   9.200 -0.0147  0.1356  0.2958
   58CHL1   C18 6725   4.286   5.720   9.199 -0.1216 -0.4360 -0.1479
   58CHL1  H18A 6726   4.330   5.722   9.300 -0.5133  0.7663  0.0108
   58CHL1  H18B 6727   4.279   5.618   9.155 -0.0819 -0.4093 -0.2171
   58CHL1  H18C 6728   4.353   5.771   9.126 -2.1037 -1.4522 -2.8985
   58CHL1   C12 6729   4.173   5.958   9.239 -0.4728 -0.9481 -0.0929
   58CHL1  H12A 6730   4.233   6.011   9.163 -0.9946 -1.2456 -0.7227
   58CHL1  H12B 6731   4.073   6.006   9.234  0.2243  0.4326 -1.5048
   58CHL1   C11 6732   4.234   5.968   9.381 -0.2702  0.3824 -0.2696
   58CHL1  H11A 6733   4.339   5.935   9.370 -0.7459 -1.3577  0.0944
   58CHL1  H11B 6734   4.235   6.077   9.402  0.5124  0.3800 -0.2666
   58CHL1    C9 6735   4.147   5.894   9.495 -0.4028  0.0748  0.7140
   58CHL1    H9 6736   4.053   5.952   9.490 -0.4049  0.0517  0.4582
   58CHL1   C10 6737   4.206   5.895   9.638  0.1809  0.4447 -0.0354
   58CHL1   C19 6738   4.343   5.815   9.634 -0.2984 -0.7108 -0.2580
   58CHL1  H19A 6739   4.337   5.715   9.585 -0.0353 -0.1911 -1.3881
   58CHL1  H19B 6740   4.420   5.870   9.575 -0.7927  0.4665  0.1857
   58CHL1  H19C 6741   4.396   5.806   9.731  0.9449 -1.0938 -0.9339
   58CHL1    C1 6742   4.222   6.045   9.690  0.1600  0.1088  0.2607
   58CHL1   H1A 6743   4.302   6.086   9.625  0.0467  0.8071  0.5479
   58CHL1   H1B 6744   4.124   6.098   9.685  0.4015  0.5017 -0.3748
   58CHL1    C2 6745   4.273   6.054   9.836  0.7632  0.0055 -0.2279
   58CHL1   H2A 6746   4.287   6.157   9.875  3.8477 -0.1053 -0.7266
   58CHL1   H2B 6747   4.376   6.013   9.846  1.1054  0.7602 -0.6131
   58CHL1   C20 6748   4.137   5.755   8.940 -0.7983 -0.8135 -0.2951
   58CHL1   H20 6749   4.209   5.673   8.961 -0.0236  0.2344  1.3457
   58CHL1   C21 6750   4.208   5.886   8.913  0.0159  0.0064 -0.0775
   58CHL1  H21A 6751   4.264   5.928   8.999 -0.3267  0.4613 -0.0718
   58CHL1  H21B 6752   4.131   5.961   8.884 -0.3352 -0.5675 -0.6583
   58CHL1  H21C 6753   4.273   5.870   8.824 -0.1454 -1.8819  0.1140
   58CHL1   C22 6754   4.032   5.712   8.838 -0.6917  0.3314 -0.1595
   58CHL1  H22A 6755   4.088   5.731   8.744  0.8159 -0.0206  0.6336
   58CHL1  H22B 6756   4.007   5.604   8.849 -0.4883  0.3642  0.7597
   58CHL1   C23 6757   3.905   5.796   8.828 -0.3657 -0.5099 -0.0801
   58CHL1  H23A 6758   3.835   5.765   8.909  0.4472 -1.4543  0.2798
   58CHL1  H23B 6759   3.926   5.905   8.833 -2.1605 -0.1070 -0.5277
   58CHL1   C24 6760   3.823   5.772   8.695 -0.7313  0.0181 -0.7819
   58CHL1  H24A 6761   3.883   5.798   8.605  0.9988 -0.6338  0.1157
   58CHL1  H24B 6762   3.796   5.664   8.689  0.1308 -0.3352  0.9749
   58CHL1   C25 6763   3.690   5.848   8.692 -0.6387 -0.6615  0.0532
   58CHL1   H25 6764   3.626   5.815   8.777  1.3567  0.9109  2.2920
   58CHL1   C26 6765   3.701   6.000   8.712 -0.3095  0.8901 -0.1998
   58CHL1  H26A 6766   3.762   6.049   8.633  2.2136 -0.0491  1.0559
   58CHL1  H26B 6767   3.597   6.039   8.717 -0.0735  1.6621 -0.9810
   58CHL1  H26C 6768   3.747   6.015   8.812  1.4000 -2.4419 -0.3471
   58CHL1   C27 6769   3.615   5.821   8.561 -0.8749 -0.1674  0.6523
   58CHL1  H27A 6770   3.585   5.714   8.564 -2.3495  0.2289  1.1117
   58CHL1  H27B 6771   3.527   5.886   8.543 -1.9102 -1.3773  1.2175
   58CHL1  H27C 6772   3.678   5.832   8.470 -2.2373  0.3248 -0.2691
   59CHL1    C3 6773   3.246   1.029  10.048 -0.1761 -1.2321  0.1020
   59CHL1    H3 6774   3.336   0.974  10.011  0.6550 -0.7915  1.4189
   59CHL1    O3 6775   3.244   1.039  10.189 -0.1099 -0.3286 -0.3958
   59CHL1   H3' 6776   3.170   1.095  10.216  1.4261  0.3060  3.0377
   59CHL1    C4 6777   3.245   1.171   9.986  0.1737 -0.1214  0.5797
   59CHL1   H4A 6778   3.171   1.230  10.046  0.2655 -0.9869  1.5749
   59CHL1   H4B 6779   3.341   1.223  10.008  0.4866 -0.3925 -0.1185
   59CHL1    C5 6780   3.225   1.184   9.836 -1.3642  0.0423  0.4568
   59CHL1    C6 6781   3.305   1.256   9.753  0.7596 -0.7641  0.2331
   59CHL1    H6 6782   3.386   1.315   9.797 -0.2575  1.0285 -0.1883
   59CHL1    C7 6783   3.289   1.264   9.605 -0.4936 -0.3199  0.2871
   59CHL1   H7A 6784   3.278   1.366   9.562 -1.4020 -1.4111 -2.3132
   59CHL1   H7B 6785   3.386   1.232   9.560  1.0946  2.5749  1.3926
   59CHL1    C8 6786   3.153   1.206   9.561  0.3433 -0.3892 -0.4047
   59CHL1    H8 6787   3.076   1.282   9.584  1.3895  1.2093 -1.8493
   59CHL1   C14 6788   3.137   1.188   9.413 -0.2543  0.1433 -0.2777
   59CHL1   H14 6789   3.211   1.109   9.391 -1.0275 -0.3302 -1.2230
   59CHL1   C15 6790   3.170   1.304   9.322  0.3355  0.5862 -0.2100
   59CHL1  H15A 6791   3.101   1.387   9.350 -0.0162  0.0088  0.6744
   59CHL1  H15B 6792   3.276   1.337   9.332  0.3345  0.3263  0.7646
   59CHL1   C16 6793   3.121   1.260   9.180  0.2768 -0.8748 -0.7616
   59CHL1  H16A 6794   3.046   1.325   9.131  0.2264  0.9405  1.5133
   59CHL1  H16B 6795   3.207   1.256   9.110 -0.3018  0.4130 -1.5903
   59CHL1   C17 6796   3.052   1.125   9.192 -0.2332 -0.6845  0.4708
   59CHL1   H17 6797   3.123   1.041   9.180  0.9112  0.0562  1.7857
   59CHL1   C13 6798   3.011   1.123   9.345 -0.2096  0.5407 -0.1396
   59CHL1   C18 6799   2.893   1.223   9.368  0.0918  0.5040 -0.1726
   59CHL1  H18A 6800   2.795   1.173   9.352  0.0455  0.5615 -0.0717
   59CHL1  H18B 6801   2.900   1.263   9.472  3.5759 -0.4425  0.0966
   59CHL1  H18C 6802   2.888   1.303   9.292 -1.3455  0.0772 -0.5428
   59CHL1   C12 6803   2.999   0.986   9.416  0.2517  0.0495 -0.4955
   59CHL1  H12A 6804   2.901   0.947   9.382 -0.6538  1.5145  0.3136
   59CHL1  H12B 6805   3.086   0.921   9.390 -1.0153 -1.6468 -0.6746
   59CHL1   C11 6806   2.992   1.005   9.574  0.1119  0.2214  0.3623
   59CHL1  H11A 6807   2.897   1.061   9.587  0.1059  0.3203 -0.0894
   59CHL1  H11B 6808   2.991   0.904   9.621  2.7807 -0.0474 -0.0218
   59CHL1    C9 6809   3.116   1.078   9.636 -0.2921  0.0204  0.1627
   59CHL1    H9 6810   3.205   1.017   9.610 -0.7803 -0.4887 -0.3441
   59CHL1   C10 6811   3.107   1.099   9.789 -0.7829  0.0526  0.1705
   59CHL1   C19 6812   2.967   1.160   9.831 -0.4722 -0.3442  0.2147
   59CHL1  H19A 6813   2.943   1.163   9.939  0.4093 -0.3321  0.4109
   59CHL1  H19B 6814   2.948   1.264   9.799 -3.8534 -0.6221  0.9001
   59CHL1  H19C 6815   2.888   1.089   9.798 -0.8035 -0.5963  1.5063
   59CHL1    C1 6816   3.113   0.962   9.854  0.1781 -0.2094  0.2611
   59CHL1   H1A 6817   3.029   0.899   9.818  1.7842 -2.5920  0.4695
   59CHL1   H1B 6818   3.208   0.920   9.814  0.1484  1.0755 -1.2867
   59CHL1    C2 6819   3.124   0.952  10.005 -0.0753 -0.1015 -0.3542
   59CHL1   H2A 6820   3.121   0.845  10.034 -2.2132 -0.3974 -1.4851
   59CHL1   H2B 6821   3.034   1.002  10.047 -0.9976 -1.0118 -1.2175
   59CHL1   C20 6822   2.945   1.103   9.079  0.1802  0.9980 -0.0060
   59CHL1   H20 6823   2.875   1.189   9.081 -0.0199  0.8479  2.6975
   59CHL1   C21 6824   2.865   0.973   9.110  0.3143 -0.7176 -0.5192
   59CHL1  H21A 6825   2.802   0.999   9.198 -0.4635 -0.0572 -1.2545
   59CHL1  H21B 6826   2.934   0.889   9.134 -0.8101 -1.5446 -0.0701
   59CHL1  H21C 6827   2.798   0.948   9.025 -0.6416 -0.5619  0.1752
   59CHL1   C22 6828   3.017   1.090   8.940 -0.4971  0.1230 -0.0403
   59CHL1  H22A 6829   3.095   1.169   8.935 -0.4299 -0.0291 -2.8405
   59CHL1  H22B 6830   3.078   0.998   8.938  1.4692  1.3707 -2.0928
   59CHL1   C23 6831   2.925   1.104   8.818 -0.6057  0.2431  0.5372
   59CHL1  H23A 6832   2.866   1.010   8.812  1.6585 -1.2130 -0.1158
   59CHL1  H23B 6833   2.851   1.187   8.825  0.0967  1.0158 -0.8173
   59CHL1   C24 6834   3.006   1.117   8.688  0.4091 -0.0278  0.1102
   59CHL1  H24A 6835   3.074   1.204   8.702 -0.4005  0.4731  1.0577
   59CHL1  H24B 6836   3.070   1.027   8.674  0.1164  0.1227 -2.7147
   59CHL1   C25 6837   2.935   1.148   8.553  0.0915 -0.6110  0.7481
   59CHL1   H25 6838   2.862   1.229   8.575 -0.1056 -0.3480 -0.7617
   59CHL1   C26 6839   3.038   1.194   8.452  0.3137 -0.4807 -0.6441
   59CHL1  H26A 6840   2.979   1.213   8.360 -2.2666 -1.3644  0.7214
   59CHL1  H26B 6841   3.104   1.278   8.481 -0.4902 -0.1331  0.2282
   59CHL1  H26C 6842   3.100   1.104   8.431  1.3697  0.4086 -1.4355
   59CHL1   C27 6843   2.850   1.031   8.509 -0.3997 -0.0756 -0.2345
   59CHL1  H27A 6844   2.912   0.941   8.492 -0.5490 -0.0728 -0.8068
   59CHL1  H27B 6845   2.783   1.007   8.595  0.1435  1.1097  0.5458
   59CHL1  H27C 6846   2.786   1.049   8.420 -0.2468  0.5661 -0.2168
   60CHL1    C3 6847   4.323   4.004  10.300  0.3609 -0.6535 -0.0884
   60CHL1    H3 6848   4.417   4.023  10.244 -0.1056 -2.4916 -1.5940
   60CHL1    O3 6849   4.349   4.073  10.418  0.1236  0.2528 -0.3319
   60CHL1   H3' 6850   4.349   4.167  10.398 -0.6532  0.7202  1.6691
   60CHL1    C4 6851   4.217   4.078  10.213  0.2504 -0.4545 -0.0484
   60CHL1   H4A 6852   4.131   4.096  10.282  0.9786 -0.4713  0.8797
   60CHL1   H4B 6853   4.268   4.174  10.192 -1.1641  0.4672  0.5726
   60CHL1    C5 6854   4.157   4.014  10.080 -0.1861  0.0477 -0.0618
   60CHL1    C6 6855   4.150   4.083   9.966  0.0631  0.6237  0.1200
   60CHL1    H6 6856   4.184   4.187   9.963  0.7535  0.3951 -2.3370
   60CHL1    C7 6857   4.076   4.033   9.844  0.2340 -0.4975 -0.6988
   60CHL1   H7A 6858   3.999   4.107   9.812  0.5292 -1.0302 -2.7547
   60CHL1   H7B 6859   4.154   4.028   9.766 -0.2530  2.2303 -1.4787
   60CHL1    C8 6860   4.004   3.896   9.872  0.6839  0.7922  0.7674
   60CHL1    H8 6861   3.905   3.910   9.922 -0.7613 -2.2347 -0.9515
   60CHL1   C14 6862   3.972   3.824   9.743 -0.3386 -0.9314  0.5380
   60CHL1   H14 6863   4.073   3.812   9.698  0.7169  3.4993  1.1857
   60CHL1   C15 6864   3.894   3.899   9.631  0.4357  0.3051  0.1524
   60CHL1  H15A 6865   3.800   3.942   9.673  0.3345  0.5901 -0.3607
   60CHL1  H15B 6866   3.951   3.980   9.580  0.1680 -0.4356 -1.3929
   60CHL1   C16 6867   3.857   3.790   9.532  0.3053 -0.0521  0.1225
   60CHL1  H16A 6868   3.751   3.813   9.510  0.8614  1.8893 -0.7800
   60CHL1  H16B 6869   3.926   3.789   9.444 -0.4430 -2.2056 -0.5099
   60CHL1   C17 6870   3.893   3.650   9.604  0.6514 -0.3454 -0.3062
   60CHL1   H17 6871   3.997   3.618   9.581 -0.2867 -2.8464 -1.4161
   60CHL1   C13 6872   3.903   3.689   9.755 -0.1340  0.6442  0.1055
   60CHL1   C18 6873   3.752   3.699   9.812  0.2203  0.1855 -0.0865
   60CHL1  H18A 6874   3.762   3.741   9.914  3.6007 -0.8207  0.1136
   60CHL1  H18B 6875   3.684   3.763   9.752 -2.1068  0.0238  2.2064
   60CHL1  H18C 6876   3.707   3.600   9.831 -0.4650  0.7027  1.1178
   60CHL1   C12 6877   4.003   3.593   9.837  0.1596 -0.6449 -0.2397
   60CHL1  H12A 6878   3.958   3.492   9.842  1.6074 -1.2514  1.5730
   60CHL1  H12B 6879   4.096   3.589   9.776  0.1756 -0.2150 -0.2482
   60CHL1   C11 6880   4.031   3.659   9.969  0.0988  0.9526  0.7487
   60CHL1  H11A 6881   3.946   3.649  10.040  0.4583 -1.8197  0.9199
   60CHL1  H11B 6882   4.109   3.604  10.026  1.3521  3.5695  1.7491
   60CHL1    C9 6883   4.088   3.809   9.954 -0.1194  0.8265 -0.6913
   60CHL1    H9 6884   4.191   3.795   9.914  0.0392 -0.6591  0.1919
   60CHL1   C10 6885   4.117   3.866  10.098 -0.0426 -0.4339 -0.2967
   60CHL1   C19 6886   3.987   3.861  10.177  0.1534  0.4159 -0.2857
   60CHL1  H19A 6887   3.897   3.908  10.131  0.5015  1.6166  0.2292
   60CHL1  H19B 6888   3.966   3.756  10.206 -1.5163  1.0019  0.7664
   60CHL1  H19C 6889   3.998   3.917  10.273 -0.8493 -0.6015  0.4512
   60CHL1    C1 6890   4.249   3.801  10.171  0.3958  0.0327 -0.1733
   60CHL1   H1A 6891   4.241   3.690  10.176  2.1298 -0.0577  1.2870
   60CHL1   H1B 6892   4.340   3.821  10.112 -0.3009  0.7533 -1.0296
   60CHL1    C2 6893   4.283   3.858  10.311  0.0581  0.0598 -0.1231
   60CHL1   H2A 6894   4.369   3.799  10.351  0.9270 -0.0365 -2.0171
   60CHL1   H2B 6895   4.208   3.843  10.391  0.0083  0.1691 -0.1484
   60CHL1   C20 6896   3.801   3.535   9.555  0.0204  0.2973 -0.1120
   60CHL1   H20 6897   3.695   3.551   9.587 -0.6313 -2.6612 -0.5026
   60CHL1   C21 6898   3.841   3.389   9.600  0.7365  0.1118  0.2871
   60CHL1  H21A 6899   3.776   3.316   9.548  0.5431  0.4597  0.0384
   60CHL1  H21B 6900   3.819   3.375   9.708  0.3166 -0.3776  0.1363
   60CHL1  H21C 6901   3.948   3.373   9.574  0.1514  0.6706 -2.9011
   60CHL1   C22 6902   3.781   3.532   9.397 -0.4829  0.7241 -0.3822
   60CHL1  H22A 6903   3.705   3.452   9.380  0.7732 -0.7924  0.7819
   60CHL1  H22B 6904   3.742   3.624   9.348 -0.2022  1.5651  0.9313
   60CHL1   C23 6905   3.913   3.498   9.324  0.3758  0.1141 -0.2273
   60CHL1  H23A 6906   3.988   3.579   9.337 -0.5765  0.9404  0.2113
   60CHL1  H23B 6907   3.955   3.402   9.363 -1.1081 -0.6264 -0.3700
   60CHL1   C24 6908   3.887   3.466   9.171 -0.1499  0.1883 -0.8908
   60CHL1  H24A 6909   3.978   3.407   9.148 -1.2011 -1.9068  0.1056
   60CHL1  H24B 6910   3.803   3.393   9.166 -0.3135  0.4399 -2.0551
   60CHL1   C25 6911   3.856   3.586   9.072  0.0299 -0.5929  0.1621
   60CHL1   H25 6912   3.759   3.628   9.105  1.7183  2.9535  1.1088
   60CHL1   C26 6913   3.945   3.714   9.079 -0.5865  0.6739 -0.7838
   60CHL1  H26A 6914   3.929   3.766   9.177  1.8864  0.7003 -0.3327
   60CHL1  H26B 6915   4.055   3.704   9.069  0.0181  2.7116  2.2287
   60CHL1  H26C 6916   3.902   3.780   9.000 -0.2959  0.2163 -1.3247
   60CHL1   C27 6917   3.851   3.524   8.934  0.2624 -0.2122 -0.1276
   60CHL1  H27A 6918   3.949   3.475   8.912  0.8291  1.6068 -2.0149
   60CHL1  H27B 6919   3.764   3.455   8.933 -0.3061  0.4604  1.2865
   60CHL1  H27C 6920   3.847   3.596   8.849  0.4728 -1.3270 -1.1152
   61CHL1    C3 6921   1.714   2.681  10.099 -0.6092 -0.1096 -0.1213
   61CHL1    H3 6922   1.628   2.751  10.100  0.9836  1.9877 -1.8675
   61CHL1    O3 6923   1.758   2.662  10.233 -0.0312  0.5801 -0.7607
   61CHL1   H3' 6924   1.837   2.607  10.228 -0.4969 -0.0914 -0.7893
   61CHL1    C4 6925   1.673   2.539  10.049  0.4705  0.7554 -0.7434
   61CHL1   H4A 6926   1.766   2.478  10.059 -1.6106 -2.4885  0.5651
   61CHL1   H4B 6927   1.590   2.500  10.112 -0.2743  1.4836 -1.2561
   61CHL1    C5 6928   1.634   2.551   9.902 -0.4301 -0.2183 -0.0084
   61CHL1    C6 6929   1.514   2.515   9.863  0.0439  0.2506 -0.3189
   61CHL1    H6 6930   1.449   2.468   9.939  0.9518  1.9182  1.5851
   61CHL1    C7 6931   1.452   2.515   9.729  0.1189 -0.3710 -0.4507
   61CHL1   H7A 6932   1.416   2.415   9.696  0.4721 -0.7740  0.3393
   61CHL1   H7B 6933   1.369   2.588   9.725  0.4536 -0.0185 -1.2809
   61CHL1    C8 6934   1.562   2.553   9.626 -0.7891  0.2434 -1.1334
   61CHL1    H8 6935   1.627   2.463   9.613 -0.6991 -0.0327  0.9477
   61CHL1   C14 6936   1.502   2.599   9.491 -0.2816 -0.2791  0.8458
   61CHL1   H14 6937   1.434   2.686   9.505  0.2052  0.1047  0.8764
   61CHL1   C15 6938   1.404   2.496   9.434 -0.0925  0.8825 -0.4564
   61CHL1  H15A 6939   1.451   2.397   9.452 -0.2894  0.9588  0.5131
   61CHL1  H15B 6940   1.308   2.507   9.488 -0.0201 -0.7833  0.0570
   61CHL1   C16 6941   1.396   2.527   9.286 -0.1651  0.1249  0.1659
   61CHL1  H16A 6942   1.434   2.446   9.220  1.6304 -0.4732  1.8272
   61CHL1  H16B 6943   1.298   2.571   9.258 -0.6133  0.6034  2.3714
   61CHL1   C17 6944   1.504   2.642   9.265  0.0824 -0.4203  0.0061
   61CHL1   H17 6945   1.456   2.742   9.277  5.2769  2.7163 -1.9619
   61CHL1   C13 6946   1.601   2.625   9.383 -0.3140 -0.7682 -0.7512
   61CHL1   C18 6947   1.695   2.503   9.352 -0.5257  0.5500 -0.4621
   61CHL1  H18A 6948   1.646   2.404   9.338  1.2919 -0.1448 -2.3328
   61CHL1  H18B 6949   1.752   2.530   9.261  0.2837  3.4295  0.7636
   61CHL1  H18C 6950   1.774   2.494   9.430 -0.6930  1.6466 -0.1474
   61CHL1   C12 6951   1.671   2.751   9.438 -0.3763  0.8729 -0.3726
   61CHL1  H12A 6952   1.744   2.796   9.367  1.3899 -0.7402  0.3273
   61CHL1  H12B 6953   1.587   2.821   9.454 -0.9326 -0.2253  1.8275
   61CHL1   C11 6954   1.746   2.729   9.571 -0.3866  0.0572  0.3092
   61CHL1  H11A 6955   1.838   2.672   9.547 -1.1507 -2.4581  2.7668
   61CHL1  H11B 6956   1.786   2.830   9.595  0.5178 -0.3944  0.7574
   61CHL1    C9 6957   1.658   2.662   9.681 -0.5137  0.7710  0.3713
   61CHL1    H9 6958   1.588   2.742   9.711 -0.2106  2.1898 -2.3871
   61CHL1   C10 6959   1.735   2.622   9.814  0.3501 -0.3212 -0.3917
   61CHL1   C19 6960   1.840   2.512   9.786 -0.8666  0.1392  0.3861
   61CHL1  H19A 6961   1.922   2.548   9.721 -1.1879  1.6430  0.7895
   61CHL1  H19B 6962   1.883   2.479   9.884 -2.2814 -1.6125  0.4849
   61CHL1  H19C 6963   1.794   2.422   9.739 -1.0435  0.7468 -0.6160
   61CHL1    C1 6964   1.802   2.756   9.870  0.3592  0.1340 -0.0717
   61CHL1   H1A 6965   1.890   2.777   9.806 -1.0159 -0.3732 -2.2444
   61CHL1   H1B 6966   1.731   2.842   9.866 -1.1418 -0.9312  1.6588
   61CHL1    C2 6967   1.833   2.734  10.019 -0.5148 -0.3857  0.5652
   61CHL1   H2A 6968   1.880   2.827  10.056 -1.1724  0.2124 -0.0890
   61CHL1   H2B 6969   1.912   2.655  10.025 -1.3130 -1.1490  1.2173
   61CHL1   C20 6970   1.555   2.646   9.119 -0.5071 -0.8512 -0.3313
   61CHL1   H20 6971   1.609   2.549   9.109 -0.0535 -0.5692 -0.5928
   61CHL1   C21 6972   1.658   2.760   9.095  0.1095 -0.2868 -0.0719
   61CHL1  H21A 6973   1.745   2.748   9.163 -1.0389 -3.0873  1.0518
   61CHL1  H21B 6974   1.619   2.864   9.099  0.3078 -0.2576  1.7151
   61CHL1  H21C 6975   1.698   2.751   8.992  1.1788 -1.4098  0.4087
   61CHL1   C22 6976   1.440   2.663   9.011  0.0710  0.0752  0.0790
   61CHL1  H22A 6977   1.365   2.581   9.017  0.6633 -0.4988 -0.2531
   61CHL1  H22B 6978   1.398   2.763   9.031 -0.8318  0.5876 -3.6173
   61CHL1   C23 6979   1.472   2.659   8.861  0.3558 -1.4193 -0.4585
   61CHL1  H23A 6980   1.380   2.671   8.800  0.0477  0.5309  0.3250
   61CHL1  H23B 6981   1.529   2.753   8.850  1.9246 -2.3852 -0.8857
   61CHL1   C24 6982   1.562   2.536   8.826  0.1350 -0.0632 -0.3063
   61CHL1  H24A 6983   1.657   2.535   8.884 -0.5221  0.4810  0.8246
   61CHL1  H24B 6984   1.509   2.440   8.846  0.0448 -0.8238 -3.6648
   61CHL1   C25 6985   1.585   2.507   8.678  0.4239 -1.0958  0.3245
   61CHL1   H25 6986   1.491   2.529   8.623  1.6546  1.7816 -0.8717
   61CHL1   C26 6987   1.689   2.604   8.623 -0.3312 -0.4200  0.5922
   61CHL1  H26A 6988   1.663   2.708   8.650 -1.7705  0.0014 -2.1439
   61CHL1  H26B 6989   1.782   2.589   8.683  0.3792  0.3364 -0.2927
   61CHL1  H26C 6990   1.712   2.587   8.516 -1.1439 -1.9096  0.6229
   61CHL1   C27 6991   1.627   2.362   8.648  1.1439  0.3203  0.3727
   61CHL1  H27A 6992   1.736   2.349   8.661  1.3785 -0.3687 -1.9116
   61CHL1  H27B 6993   1.564   2.288   8.701 -0.5807  1.4896  0.0438
   61CHL1  H27C 6994   1.620   2.342   8.539 -0.1257 -1.5673  0.7571
   62CHL1    C3 6995   6.224   6.704   9.854  0.6267 -0.1653 -0.3905
   62CHL1    H3 6996   6.308   6.632   9.862  0.1175 -0.6559  0.7980
   62CHL1    O3 6997   6.185   6.744   9.985 -0.5196 -0.6229  0.0026
   62CHL1   H3' 6998   6.267   6.741  10.034 -0.2874  0.6493 -0.2652
   62CHL1    C4 6999   6.279   6.830   9.781  0.0124 -0.2072 -0.1929
   62CHL1   H4A 7000   6.198   6.904   9.796 -0.5114 -0.9427  0.7541
   62CHL1   H4B 7001   6.361   6.868   9.846 -0.9005  0.2188  0.7389
   62CHL1    C5 7002   6.313   6.818   9.636 -0.2547  0.4665  0.6943
   62CHL1    C6 7003   6.438   6.854   9.588  0.0607  0.5071 -0.8070
   62CHL1    H6 7004   6.508   6.896   9.662  1.1718 -0.3666 -1.3357
   62CHL1    C7 7005   6.481   6.830   9.445 -0.1554  0.6750 -0.5233
   62CHL1   H7A 7006   6.552   6.909   9.411  2.9864 -1.3552  0.8821
   62CHL1   H7B 7007   6.540   6.737   9.433 -1.8157 -0.6279  0.8293
   62CHL1    C8 7008   6.361   6.806   9.347  0.6294  0.6395  0.8028
   62CHL1    H8 7009   6.311   6.904   9.327 -1.7445 -1.0083 -2.2381
   62CHL1   C14 7010   6.417   6.749   9.218  0.3302 -1.0920  1.3473
   62CHL1   H14 7011   6.460   6.654   9.256  2.1093 -0.7773  0.2426
   62CHL1   C15 7012   6.540   6.816   9.150  0.6082 -0.0412 -0.7010
   62CHL1  H15A 7013   6.522   6.926   9.158  1.2103 -0.0318  0.8491
   62CHL1  H15B 7014   6.629   6.792   9.212 -0.9516  2.4566  2.8391
   62CHL1   C16 7015   6.535   6.769   9.007 -0.1230  0.1835 -0.0904
   62CHL1  H16A 7016   6.510   6.858   8.945  0.6076  1.5381  1.4580
   62CHL1  H16B 7017   6.638   6.738   8.978  0.7038  1.5785  1.2175
   62CHL1   C17 7018   6.412   6.679   8.997 -0.1410 -0.3112  0.0777
   62CHL1   H17 7019   6.442   6.580   9.037  1.0220 -0.8986 -2.0837
   62CHL1   C13 7020   6.314   6.717   9.108  0.1366  0.6082  0.5575
   62CHL1   C18 7021   6.235   6.846   9.068  0.1496 -1.5040  0.3431
   62CHL1  H18A 7022   6.174   6.883   9.153  0.5740 -1.0020  0.4266
   62CHL1  H18B 7023   6.304   6.931   9.048 -1.1241 -0.4163  0.4609
   62CHL1  H18C 7024   6.180   6.824   8.973  0.6073  0.6610 -0.4771
   62CHL1   C12 7025   6.218   6.608   9.172  0.2804 -0.0752  0.1945
   62CHL1  H12A 7026   6.136   6.583   9.101  1.6255 -0.8295 -1.1662
   62CHL1  H12B 7027   6.268   6.511   9.190 -0.8156 -0.8554 -0.8476
   62CHL1   C11 7028   6.150   6.660   9.307  0.1014 -0.4525  0.3110
   62CHL1  H11A 7029   6.080   6.743   9.285  1.1443 -0.4295 -3.5640
   62CHL1  H11B 7030   6.102   6.570   9.352 -0.1913 -0.7613 -0.5845
   62CHL1    C9 7031   6.258   6.711   9.413  0.1598 -0.0317  0.9554
   62CHL1    H9 7032   6.312   6.614   9.425 -0.3616 -0.4234  0.2491
   62CHL1   C10 7033   6.204   6.749   9.551  0.3317 -0.7549 -0.0074
   62CHL1   C19 7034   6.086   6.850   9.532  0.5583  0.0607 -0.4087
   62CHL1  H19A 7035   6.010   6.821   9.457 -1.9586 -0.3558  2.1139
   62CHL1  H19B 7036   6.036   6.870   9.630  2.2278 -2.9224  1.1966
   62CHL1  H19C 7037   6.130   6.945   9.495  0.4649  0.9688  1.6463
   62CHL1    C1 7038   6.161   6.623   9.623  0.0677  0.5586 -0.1420
   62CHL1   H1A 7039   6.083   6.571   9.563 -1.6122  2.2102  0.5154
   62CHL1   H1B 7040   6.250   6.556   9.631 -2.3433 -2.8843  0.3598
   62CHL1    C2 7041   6.114   6.641   9.773 -0.0077 -0.1999 -0.1402
   62CHL1   H2A 7042   6.086   6.544   9.819  0.1380 -0.9453 -1.5764
   62CHL1   H2B 7043   6.025   6.707   9.767 -0.6409 -1.1292 -1.7451
   62CHL1   C20 7044   6.355   6.653   8.853  0.1714 -0.0040  0.3257
   62CHL1   H20 7045   6.253   6.613   8.870 -0.2894  0.5144 -1.0481
   62CHL1   C21 7046   6.438   6.550   8.792  0.3839 -0.5146 -0.0831
   62CHL1  H21A 7047   6.403   6.522   8.690 -2.8117 -0.2790  0.8297
   62CHL1  H21B 7048   6.431   6.455   8.849 -2.4748 -0.3795 -0.0747
   62CHL1  H21C 7049   6.544   6.576   8.772  0.4243 -1.5465 -1.3634
   62CHL1   C22 7050   6.351   6.779   8.760  0.1473 -0.2253 -0.5692
   62CHL1  H22A 7051   6.312   6.864   8.821  1.8976  0.7086 -0.6897
   62CHL1  H22B 7052   6.453   6.810   8.727 -0.2334  1.0289 -0.6525
   62CHL1   C23 7053   6.259   6.757   8.632  0.7319 -0.9695 -0.1578
   62CHL1  H23A 7054   6.308   6.682   8.566  1.8326 -0.0454 -0.4268
   62CHL1  H23B 7055   6.164   6.714   8.669  0.0575 -0.4997 -1.3012
   62CHL1   C24 7056   6.244   6.893   8.559  0.9047 -0.3433 -0.2298
   62CHL1  H24A 7057   6.214   6.967   8.636 -0.1220  1.8312 -2.5989
   62CHL1  H24B 7058   6.342   6.926   8.519 -0.2783  0.7911 -2.3515
   62CHL1   C25 7059   6.137   6.912   8.452  0.1227 -0.3415 -0.6167
   62CHL1   H25 7060   6.145   7.018   8.419 -1.2392  0.4100  1.2801
   62CHL1   C26 7061   6.161   6.824   8.328 -0.2175  0.4957 -0.1218
   62CHL1  H26A 7062   6.160   6.718   8.360 -0.8411  0.2079 -1.0653
   62CHL1  H26B 7063   6.073   6.835   8.261 -0.2581  0.7150 -0.0339
   62CHL1  H26C 7064   6.259   6.854   8.286  0.7892 -0.4710  1.4503
   62CHL1   C27 7065   5.992   6.893   8.504 -0.0784 -0.1856 -0.8075
   62CHL1  H27A 7066   5.970   6.962   8.588  1.4050  0.8467 -1.2435
   62CHL1  H27B 7067   5.925   6.918   8.419 -1.4032 -0.2171  0.1961
   62CHL1  H27C 7068   5.972   6.788   8.537  1.6252 -0.8561 -1.7979
   63CHL1    C3 7069   2.471   3.719  10.275  0.0580  0.1472  0.2811
   63CHL1    H3 7070   2.419   3.621  10.284 -0.0150  0.0679 -0.8196
   63CHL1    O3 7071   2.495   3.781  10.396 -0.4419 -0.0442 -0.0654
   63CHL1   H3' 7072   2.478   3.874  10.379  1.8035  0.2851 -0.9241
   63CHL1    C4 7073   2.601   3.688  10.193 -0.1620 -0.0726  0.3070
   63CHL1   H4A 7074   2.662   3.780  10.178  0.1184 -0.4885 -1.2112
   63CHL1   H4B 7075   2.666   3.617  10.249  0.6434 -0.2803 -0.8537
   63CHL1    C5 7076   2.577   3.643  10.057  0.3792  0.1916  1.0875
   63CHL1    C6 7077   2.623   3.520  10.012  0.0006 -1.0086 -1.1177
   63CHL1    H6 7078   2.689   3.465  10.080 -0.8890 -0.5956  0.1221
   63CHL1    C7 7079   2.608   3.473   9.870  0.1679 -0.0300  0.3188
   63CHL1   H7A 7080   2.710   3.447   9.833  0.5566  1.1877  0.5146
   63CHL1   H7B 7081   2.545   3.381   9.863 -1.6321  1.0728  1.4128
   63CHL1    C8 7082   2.552   3.580   9.775 -0.0061 -0.3193  0.3747
   63CHL1    H8 7083   2.632   3.656   9.766  0.4920 -0.7447  1.1185
   63CHL1   C14 7084   2.502   3.521   9.639 -0.1131  0.3390 -0.2180
   63CHL1   H14 7085   2.432   3.438   9.663  0.0509  0.4484  0.6555
   63CHL1   C15 7086   2.613   3.455   9.560 -0.3888 -0.4862  0.1907
   63CHL1  H15A 7087   2.704   3.518   9.559 -1.1655  0.6627 -0.7749
   63CHL1  H15B 7088   2.626   3.357   9.612 -1.8716 -1.9609 -2.0370
   63CHL1   C16 7089   2.550   3.441   9.419  0.0703 -0.0451  0.1635
   63CHL1  H16A 7090   2.624   3.472   9.343 -1.6032  2.2266 -0.6279
   63CHL1  H16B 7091   2.515   3.337   9.401 -0.3554  0.0379  0.5059
   63CHL1   C17 7092   2.429   3.537   9.421 -0.0619 -0.3123 -0.1198
   63CHL1   H17 7093   2.331   3.486   9.437  0.1053 -0.6407 -0.1304
   63CHL1   C13 7094   2.434   3.622   9.552 -0.0588  0.1914  0.2933
   63CHL1   C18 7095   2.533   3.745   9.522 -0.2127  0.8044  0.3093
   63CHL1  H18A 7096   2.593   3.774   9.611 -0.5202  0.1460  0.7399
   63CHL1  H18B 7097   2.606   3.714   9.444 -1.3104 -1.0633 -0.0156
   63CHL1  H18C 7098   2.477   3.832   9.482 -0.8845 -0.2430 -1.0967
   63CHL1   C12 7099   2.306   3.663   9.620  0.1839  0.1245  0.0550
   63CHL1  H12A 7100   2.244   3.730   9.557 -0.1965 -1.0338 -0.8495
   63CHL1  H12B 7101   2.242   3.582   9.662 -1.8801  3.4349  3.9871
   63CHL1   C11 7102   2.345   3.730   9.749 -0.3923  0.0079 -0.3191
   63CHL1  H11A 7103   2.391   3.827   9.721 -0.8754  0.4758  0.4530
   63CHL1  H11B 7104   2.255   3.759   9.808  0.7327  0.2044  1.3506
   63CHL1    C9 7105   2.435   3.653   9.847  0.0203 -0.4530  0.3945
   63CHL1    H9 7106   2.373   3.567   9.880  0.2910 -0.4918  0.8207
   63CHL1   C10 7107   2.474   3.729   9.972  0.1783 -0.9836 -0.6580
   63CHL1   C19 7108   2.539   3.868   9.932  1.2000 -0.6652 -0.4454
   63CHL1  H19A 7109   2.591   3.907  10.022 -1.3451 -0.5499  1.0554
   63CHL1  H19B 7110   2.605   3.850   9.844 -1.4012  1.4089 -3.0240
   63CHL1  H19C 7111   2.463   3.942   9.899 -1.9280 -4.0483 -1.4523
   63CHL1    C1 7112   2.341   3.752  10.060  0.1574 -0.9814 -0.1668
   63CHL1   H1A 7113   2.281   3.836  10.018  1.5869 -0.5661 -1.4495
   63CHL1   H1B 7114   2.284   3.660  10.087  1.9777 -1.1299  3.9098
   63CHL1    C2 7115   2.386   3.816  10.199 -0.2109  0.3579 -0.3585
   63CHL1   H2A 7116   2.291   3.846  10.248  0.8401  0.3096  1.8175
   63CHL1   H2B 7117   2.426   3.918  10.180  0.3112 -0.2976 -3.3704
   63CHL1   C20 7118   2.421   3.614   9.281  0.8421  1.4855  0.0388
   63CHL1   H20 7119   2.510   3.681   9.281  1.1525  1.1998 -3.0819
   63CHL1   C21 7120   2.276   3.673   9.253 -0.0416 -0.0924 -0.4121
   63CHL1  H21A 7121   2.261   3.756   9.326  1.3144 -1.7433  1.8567
   63CHL1  H21B 7122   2.201   3.592   9.257  2.0208 -2.0577  2.4644
   63CHL1  H21C 7123   2.283   3.715   9.150  1.6440  0.8712  0.0531
   63CHL1   C22 7124   2.433   3.513   9.155 -0.4459 -0.8995  0.3074
   63CHL1  H22A 7125   2.516   3.441   9.170 -1.2727 -2.3900 -1.8502
   63CHL1  H22B 7126   2.344   3.447   9.165 -1.1565 -0.0059  0.0379
   63CHL1   C23 7127   2.457   3.581   9.016  1.0547  1.1318  0.2812
   63CHL1  H23A 7128   2.467   3.502   8.939 -1.2144  1.5036 -0.4987
   63CHL1  H23B 7129   2.366   3.640   8.990  0.3822  0.3162  0.7375
   63CHL1   C24 7130   2.575   3.679   9.018  0.2889  0.2202 -0.2932
   63CHL1  H24A 7131   2.571   3.751   9.103 -2.5547  2.3798 -2.0672
   63CHL1  H24B 7132   2.662   3.617   9.048  0.7477  1.0718  0.1744
   63CHL1   C25 7133   2.609   3.754   8.891  0.2475  0.4894 -0.1029
   63CHL1   H25 7134   2.513   3.803   8.866 -0.9184 -1.7011 -0.2222
   63CHL1   C26 7135   2.715   3.857   8.924  0.0199 -0.3302  0.4854
   63CHL1  H26A 7136   2.738   3.922   8.837 -1.1182 -3.2033 -2.1222
   63CHL1  H26B 7137   2.675   3.924   9.003 -1.5184 -0.7297  0.0719
   63CHL1  H26C 7138   2.808   3.811   8.965  0.1928 -0.6879 -0.2926
   63CHL1   C27 7139   2.645   3.653   8.779  0.5546 -0.2441  0.0067
   63CHL1  H27A 7140   2.744   3.609   8.803  1.3007  0.3461 -1.8259
   63CHL1  H27B 7141   2.562   3.581   8.767 -0.9974  1.6151 -1.0274
   63CHL1  H27C 7142   2.658   3.707   8.683  2.0666  2.0119  1.3850
   64CHL1    C3 7143   5.799   0.763   9.910 -0.8833  0.2817  0.0702
   64CHL1    H3 7144   5.797   0.873   9.921 -1.6925  0.0865  2.3661
   64CHL1    O3 7145   5.771   0.707  10.040 -0.3297  0.0640 -0.2034
   64CHL1   H3' 7146   5.839   0.735  10.101 -0.6520 -0.2959  0.3328
   64CHL1    C4 7147   5.690   0.718   9.813  0.4909 -0.1630 -0.2958
   64CHL1   H4A 7148   5.678   0.610   9.835  0.5606  0.2843  2.1735
   64CHL1   H4B 7149   5.592   0.764   9.838  0.5052 -0.1717 -0.2250
   64CHL1    C5 7150   5.732   0.741   9.674  0.0063  0.0018  1.0337
   64CHL1    C6 7151   5.653   0.814   9.595  0.3242 -0.0355 -0.0375
   64CHL1    H6 7152   5.561   0.862   9.632  0.7298  0.9603 -0.3000
   64CHL1    C7 7153   5.685   0.832   9.448 -0.3599 -0.1210  0.2440
   64CHL1   H7A 7154   5.596   0.812   9.384  0.4254 -2.9927 -0.1183
   64CHL1   H7B 7155   5.720   0.936   9.430  1.5601 -1.0122 -1.5982
   64CHL1    C8 7156   5.794   0.725   9.399 -1.0136 -0.4619  0.2734
   64CHL1    H8 7157   5.759   0.620   9.409  1.8143 -1.5718 -0.5982
   64CHL1   C14 7158   5.830   0.755   9.251 -0.9511  0.9491 -0.1017
   64CHL1   H14 7159   5.846   0.864   9.257 -0.1677  0.9843 -2.3075
   64CHL1   C15 7160   5.719   0.742   9.156 -0.3416  0.5810 -0.7353
   64CHL1  H15A 7161   5.663   0.646   9.160 -2.8432  2.0091  0.5242
   64CHL1  H15B 7162   5.639   0.816   9.176 -2.0534 -1.2917 -0.3214
   64CHL1   C16 7163   5.795   0.744   9.019 -0.3997 -0.5646 -0.3721
   64CHL1  H16A 7164   5.793   0.648   8.963  1.9033 -0.2306 -1.1408
   64CHL1  H16B 7165   5.750   0.828   8.961  0.7646  0.1100 -0.3420
   64CHL1   C17 7166   5.955   0.752   9.053  0.5253 -0.1674 -0.1094
   64CHL1   H17 7167   5.973   0.862   9.055 -2.6947  0.4635  1.7024
   64CHL1   C13 7168   5.954   0.690   9.202 -0.2358  0.7106  0.4514
   64CHL1   C18 7169   5.927   0.537   9.188 -0.2531 -0.5139 -0.7058
   64CHL1  H18A 7170   5.830   0.509   9.142 -0.0969  0.4775 -1.6901
   64CHL1  H18B 7171   6.007   0.485   9.131  0.3177  0.4962 -0.8591
   64CHL1  H18C 7172   5.934   0.489   9.288  1.8089 -0.3201 -0.7070
   64CHL1   C12 7173   6.073   0.726   9.296  0.0908 -0.3739  0.5612
   64CHL1  H12A 7174   6.166   0.677   9.260  1.1802  2.1927 -0.2660
   64CHL1  H12B 7175   6.100   0.833   9.285 -0.3991  0.1098  3.2392
   64CHL1   C11 7176   6.038   0.681   9.439 -0.5450  0.2457  0.3485
   64CHL1  H11A 7177   6.029   0.570   9.441  0.5036  0.1576  1.6035
   64CHL1  H11B 7178   6.127   0.701   9.501  1.2633 -1.0424 -1.6786
   64CHL1    C9 7179   5.911   0.736   9.491 -0.2484 -0.7154 -0.1769
   64CHL1    H9 7180   5.930   0.845   9.500 -1.4289 -0.4083 -1.2399
   64CHL1   C10 7181   5.871   0.684   9.632  0.2127 -0.4491  0.2764
   64CHL1   C19 7182   5.873   0.532   9.633 -0.2426 -0.4523 -0.3273
   64CHL1  H19A 7183   5.976   0.497   9.613 -0.6329  0.1966 -4.1727
   64CHL1  H19B 7184   5.834   0.495   9.731  0.4512 -0.7969 -0.1757
   64CHL1  H19C 7185   5.814   0.482   9.553  1.2862 -3.5381  0.3137
   64CHL1    C1 7186   5.981   0.740   9.735 -0.0939  0.3838  0.6138
   64CHL1   H1A 7187   6.084   0.702   9.715 -0.4489 -0.0148 -0.5789
   64CHL1   H1B 7188   5.981   0.851   9.732  1.4758  0.5007  2.6906
   64CHL1    C2 7189   5.942   0.716   9.879 -1.0603 -0.5297 -0.3844
   64CHL1   H2A 7190   6.017   0.762   9.946 -0.3883  1.1790 -2.2243
   64CHL1   H2B 7191   5.944   0.607   9.900 -1.0739 -0.7145 -1.3174
   64CHL1   C20 7192   6.048   0.694   8.945 -0.7259 -0.5939  0.5966
   64CHL1   H20 7193   6.058   0.583   8.951  0.7754 -0.6713 -1.9736
   64CHL1   C21 7194   6.180   0.775   8.966 -0.0230 -0.3467  0.6244
   64CHL1  H21A 7195   6.220   0.753   9.067  0.9515  1.4326  0.6650
   64CHL1  H21B 7196   6.169   0.884   8.952  0.5276 -0.3598  0.0788
   64CHL1  H21C 7197   6.251   0.732   8.892 -1.2745  0.3256 -1.0195
   64CHL1   C22 7198   6.010   0.731   8.800  0.7757 -0.6268  0.5437
   64CHL1  H22A 7199   5.906   0.693   8.793 -0.3016  1.5933  2.7446
   64CHL1  H22B 7200   6.028   0.840   8.790 -2.8909  0.0110 -0.3465
   64CHL1   C23 7201   6.091   0.665   8.689  0.1095 -0.0160  0.3698
   64CHL1  H23A 7202   6.170   0.725   8.639 -2.6937  1.7315 -2.3216
   64CHL1  H23B 7203   6.147   0.577   8.728  1.7854  1.1677  0.7163
   64CHL1   C24 7204   6.000   0.632   8.566 -0.1777  0.2546  0.1317
   64CHL1  H24A 7205   5.929   0.550   8.589  0.7452 -1.9628 -4.0139
   64CHL1  H24B 7206   5.942   0.718   8.526  1.4214  0.0885 -2.8252
   64CHL1   C25 7207   6.080   0.593   8.441  0.0224 -1.0027  0.9626
   64CHL1   H25 7208   6.143   0.680   8.414 -1.2536 -0.6161 -1.0118
   64CHL1   C26 7209   6.174   0.477   8.459 -0.2009 -0.3641  0.2328
   64CHL1  H26A 7210   6.211   0.442   8.360  1.2904 -0.5078  0.8114
   64CHL1  H26B 7211   6.259   0.507   8.523 -0.1749  0.3437 -0.1235
   64CHL1  H26C 7212   6.120   0.392   8.507 -1.2416 -1.1504 -2.1566
   64CHL1   C27 7213   5.978   0.564   8.325 -0.0061 -0.0488 -0.1854
   64CHL1  H27A 7214   6.041   0.552   8.234 -0.6731  0.8786 -0.7847
   64CHL1  H27B 7215   5.901   0.488   8.350  0.4302 -0.0033  1.4038
   64CHL1  H27C 7216   5.915   0.652   8.299  0.4144  0.8070  1.5266
   65CHL1    C3 7217   4.682   5.114   9.973 -0.0773 -0.1648  1.2264
   65CHL1    H3 7218   4.573   5.129   9.960 -0.1544 -2.8098 -2.6292
   65CHL1    O3 7219   4.731   5.147  10.103  1.0090  0.1853 -0.2735
   65CHL1   H3' 7220   4.823   5.119  10.098  1.5053  1.5674  0.3719
   65CHL1    C4 7221   4.707   4.966   9.942  0.1428 -0.6747 -0.8160
   65CHL1   H4A 7222   4.816   4.953   9.956 -0.0057 -2.3494 -0.9697
   65CHL1   H4B 7223   4.647   4.904  10.012 -1.9282  1.8772 -0.1740
   65CHL1    C5 7224   4.692   4.929   9.798 -0.0881  0.2503  0.5623
   65CHL1    C6 7225   4.622   4.821   9.766 -0.2075  0.5989  0.4642
   65CHL1    H6 7226   4.565   4.764   9.842  0.7886  0.2660  0.9709
   65CHL1    C7 7227   4.581   4.780   9.622  0.0780 -0.4608  0.5132
   65CHL1   H7A 7228   4.591   4.670   9.613 -2.0395 -0.6446 -0.2906
   65CHL1   H7B 7229   4.475   4.805   9.597  0.5252 -1.3140 -2.7167
   65CHL1    C8 7230   4.667   4.849   9.515 -0.4167 -0.8995 -0.1330
   65CHL1    H8 7231   4.762   4.792   9.506 -0.9536 -2.1524  1.6621
   65CHL1   C14 7232   4.604   4.847   9.378 -0.5481  0.3098  0.1712
   65CHL1   H14 7233   4.512   4.909   9.371 -2.2691 -2.1038  0.4443
   65CHL1   C15 7234   4.554   4.706   9.335  0.0174 -0.4380  0.5213
   65CHL1  H15A 7235   4.634   4.633   9.361  0.3951 -0.0366  0.5067
   65CHL1  H15B 7236   4.457   4.670   9.374 -0.4245  1.0297  0.8544
   65CHL1   C16 7237   4.557   4.728   9.182  0.2567 -0.2347  0.3253
   65CHL1  H16A 7238   4.602   4.640   9.133 -0.7542 -1.6328  1.8097
   65CHL1  H16B 7239   4.450   4.746   9.156  0.4924  0.0599 -0.4644
   65CHL1   C17 7240   4.614   4.864   9.134 -0.2046  0.0809 -0.4061
   65CHL1   H17 7241   4.527   4.932   9.143 -1.7724 -2.0505  2.3794
   65CHL1   C13 7242   4.695   4.902   9.268 -0.2994  0.1632  0.1473
   65CHL1   C18 7243   4.832   4.832   9.265 -0.8522 -0.0663 -0.6873
   65CHL1  H18A 7244   4.826   4.721   9.258 -0.1942 -0.1112 -0.5990
   65CHL1  H18B 7245   4.886   4.880   9.180  0.0481  1.1344  0.5250
   65CHL1  H18C 7246   4.901   4.861   9.348  0.5869  1.8513 -2.4473
   65CHL1   C12 7247   4.695   5.055   9.297  0.5921 -1.0855  0.0299
   65CHL1  H12A 7248   4.766   5.112   9.232 -0.4429 -0.9949 -1.0448
   65CHL1  H12B 7249   4.592   5.095   9.286  0.3425 -0.4952  3.4204
   65CHL1   C11 7250   4.743   5.087   9.441 -0.2575  0.2028 -0.2127
   65CHL1  H11A 7251   4.853   5.077   9.434 -0.3908 -1.0115 -0.8881
   65CHL1  H11B 7252   4.718   5.195   9.453  0.5019  0.8666 -3.5018
   65CHL1    C9 7253   4.686   4.996   9.551  0.5092  0.3797  0.7577
   65CHL1    H9 7254   4.584   5.038   9.567  0.2257  0.1317 -0.3169
   65CHL1   C10 7255   4.754   5.021   9.686 -0.2103 -0.0331  1.1298
   65CHL1   C19 7256   4.903   5.000   9.671  0.5205  0.0014  0.1978
   65CHL1  H19A 7257   4.964   5.002   9.764  2.5965  0.8914 -1.1245
   65CHL1  H19B 7258   4.920   4.908   9.611 -1.8133 -0.3271 -0.0437
   65CHL1  H19C 7259   4.949   5.088   9.621 -0.4068  0.3032 -0.1406
   65CHL1    C1 7260   4.731   5.169   9.727 -0.1442  0.4095 -0.8132
   65CHL1   H1A 7261   4.804   5.234   9.675  2.1389  0.5948  2.3126
   65CHL1   H1B 7262   4.623   5.185   9.707  0.0273 -1.2827 -3.5657
   65CHL1    C2 7263   4.772   5.193   9.871  0.1074 -0.0899  0.0412
   65CHL1   H2A 7264   4.754   5.302   9.885 -0.0421  0.0071 -0.8087
   65CHL1   H2B 7265   4.880   5.174   9.887  0.0033  0.8272  2.0860
   65CHL1   C20 7266   4.689   4.854   9.003 -0.8334 -0.5608  0.2709
   65CHL1   H20 7267   4.775   4.783   9.001 -0.6725 -0.3598 -0.6560
   65CHL1   C21 7268   4.749   4.994   8.967  0.6262  0.1253 -0.3685
   65CHL1  H21A 7269   4.675   5.077   8.963  0.2095 -0.2749 -1.9644
   65CHL1  H21B 7270   4.806   4.986   8.872  1.1788  1.1628 -0.1291
   65CHL1  H21C 7271   4.821   5.028   9.044  0.1064  0.3504  0.0190
   65CHL1   C22 7272   4.595   4.805   8.895 -0.6214  0.2522  0.3983
   65CHL1  H22A 7273   4.534   4.717   8.925  0.1096 -0.5341 -0.3603
   65CHL1  H22B 7274   4.529   4.889   8.863  2.1690  2.1875 -0.7361
   65CHL1   C23 7275   4.666   4.771   8.763  0.1306  0.0917 -0.3081
   65CHL1  H23A 7276   4.706   4.866   8.720 -3.1574  1.5830 -0.3248
   65CHL1  H23B 7277   4.727   4.679   8.775  0.2096  0.0910 -0.7050
   65CHL1   C24 7278   4.558   4.728   8.656  0.0692 -0.1884 -1.1244
   65CHL1  H24A 7279   4.495   4.653   8.710  0.2631 -0.1038 -0.7742
   65CHL1  H24B 7280   4.496   4.819   8.643 -0.0774 -0.0810  0.1285
   65CHL1   C25 7281   4.607   4.676   8.527 -0.4827 -0.4505 -0.5855
   65CHL1   H25 7282   4.675   4.751   8.480 -0.5591 -0.3349 -0.5117
   65CHL1   C26 7283   4.671   4.534   8.541  0.2227 -0.5598  0.0532
   65CHL1  H26A 7284   4.636   4.470   8.624  1.6629  0.2176  1.3146
   65CHL1  H26B 7285   4.655   4.483   8.444  0.1515  0.7708 -0.6577
   65CHL1  H26C 7286   4.779   4.558   8.555  0.1461  1.5984 -2.3010
   65CHL1   C27 7287   4.494   4.676   8.422  0.0301 -0.0577  0.7641
   65CHL1  H27A 7288   4.541   4.650   8.325 -1.3118 -0.0402  0.0949
   65CHL1  H27B 7289   4.409   4.606   8.432  1.5847 -2.7618 -2.7110
   65CHL1  H27C 7290   4.454   4.779   8.408  1.7333  0.5136 -0.1542
   66CHL1    C3 7291   1.674   5.935  10.264  0.1977 -0.2422 -0.1608
   66CHL1    H3 7292   1.600   6.018  10.276  0.7205  0.2943 -0.5845
   66CHL1    O3 7293   1.733   5.906  10.390 -0.3078 -0.6884 -0.3438
   66CHL1   H3' 7294   1.667   5.864  10.445  0.6923 -0.1078  1.3998
   66CHL1    C4 7295   1.602   5.809  10.217 -0.3837  0.3443 -0.0359
   66CHL1   H4A 7296   1.668   5.721  10.230 -1.7934 -0.5145  1.5934
   66CHL1   H4B 7297   1.525   5.789  10.294 -1.1122  1.6907 -0.3864
   66CHL1    C5 7298   1.540   5.837  10.074 -0.5631 -0.5186 -0.0808
   66CHL1    C6 7299   1.410   5.822  10.045  0.3644  1.3588  0.1978
   66CHL1    H6 7300   1.342   5.795  10.127  0.1841  3.2658  0.7101
   66CHL1    C7 7301   1.356   5.846   9.905 -0.5759 -0.8262 -0.0763
   66CHL1   H7A 7302   1.267   5.785   9.880 -2.1374  0.0613  2.8038
   66CHL1   H7B 7303   1.312   5.949   9.901  0.6182 -0.0500  3.4110
   66CHL1    C8 7304   1.471   5.847   9.796  0.5540 -0.8354 -0.1983
   66CHL1    H8 7305   1.509   5.742   9.796  1.2810 -0.5789 -0.5675
   66CHL1   C14 7306   1.432   5.884   9.652  0.1102  0.3002 -0.1152
   66CHL1   H14 7307   1.400   5.990   9.654  0.1664  0.3117  0.8539
   66CHL1   C15 7308   1.310   5.795   9.599 -0.5686  0.4539 -0.1707
   66CHL1  H15A 7309   1.330   5.687   9.618  0.9328  0.1897 -2.7449
   66CHL1  H15B 7310   1.212   5.820   9.644 -0.8521 -0.7126 -0.1060
   66CHL1   C16 7311   1.306   5.819   9.445  1.2198 -0.6530 -0.7203
   66CHL1  H16A 7312   1.320   5.722   9.394 -1.7190 -1.6480  0.1534
   66CHL1  H16B 7313   1.213   5.868   9.410  0.8548  0.4878  1.5957
   66CHL1   C17 7314   1.441   5.892   9.425  0.4979  0.2210  0.1623
   66CHL1   H17 7315   1.428   6.003   9.426  2.4749  0.4858  0.1371
   66CHL1   C13 7316   1.539   5.866   9.547  0.4697  0.0602  0.6441
   66CHL1   C18 7317   1.596   5.729   9.535 -0.9953  0.5584 -0.3640
   66CHL1  H18A 7318   1.617   5.685   9.635  0.2786  0.0183 -0.8530
   66CHL1  H18B 7319   1.527   5.659   9.483  1.2404 -1.4370 -0.7972
   66CHL1  H18C 7320   1.691   5.711   9.481 -1.2579 -2.3702 -0.0005
   66CHL1   C12 7321   1.648   5.963   9.573  0.0573  0.0454  0.7499
   66CHL1  H12A 7322   1.725   5.953   9.494 -1.1035  3.0905 -0.9628
   66CHL1  H12B 7323   1.599   6.062   9.557  0.5423  0.3261  0.9760
   66CHL1   C11 7324   1.702   5.944   9.717  0.8367 -0.0180 -0.0091
   66CHL1  H11A 7325   1.767   5.854   9.712  0.4035 -0.4169  1.2818
   66CHL1  H11B 7326   1.775   6.024   9.742  1.4120  0.0522 -1.7786
   66CHL1    C9 7327   1.589   5.934   9.829 -0.3373  0.0033  0.3441
   66CHL1    H9 7328   1.546   6.036   9.829  0.6420  0.6095 -3.7048
   66CHL1   C10 7329   1.648   5.892   9.971  0.2681 -0.1722  0.1857
   66CHL1   C19 7330   1.749   5.774   9.957 -0.1301 -0.2700 -0.1729
   66CHL1  H19A 7331   1.695   5.694   9.902 -0.0523 -0.2511 -0.2765
   66CHL1  H19B 7332   1.840   5.792   9.896 -0.3708 -1.1718 -0.8126
   66CHL1  H19C 7333   1.777   5.723  10.052 -2.3818  2.7708  2.3215
   66CHL1    C1 7334   1.723   6.019  10.025 -0.5652 -0.5676 -0.7463
   66CHL1   H1A 7335   1.808   6.045   9.958  0.9239  1.4782  1.7898
   66CHL1   H1B 7336   1.660   6.110  10.031  0.6946  0.2474  0.7864
   66CHL1    C2 7337   1.781   5.989  10.166 -0.0063 -0.1722  0.0479
   66CHL1   H2A 7338   1.818   6.083  10.212 -0.2461 -0.1000  0.0954
   66CHL1   H2B 7339   1.868   5.920  10.171 -0.7826 -1.0898  1.6722
   66CHL1   C20 7340   1.491   5.864   9.281 -0.8868 -0.1728 -0.6064
   66CHL1   H20 7341   1.505   5.756   9.258  0.5337  0.1657 -1.4866
   66CHL1   C21 7342   1.622   5.935   9.256 -0.2000  1.1488 -0.7279
   66CHL1  H21A 7343   1.711   5.887   9.302  0.0467 -1.6455 -3.7558
   66CHL1  H21B 7344   1.621   6.042   9.287  1.3066  1.3362 -1.2392
   66CHL1  H21C 7345   1.649   5.934   9.149  0.8692 -0.1072 -0.4732
   66CHL1   C22 7346   1.391   5.905   9.170  0.6556 -0.8169 -0.3517
   66CHL1  H22A 7347   1.311   5.829   9.176  0.0729 -0.2809 -1.1595
   66CHL1  H22B 7348   1.346   6.005   9.192 -0.2364 -1.1981 -0.4074
   66CHL1   C23 7349   1.439   5.905   9.022 -0.2799  0.0063 -0.2875
   66CHL1  H23A 7350   1.483   6.000   8.986 -0.5044 -0.8030 -2.9122
   66CHL1  H23B 7351   1.515   5.824   9.028  1.3945  1.6135  1.6688
   66CHL1   C24 7352   1.326   5.870   8.925  0.5812  0.1358 -0.1725
   66CHL1  H24A 7353   1.299   5.763   8.929 -0.1437  0.2997 -0.4404
   66CHL1  H24B 7354   1.233   5.905   8.976  0.5885  0.9939 -0.7185
   66CHL1   C25 7355   1.352   5.912   8.783  0.2170  0.0979  0.2400
   66CHL1   H25 7356   1.352   6.023   8.776  1.3188  0.0490 -0.7529
   66CHL1   C26 7357   1.492   5.859   8.728  0.2235 -0.5693 -0.3452
   66CHL1  H26A 7358   1.570   5.926   8.771 -0.7472 -1.6058  3.3436
   66CHL1  H26B 7359   1.523   5.756   8.753  0.1004 -0.6460 -0.5130
   66CHL1  H26C 7360   1.481   5.868   8.618 -1.3036  0.8318 -0.1222
   66CHL1   C27 7361   1.238   5.852   8.701  0.2182 -0.7129  0.4785
   66CHL1  H27A 7362   1.238   5.744   8.728 -3.3518 -0.8149  0.6353
   66CHL1  H27B 7363   1.137   5.898   8.716 -0.0226 -0.2790 -2.1392
   66CHL1  H27C 7364   1.260   5.865   8.593  1.3134  0.2426  0.7983
   67CHL1    C3 7365   6.458   5.710  10.171 -0.3058  0.2262  0.8695
   67CHL1    H3 7366   6.561   5.671  10.158 -0.4888 -0.4035  1.2434
   67CHL1    O3 7367   6.434   5.727  10.306  0.0533 -0.2234 -0.3256
   67CHL1   H3' 7368   6.438   5.641  10.348  1.1965  0.6141  1.4230
   67CHL1    C4 7369   6.441   5.844  10.103  0.0074 -0.2612 -0.1987
   67CHL1   H4A 7370   6.345   5.894  10.126 -1.2635 -2.0616 -1.3310
   67CHL1   H4B 7371   6.521   5.908  10.146 -1.9234  1.2674  1.2662
   67CHL1    C5 7372   6.467   5.832   9.952 -0.5157  1.5237  0.2871
   67CHL1    C6 7373   6.573   5.888   9.893 -0.3584 -0.6789  0.0730
   67CHL1    H6 7374   6.640   5.948   9.956 -1.1260 -0.3504  0.5928
   67CHL1    C7 7375   6.609   5.872   9.746 -0.2413 -0.2505 -0.5041
   67CHL1   H7A 7376   6.642   5.972   9.713  1.4476 -0.0364  1.6342
   67CHL1   H7B 7377   6.700   5.808   9.740  0.0295  0.0879 -0.0123
   67CHL1    C8 7378   6.484   5.811   9.669 -0.9069 -0.1171  0.3697
   67CHL1    H8 7379   6.413   5.894   9.650  0.3933  0.6749 -1.3670
   67CHL1   C14 7380   6.539   5.779   9.527 -0.8595  0.2289 -0.2000
   67CHL1   H14 7381   6.614   5.700   9.552 -1.0620  0.1992  0.3282
   67CHL1   C15 7382   6.621   5.884   9.449 -0.3448 -0.5011  0.5671
   67CHL1  H15A 7383   6.565   5.980   9.450 -0.9978 -0.8699  0.2646
   67CHL1  H15B 7384   6.721   5.895   9.495 -0.2800  1.2904  0.0588
   67CHL1   C16 7385   6.623   5.829   9.310  0.4809 -0.0234  0.5344
   67CHL1  H16A 7386   6.574   5.895   9.235 -1.3264  0.0535  1.7102
   67CHL1  H16B 7387   6.724   5.812   9.267  1.1902  0.8847  1.7385
   67CHL1   C17 7388   6.539   5.700   9.310  0.7363  0.8365  0.1399
   67CHL1   H17 7389   6.601   5.618   9.352 -1.7021 -1.1676  0.0806
   67CHL1   C13 7390   6.438   5.717   9.428 -0.2980 -0.6251  0.4398
   67CHL1   C18 7391   6.331   5.824   9.399 -0.8971 -0.3126 -0.0183
   67CHL1  H18A 7392   6.265   5.777   9.322  0.5222  0.8882 -2.0847
   67CHL1  H18B 7393   6.271   5.868   9.482 -0.8242  1.9898 -1.0971
   67CHL1  H18C 7394   6.363   5.922   9.356 -0.9094 -0.1235  0.4009
   67CHL1   C12 7395   6.375   5.594   9.496 -0.2018 -0.0900 -0.0113
   67CHL1  H12A 7396   6.302   5.538   9.434  1.2003  0.4278 -2.2460
   67CHL1  H12B 7397   6.450   5.521   9.531 -0.9833 -0.0566  1.8524
   67CHL1   C11 7398   6.315   5.638   9.635 -0.2713  0.1020 -0.0166
   67CHL1  H11A 7399   6.242   5.721   9.621  0.2634  0.3255 -1.7971
   67CHL1  H11B 7400   6.274   5.551   9.690  0.9981  0.4242  1.5050
   67CHL1    C9 7401   6.420   5.697   9.729  0.0112  0.2799 -0.0810
   67CHL1    H9 7402   6.497   5.618   9.736 -0.5584 -0.3640 -0.9938
   67CHL1   C10 7403   6.379   5.728   9.876 -1.0238  0.2100  0.2400
   67CHL1   C19 7404   6.237   5.787   9.866 -0.5701 -0.6931  0.0916
   67CHL1  H19A 7405   6.230   5.867   9.790 -0.6746  0.5099  1.3318
   67CHL1  H19B 7406   6.174   5.703   9.832 -1.9110  0.2553  0.1789
   67CHL1  H19C 7407   6.203   5.828   9.963 -0.1188  0.7840 -0.3528
   67CHL1    C1 7408   6.388   5.598   9.961 -0.1722  0.3473 -0.5282
   67CHL1   H1A 7409   6.324   5.524   9.909 -0.1428  0.5598 -0.8693
   67CHL1   H1B 7410   6.487   5.550   9.951 -0.0024  0.1404  1.7035
   67CHL1    C2 7411   6.365   5.601  10.111  0.0548 -0.1435  0.1309
   67CHL1   H2A 7412   6.392   5.505  10.160 -0.4332 -0.6352 -0.5376
   67CHL1   H2B 7413   6.259   5.631  10.120 -0.0437 -0.6529  0.7181
   67CHL1   C20 7414   6.476   5.649   9.174 -0.5410 -0.4322  0.7234
   67CHL1   H20 7415   6.391   5.717   9.151 -0.2294 -1.2309 -3.6545
   67CHL1   C21 7416   6.412   5.505   9.188 -0.9721 -0.1108 -1.0138
   67CHL1  H21A 7417   6.305   5.515   9.216 -0.2169 -1.5415  3.0949
   67CHL1  H21B 7418   6.461   5.439   9.263 -0.4494 -0.5773 -1.7572
   67CHL1  H21C 7419   6.417   5.455   9.089 -2.9334 -1.6778 -0.3848
   67CHL1   C22 7420   6.580   5.646   9.059  0.5067 -0.5300  0.2883
   67CHL1  H22A 7421   6.537   5.581   8.979 -2.5055 -1.2691  2.3320
   67CHL1  H22B 7422   6.596   5.745   9.010 -1.2217 -1.3577 -2.1314
   67CHL1   C23 7423   6.714   5.576   9.092  0.2596 -0.2533 -0.4274
   67CHL1  H23A 7424   6.767   5.615   9.182 -1.6983  0.2396  0.5790
   67CHL1  H23B 7425   6.686   5.473   9.123  0.6846  0.5405  2.9131
   67CHL1   C24 7426   6.807   5.587   8.975 -0.4827  0.7666  0.5600
   67CHL1  H24A 7427   6.740   5.563   8.889 -1.4835  1.7395  1.0453
   67CHL1  H24B 7428   6.843   5.691   8.965 -3.3233  1.7386 -0.3795
   67CHL1   C25 7429   6.915   5.477   8.970 -0.4965  0.3688 -0.2005
   67CHL1   H25 7430   6.876   5.387   9.022 -1.5268  1.1029  0.3551
   67CHL1   C26 7431   6.982   5.459   8.831 -0.3027 -0.2302  0.0553
   67CHL1  H26A 7432   7.021   5.550   8.780  1.1222 -0.9628 -0.2292
   67CHL1  H26B 7433   7.056   5.378   8.852 -0.7236 -0.6041  0.1225
   67CHL1  H26C 7434   6.906   5.432   8.754  0.0876 -1.8503  0.1904
   67CHL1   C27 7435   7.024   5.526   9.061 -0.1018 -0.4974 -0.4694
   67CHL1  H27A 7436   7.074   5.617   9.022  0.4654 -1.4247 -2.0435
   67CHL1  H27B 7437   6.998   5.558   9.164 -0.5128  0.5036 -0.8741
   67CHL1  H27C 7438   7.112   5.461   9.077  2.8810  3.2012 -0.5511
   68CHL1    C3 7439   4.181   1.732  10.060  0.4025 -0.0077 -0.5813
   68CHL1    H3 7440   4.136   1.829  10.089 -0.7216  0.0295 -2.2979
   68CHL1    O3 7441   4.188   1.656  10.178  0.3938 -0.0394 -0.3687
   68CHL1   H3' 7442   4.159   1.565  10.164 -3.6161  0.9108  0.5289
   68CHL1    C4 7443   4.085   1.653   9.957 -0.2574 -0.3317 -0.6684
   68CHL1   H4A 7444   4.113   1.547   9.935 -0.8562 -0.9944  1.4796
   68CHL1   H4B 7445   3.985   1.647  10.005  0.0714  3.8281  0.9456
   68CHL1    C5 7446   4.080   1.723   9.824 -0.6329 -0.5965  0.1377
   68CHL1    C6 7447   3.964   1.769   9.774 -0.0991  0.6989  0.3987
   68CHL1    H6 7448   3.869   1.744   9.822 -1.1583  1.3145 -1.2781
   68CHL1    C7 7449   3.951   1.827   9.636 -0.5256 -0.7698  0.2568
   68CHL1   H7A 7450   3.860   1.785   9.588 -2.4907  1.3006  1.9605
   68CHL1   H7B 7451   3.928   1.936   9.640 -0.6497 -0.6920 -1.5273
   68CHL1    C8 7452   4.076   1.811   9.543  0.2147  0.6434 -0.2137
   68CHL1    H8 7453   4.087   1.705   9.510 -2.6809  0.1688  0.0292
   68CHL1   C14 7454   4.062   1.900   9.420 -0.3145 -0.2941  0.8435
   68CHL1   H14 7455   4.048   2.008   9.441 -0.5868  0.5041 -2.8286
   68CHL1   C15 7456   3.937   1.890   9.328 -0.3867  0.3215 -1.0251
   68CHL1  H15A 7457   3.919   1.781   9.313 -0.1329  0.0608  0.4396
   68CHL1  H15B 7458   3.855   1.947   9.375 -1.2434 -1.5611 -0.1269
   68CHL1   C16 7459   3.971   1.956   9.193 -0.7002  0.0817 -0.1018
   68CHL1  H16A 7460   3.971   1.872   9.121  0.7194 -0.8786  0.9534
   68CHL1  H16B 7461   3.911   2.046   9.166 -0.7098  0.7573  1.9855
   68CHL1   C17 7462   4.122   1.994   9.215 -0.9064  0.3455  0.4076
   68CHL1   H17 7463   4.114   2.098   9.253 -1.5008  1.3182 -2.1626
   68CHL1   C13 7464   4.185   1.902   9.335  0.5533  0.0239  0.4760
   68CHL1   C18 7465   4.210   1.774   9.266 -0.0717  0.7792  0.2542
   68CHL1  H18A 7466   4.131   1.747   9.193  1.5645 -1.7764 -0.7357
   68CHL1  H18B 7467   4.308   1.790   9.215  0.4200 -2.2547  0.0322
   68CHL1  H18C 7468   4.221   1.686   9.333  0.3930  1.0394  0.5231
   68CHL1   C12 7469   4.300   1.951   9.425 -0.4222 -0.4024  0.2284
   68CHL1  H12A 7470   4.400   1.952   9.377 -0.1380 -2.6260  0.7007
   68CHL1  H12B 7471   4.276   2.056   9.454  1.2910  0.5868 -1.6037
   68CHL1   C11 7472   4.322   1.860   9.549  0.9272 -0.2460  0.3456
   68CHL1  H11A 7473   4.357   1.763   9.509 -0.2611 -0.2445 -0.7952
   68CHL1  H11B 7474   4.397   1.912   9.612  0.2651  0.5315  0.5212
   68CHL1    C9 7475   4.195   1.841   9.634  0.5894 -0.2212  0.6193
   68CHL1    H9 7476   4.176   1.944   9.671 -2.4130 -1.3460  2.5590
   68CHL1   C10 7477   4.217   1.748   9.756  0.5207 -0.6158  0.3809
   68CHL1   C19 7478   4.276   1.621   9.704  0.6272  0.4642  0.0227
   68CHL1  H19A 7479   4.313   1.562   9.790 -0.6824 -0.2412  0.1302
   68CHL1  H19B 7480   4.222   1.562   9.627  0.1539  0.9786 -0.0577
   68CHL1  H19C 7481   4.369   1.638   9.646 -0.1150  0.1672 -1.2948
   68CHL1    C1 7482   4.310   1.823   9.863  0.1204  0.2672 -0.0104
   68CHL1   H1A 7483   4.411   1.834   9.819 -0.5378  2.3581 -1.1293
   68CHL1   H1B 7484   4.262   1.923   9.867 -1.4208 -0.4126 -0.7165
   68CHL1    C2 7485   4.325   1.752   9.998  0.7032 -0.1490 -0.7031
   68CHL1   H2A 7486   4.381   1.813  10.072 -2.7673  0.1943  1.8521
   68CHL1   H2B 7487   4.378   1.654  10.002 -0.0413 -0.5227  0.7856
   68CHL1   C20 7488   4.195   1.996   9.086 -0.0015 -0.4635  0.1852
   68CHL1   H20 7489   4.188   1.896   9.037 -0.2523 -1.1288  1.5367
   68CHL1   C21 7490   4.343   2.043   9.107 -0.3143 -0.8189  0.2771
   68CHL1  H21A 7491   4.364   2.134   9.168  2.6208 -1.1706 -0.0572
   68CHL1  H21B 7492   4.391   2.065   9.009  1.4348 -0.8619  1.0786
   68CHL1  H21C 7493   4.393   1.957   9.157 -0.5149 -2.1043 -1.6417
   68CHL1   C22 7494   4.119   2.098   8.995  0.1865 -0.4211  0.1095
   68CHL1  H22A 7495   4.162   2.092   8.892 -0.1404 -0.9055 -0.0024
   68CHL1  H22B 7496   4.016   2.058   8.978 -0.8759  2.0252  0.2697
   68CHL1   C23 7497   4.110   2.249   9.030 -0.5594 -0.0221 -0.0502
   68CHL1  H23A 7498   4.086   2.263   9.137 -1.5173 -0.3418 -0.2177
   68CHL1  H23B 7499   4.214   2.289   9.031 -0.8269  0.6921  1.5218
   68CHL1   C24 7500   4.014   2.329   8.940  0.6633 -0.0347 -0.3118
   68CHL1  H24A 7501   4.004   2.281   8.840  0.2344 -1.6133  0.4604
   68CHL1  H24B 7502   3.910   2.312   8.977  0.3295 -0.7567 -1.4934
   68CHL1   C25 7503   4.043   2.478   8.942 -0.3343 -0.3231  0.4645
   68CHL1   H25 7504   4.144   2.495   8.899  0.0876 -0.5745  1.3248
   68CHL1   C26 7505   3.936   2.541   8.864  0.0784 -0.1730 -0.0189
   68CHL1  H26A 7506   3.923   2.650   8.883 -0.6057 -0.5927  2.1544
   68CHL1  H26B 7507   3.940   2.518   8.755  0.0541 -1.0784  0.1623
   68CHL1  H26C 7508   3.841   2.499   8.904 -1.1963 -0.3029 -2.9499
   68CHL1   C27 7509   4.047   2.536   9.086 -0.5038 -0.5996  0.3605
   68CHL1  H27A 7510   4.122   2.490   9.154 -0.1012 -1.2672 -0.5105
   68CHL1  H27B 7511   4.051   2.647   9.081  2.4742 -0.5782  1.4493
   68CHL1  H27C 7512   3.956   2.498   9.138  0.5124 -1.1942  1.7763
   69CHL1    C3 7513   3.242   4.616   6.648  0.1147  0.4175 -0.2558
   69CHL1    H3 7514   3.303   4.528   6.679 -1.1434 -0.3914 -0.0279
   69CHL1    O3 7515   3.237   4.601   6.506  0.3259 -0.0833  0.2715
   69CHL1   H3' 7516   3.162   4.547   6.481  0.6635 -1.2279  1.5867
   69CHL1    C4 7517   3.103   4.608   6.715 -0.1696 -0.8702  0.2671
   69CHL1   H4A 7518   3.051   4.701   6.683  0.8491 -0.6720 -0.8757
   69CHL1   H4B 7519   3.045   4.522   6.676 -0.8621 -0.3920  0.2174
   69CHL1    C5 7520   3.115   4.617   6.860 -0.2490 -0.2913 -0.2222
   69CHL1    C6 7521   3.062   4.528   6.950  0.0204  0.3303 -0.2221
   69CHL1    H6 7522   3.008   4.440   6.912 -1.1948  1.1990 -0.5521
   69CHL1    C7 7523   3.073   4.532   7.101  0.3012  0.1093  0.0202
   69CHL1   H7A 7524   2.973   4.508   7.143  0.6936 -1.7609 -0.0541
   69CHL1   H7B 7525   3.149   4.463   7.143 -0.8102 -0.5049  1.0520
   69CHL1    C8 7526   3.118   4.672   7.148 -0.9435  0.5638  0.1625
   69CHL1    H8 7527   3.028   4.737   7.146 -1.6758 -0.1443  3.3960
   69CHL1   C14 7528   3.161   4.663   7.290 -0.7140  0.4134  0.0117
   69CHL1   H14 7529   3.250   4.596   7.290 -0.4478  0.7404 -1.0104
   69CHL1   C15 7530   3.066   4.605   7.392 -0.0288 -0.5561  0.3434
   69CHL1  H15A 7531   2.964   4.644   7.371  0.4212  0.2274 -0.4715
   69CHL1  H15B 7532   3.052   4.495   7.388  0.2043 -0.5857  0.3340
   69CHL1   C16 7533   3.126   4.640   7.531  0.0757  0.2704  0.0749
   69CHL1  H16A 7534   3.048   4.677   7.601 -0.1169  1.0917 -0.5532
   69CHL1  H16B 7535   3.170   4.546   7.569 -2.4649 -1.5413 -1.1978
   69CHL1   C17 7536   3.237   4.752   7.501 -0.7261  0.3630 -0.0095
   69CHL1   H17 7537   3.340   4.710   7.510 -0.9848 -0.4726 -0.7687
   69CHL1   C13 7538   3.208   4.792   7.351  0.4514 -0.4722 -0.3474
   69CHL1   C18 7539   3.089   4.898   7.362 -0.0901 -0.1382  0.1762
   69CHL1  H18A 7540   2.999   4.864   7.418 -1.4771  0.5256 -1.5228
   69CHL1  H18B 7541   3.122   4.994   7.407  0.7618  0.0080 -0.7191
   69CHL1  H18C 7542   3.054   4.924   7.260  2.6215 -1.3952 -1.1925
   69CHL1   C12 7543   3.332   4.846   7.285  0.5739 -0.3387  0.0007
   69CHL1  H12A 7544   3.364   4.946   7.320  3.5194 -1.1141 -0.1998
   69CHL1  H12B 7545   3.419   4.781   7.308 -1.1457 -2.4199  1.0971
   69CHL1   C11 7546   3.298   4.845   7.138  0.2645 -0.1370 -0.0893
   69CHL1  H11A 7547   3.240   4.936   7.109 -1.9779 -1.1179  1.0457
   69CHL1  H11B 7548   3.393   4.850   7.080  0.6245  1.9813  0.5941
   69CHL1    C9 7549   3.231   4.720   7.061 -0.3865 -0.1010 -0.2379
   69CHL1    H9 7550   3.319   4.652   7.069 -0.3499  0.0526  0.7386
   69CHL1   C10 7551   3.196   4.739   6.910  0.4134  0.5166 -0.9408
   69CHL1   C19 7552   3.094   4.860   6.894  0.2334 -0.0361 -0.0269
   69CHL1  H19A 7553   3.071   4.876   6.786 -0.0615 -1.3578 -0.1776
   69CHL1  H19B 7554   3.001   4.851   6.954  2.0456  2.1476  3.4345
   69CHL1  H19C 7555   3.144   4.952   6.931  2.1915 -1.9743  2.5689
   69CHL1    C1 7556   3.322   4.767   6.836 -0.3997  0.0806 -0.3323
   69CHL1   H1A 7557   3.335   4.876   6.858 -0.0072 -0.1186  0.4642
   69CHL1   H1B 7558   3.408   4.706   6.872  0.2434  1.2968  0.2679
   69CHL1    C2 7559   3.313   4.745   6.688 -0.6011  0.2998 -0.3475
   69CHL1   H2A 7560   3.419   4.725   6.659  0.2073  2.7706  0.6552
   69CHL1   H2B 7561   3.270   4.840   6.650 -0.9795 -0.0969 -0.9419
   69CHL1   C20 7562   3.233   4.858   7.618 -1.3157  0.2763 -0.6808
   69CHL1   H20 7563   3.133   4.905   7.629 -0.3453  2.2226  0.4794
   69CHL1   C21 7564   3.336   4.964   7.596  0.0716 -0.6626 -0.3564
   69CHL1  H21A 7565   3.346   5.024   7.689  1.1975  0.5407 -1.2093
   69CHL1  H21B 7566   3.314   5.018   7.501  0.9912 -0.1913 -0.3066
   69CHL1  H21C 7567   3.432   4.912   7.575  0.2077 -0.3813 -0.4457
   69CHL1   C22 7568   3.265   4.790   7.758  0.1306  0.0808  0.9847
   69CHL1  H22A 7569   3.235   4.684   7.774 -1.5367 -0.0236 -2.1099
   69CHL1  H22B 7570   3.375   4.790   7.773  0.2641  2.6968  0.3596
   69CHL1   C23 7571   3.218   4.878   7.878 -0.1748 -0.5222 -0.2341
   69CHL1  H23A 7572   3.273   4.975   7.878  2.1093 -1.7419 -0.7391
   69CHL1  H23B 7573   3.110   4.897   7.863 -0.0625  0.0081 -0.4003
   69CHL1   C24 7574   3.242   4.806   8.010  0.5582 -0.6217  0.3830
   69CHL1  H24A 7575   3.216   4.698   8.005 -0.8280 -0.2699 -0.6341
   69CHL1  H24B 7576   3.353   4.803   8.020  0.9133  1.0148 -2.1533
   69CHL1   C25 7577   3.180   4.871   8.134 -0.1336 -0.5592  0.7838
   69CHL1   H25 7578   3.186   4.981   8.119 -2.3773 -0.3580  1.0580
   69CHL1   C26 7579   3.032   4.841   8.143  0.2289  0.2286 -0.0196
   69CHL1  H26A 7580   2.968   4.918   8.192 -0.4392  0.0010 -0.5111
   69CHL1  H26B 7581   3.001   4.854   8.037  0.7649  0.4666 -0.1510
   69CHL1  H26C 7582   3.003   4.738   8.172  1.1850 -0.6036 -1.8571
   69CHL1   C27 7583   3.247   4.837   8.267  0.4541 -0.3244  0.3997
   69CHL1  H27A 7584   3.181   4.869   8.350  0.5214  0.1521  0.2703
   69CHL1  H27B 7585   3.275   4.730   8.278 -1.9408 -0.8084  2.5457
   69CHL1  H27C 7586   3.346   4.889   8.267  1.1339 -1.5275 -1.4233
   70CHL1    C3 7587   2.615   5.844   6.757  0.1443  0.5111  0.0014
   70CHL1    H3 7588   2.714   5.796   6.745 -0.2965 -0.0285 -1.8482
   70CHL1    O3 7589   2.542   5.862   6.636 -0.2140  0.6871  0.4591
   70CHL1   H3' 7590   2.453   5.857   6.673  0.0575 -0.6243  0.9954
   70CHL1    C4 7591   2.532   5.741   6.831  0.0526 -0.3193 -0.2823
   70CHL1   H4A 7592   2.424   5.768   6.830 -0.0178 -0.5979 -1.3341
   70CHL1   H4B 7593   2.541   5.645   6.777 -1.2837 -0.2282 -0.6881
   70CHL1    C5 7594   2.579   5.730   6.981 -0.6145  0.0428  0.2323
   70CHL1    C6 7595   2.605   5.612   7.030 -0.4128 -0.4605 -0.8536
   70CHL1    H6 7596   2.589   5.521   6.970  1.0530 -0.4754 -1.2575
   70CHL1    C7 7597   2.653   5.593   7.173  0.1754  1.3875 -0.1332
   70CHL1   H7A 7598   2.614   5.500   7.220  0.0599  0.8485 -1.2580
   70CHL1   H7B 7599   2.758   5.564   7.155 -0.2076 -1.9375  2.0121
   70CHL1    C8 7600   2.630   5.717   7.262  1.1739 -0.4590 -0.3581
   70CHL1    H8 7601   2.523   5.711   7.292  1.3704 -0.8008  0.3074
   70CHL1   C14 7602   2.716   5.719   7.389 -0.3346 -0.0157 -0.0665
   70CHL1   H14 7603   2.820   5.725   7.352 -1.1846  1.2650 -2.4860
   70CHL1   C15 7604   2.711   5.585   7.463 -0.1631  0.4533 -0.3262
   70CHL1  H15A 7605   2.604   5.557   7.464 -0.3783  1.1704  2.0631
   70CHL1  H15B 7606   2.771   5.503   7.417 -1.8046 -0.8619 -0.1977
   70CHL1   C16 7607   2.764   5.622   7.611  0.4946  0.7169  0.8774
   70CHL1  H16A 7608   2.675   5.594   7.671 -0.4013  2.3131  0.3701
   70CHL1  H16B 7609   2.860   5.582   7.648  0.5186  0.6442  0.7356
   70CHL1   C17 7610   2.754   5.777   7.617 -0.9517 -0.1845 -0.0433
   70CHL1   H17 7611   2.864   5.791   7.606 -0.6464 -0.6102  2.1621
   70CHL1   C13 7612   2.682   5.831   7.491 -0.5862  0.6326 -0.5995
   70CHL1   C18 7613   2.526   5.830   7.531 -0.5592  0.6034 -0.0579
   70CHL1  H18A 7614   2.467   5.844   7.438 -0.5123  0.7599 -0.0650
   70CHL1  H18B 7615   2.499   5.726   7.557 -0.0905 -0.0944 -2.2064
   70CHL1  H18C 7616   2.504   5.910   7.606 -1.4353 -1.4037  1.9416
   70CHL1   C12 7617   2.733   5.959   7.424  0.6855 -0.1849  0.0193
   70CHL1  H12A 7618   2.713   6.047   7.489 -1.1979 -0.9617  0.5629
   70CHL1  H12B 7619   2.841   5.939   7.413  0.5341 -1.0990  0.1272
   70CHL1   C11 7620   2.657   5.973   7.286 -0.5957 -0.7291 -0.5222
   70CHL1  H11A 7621   2.552   5.995   7.316 -0.0677  0.1365  0.7709
   70CHL1  H11B 7622   2.691   6.061   7.229  0.3326 -0.9159 -0.2692
   70CHL1    C9 7623   2.671   5.847   7.192  0.2789  0.2263 -0.0996
   70CHL1    H9 7624   2.780   5.839   7.172  0.2893 -2.6840  0.6454
   70CHL1   C10 7625   2.595   5.866   7.053  0.2980  0.4699  0.9849
   70CHL1   C19 7626   2.450   5.910   7.083 -0.2875  0.0546  0.4907
   70CHL1  H19A 7627   2.438   6.008   7.135  1.2974  1.7058 -1.9945
   70CHL1  H19B 7628   2.390   5.923   6.990 -3.1841 -0.5786  2.1730
   70CHL1  H19C 7629   2.396   5.832   7.140 -0.7886 -1.2500 -1.6361
   70CHL1    C1 7630   2.667   5.980   6.968 -0.1648  0.6789  0.2878
   70CHL1   H1A 7631   2.648   6.077   7.019  3.5153  0.0452  3.3879
   70CHL1   H1B 7632   2.777   5.965   6.966  0.4064  3.8391  1.5248
   70CHL1    C2 7633   2.621   5.986   6.821  0.0128  0.4089  0.9486
   70CHL1   H2A 7634   2.700   6.037   6.762  0.6380 -3.8391 -2.3981
   70CHL1   H2B 7635   2.522   6.037   6.814 -0.2064 -0.1703 -0.5919
   70CHL1   C20 7636   2.715   5.829   7.753 -0.3882 -0.0935  0.4124
   70CHL1   H20 7637   2.613   5.794   7.782 -1.0289 -0.1070 -1.6953
   70CHL1   C21 7638   2.718   5.982   7.763 -0.4843 -0.0168  0.6209
   70CHL1  H21A 7639   2.650   6.034   7.692 -1.7793 -1.2814  0.8821
   70CHL1  H21B 7640   2.819   6.021   7.742 -0.3430 -1.5330 -2.0773
   70CHL1  H21C 7641   2.683   6.019   7.861  1.8768  1.1545  1.0761
   70CHL1   C22 7642   2.815   5.780   7.866 -0.1201 -0.2374 -0.1414
   70CHL1  H22A 7643   2.824   5.670   7.862  1.7654 -0.3838  3.7361
   70CHL1  H22B 7644   2.921   5.809   7.845 -0.1443 -0.0464 -0.0045
   70CHL1   C23 7645   2.782   5.825   8.010  0.2893 -0.2870  0.5607
   70CHL1  H23A 7646   2.808   5.931   8.028 -2.8471  0.6755 -0.0477
   70CHL1  H23B 7647   2.674   5.800   8.020  0.0877  0.4039  0.1965
   70CHL1   C24 7648   2.854   5.730   8.110 -0.0498 -0.2485  0.6098
   70CHL1  H24A 7649   2.811   5.628   8.101  0.2327 -0.2223 -1.4839
   70CHL1  H24B 7650   2.959   5.717   8.076 -0.6193 -0.5418 -1.1427
   70CHL1   C25 7651   2.842   5.774   8.262 -0.0373 -0.0243  0.0053
   70CHL1   H25 7652   2.735   5.801   8.279  0.1462  0.3038  0.6547
   70CHL1   C26 7653   2.878   5.653   8.362 -0.1818 -0.0182  0.0344
   70CHL1  H26A 7654   2.986   5.629   8.349 -0.1085  1.0256 -1.5518
   70CHL1  H26B 7655   2.860   5.695   8.463 -0.3783 -1.3412  0.5747
   70CHL1  H26C 7656   2.805   5.574   8.332 -0.2242  0.4430 -1.1213
   70CHL1   C27 7657   2.927   5.891   8.293  0.4878 -0.3723 -0.0484
   70CHL1  H27A 7658   3.034   5.864   8.281  1.0250  1.1533  1.0803
   70CHL1  H27B 7659   2.909   5.972   8.220 -0.1067 -0.9057 -0.5093
   70CHL1  H27C 7660   2.893   5.934   8.389 -0.9676 -0.9212 -0.2949
   71CHL1    C3 7661   0.781   6.654   6.695  0.5043 -0.1535  0.5063
   71CHL1    H3 7662   0.684   6.604   6.713  2.0000 -3.2645  0.4463
   71CHL1    O3 7663   0.783   6.696   6.559 -0.5453 -0.2659  0.4227
   71CHL1   H3' 7664   0.873   6.727   6.554 -1.1395  1.4816 -0.3178
   71CHL1    C4 7665   0.800   6.780   6.789 -0.2288  1.0774  0.5884
   71CHL1   H4A 7666   0.886   6.841   6.753 -0.2414  2.4982  2.7554
   71CHL1   H4B 7667   0.709   6.839   6.767 -3.2177 -3.2087  0.2782
   71CHL1    C5 7668   0.814   6.737   6.934  0.1042 -0.8475  0.9696
   71CHL1    C6 7669   0.737   6.789   7.027  0.0126  0.2708  0.1608
   71CHL1    H6 7670   0.666   6.871   7.006  0.6071  0.4540 -1.2634
   71CHL1    C7 7671   0.725   6.735   7.168 -0.0678 -0.3897  0.7964
   71CHL1   H7A 7672   0.725   6.828   7.228  1.1626 -0.5016  0.9916
   71CHL1   H7B 7673   0.623   6.692   7.174 -0.9654  1.3933 -0.7123
   71CHL1    C8 7674   0.847   6.652   7.209 -0.0756  0.0766 -0.1813
   71CHL1    H8 7675   0.932   6.723   7.224 -0.8923  0.6271  2.3697
   71CHL1   C14 7676   0.804   6.568   7.324 -0.2998 -0.2823 -0.4003
   71CHL1   H14 7677   0.722   6.502   7.289  1.2163 -2.1591 -0.5480
   71CHL1   C15 7678   0.755   6.635   7.454  0.6824  0.4599  0.2036
   71CHL1  H15A 7679   0.792   6.739   7.467  3.1521 -0.2488 -0.5640
   71CHL1  H15B 7680   0.644   6.628   7.447  0.6973  0.9773 -0.7296
   71CHL1   C16 7681   0.795   6.548   7.572 -0.2155  0.6048  0.0306
   71CHL1  H16A 7682   0.872   6.597   7.636 -0.9520  1.6363  0.1516
   71CHL1  H16B 7683   0.705   6.521   7.631  0.1791  2.2129  1.4370
   71CHL1   C17 7684   0.867   6.422   7.508 -0.4895  0.1284  0.5316
   71CHL1   H17 7685   0.777   6.364   7.478 -0.1313  0.1358 -0.6010
   71CHL1   C13 7686   0.918   6.468   7.372  0.4582 -0.2514  0.0804
   71CHL1   C18 7687   1.051   6.545   7.391 -0.6286  0.3274  0.1351
   71CHL1  H18A 7688   1.093   6.582   7.296 -2.1548 -1.8856 -1.5054
   71CHL1  H18B 7689   1.036   6.637   7.450  0.5670 -0.3221  1.5305
   71CHL1  H18C 7690   1.130   6.483   7.440 -1.6258 -1.9035 -0.9521
   71CHL1   C12 7691   0.924   6.351   7.270 -0.3685 -0.5076  0.1342
   71CHL1  H12A 7692   0.995   6.271   7.302  1.4034  0.5509 -1.0015
   71CHL1  H12B 7693   0.821   6.309   7.260 -1.1160  1.3921 -0.4236
   71CHL1   C11 7694   0.962   6.411   7.130  0.3852 -0.4046 -0.1445
   71CHL1  H11A 7695   1.068   6.445   7.124  0.6733 -0.4949  2.9167
   71CHL1  H11B 7696   0.939   6.329   7.058 -0.1420 -1.5557  1.3023
   71CHL1    C9 7697   0.879   6.542   7.097 -0.8020  0.3248  0.2135
   71CHL1    H9 7698   0.778   6.501   7.079 -0.9769  0.7430  0.2362
   71CHL1   C10 7699   0.906   6.616   6.957  0.7722 -0.5619 -0.3575
   71CHL1   C19 7700   1.051   6.676   6.948  0.3782 -0.3046  0.7945
   71CHL1  H19A 7701   1.063   6.730   6.851  0.4105 -0.8663  0.4824
   71CHL1  H19B 7702   1.081   6.743   7.031  1.3896  0.7887 -0.4099
   71CHL1  H19C 7703   1.117   6.587   6.948 -0.9871 -1.3645 -0.0467
   71CHL1    C1 7704   0.876   6.497   6.857  0.2577  0.1567 -0.1863
   71CHL1   H1A 7705   0.958   6.423   6.868  1.2341  1.2976  0.3705
   71CHL1   H1B 7706   0.774   6.453   6.869 -1.2016  2.5486 -2.5936
   71CHL1    C2 7707   0.886   6.547   6.716  0.8959 -0.6952 -0.3374
   71CHL1   H2A 7708   0.868   6.463   6.646 -0.4341 -0.7847  0.0836
   71CHL1   H2B 7709   0.984   6.588   6.685 -0.3130  0.5975 -2.7362
   71CHL1   C20 7710   0.952   6.328   7.591  0.9938 -0.4546 -0.4736
   71CHL1   H20 7711   1.027   6.273   7.531  2.0268 -1.2292  1.4343
   71CHL1   C21 7712   0.848   6.234   7.666 -0.7598 -0.6497  0.1635
   71CHL1  H21A 7713   0.901   6.156   7.724 -0.2179 -0.2321  0.2378
   71CHL1  H21B 7714   0.780   6.173   7.603 -0.5254 -1.6386  0.8569
   71CHL1  H21C 7715   0.784   6.288   7.740 -2.4723 -0.5481 -1.3209
   71CHL1   C22 7716   1.036   6.403   7.692 -0.2231 -0.3481  0.7474
   71CHL1  H22A 7717   1.085   6.495   7.655 -0.6939 -1.3336 -2.6616
   71CHL1  H22B 7718   0.962   6.438   7.767 -1.2470 -0.7547 -0.0376
   71CHL1   C23 7719   1.143   6.316   7.761  0.4155  0.4428 -1.1806
   71CHL1  H23A 7720   1.081   6.231   7.796  1.7972  1.3512  4.4104
   71CHL1  H23B 7721   1.208   6.263   7.689 -0.6263  1.3534 -2.8723
   71CHL1   C24 7722   1.215   6.381   7.876  0.0307  0.0375 -0.1793
   71CHL1  H24A 7723   1.274   6.470   7.845 -0.0686  0.4623  0.8228
   71CHL1  H24B 7724   1.136   6.415   7.947 -1.2195 -2.6070 -0.1779
   71CHL1   C25 7725   1.306   6.293   7.970 -0.0700  1.2970  0.0954
   71CHL1   H25 7726   1.257   6.195   7.987 -0.8167  1.5037 -0.7368
   71CHL1   C26 7727   1.445   6.255   7.911 -0.5239 -0.4365  0.7987
   71CHL1  H26A 7728   1.450   6.198   7.816  4.4203 -1.9386  1.6511
   71CHL1  H26B 7729   1.496   6.350   7.886 -0.7540 -0.7298 -0.9172
   71CHL1  H26C 7730   1.505   6.191   7.980  0.2790 -3.5376 -2.4358
   71CHL1   C27 7731   1.333   6.366   8.096  0.5047 -0.0782  0.5212
   71CHL1  H27A 7732   1.412   6.443   8.083  2.2928 -1.9063  0.0239
   71CHL1  H27B 7733   1.237   6.409   8.130  0.1658  0.2723 -0.8204
   71CHL1  H27C 7734   1.370   6.300   8.177  0.0275 -2.8348 -1.3634
   72CHL1    C3 7735   0.576   0.356   7.069 -0.7821 -0.5843 -0.1048
   72CHL1    H3 7736   0.677   0.309   7.065 -0.0595  0.9303 -0.4743
   72CHL1    O3 7737   0.538   0.395   6.935 -0.1013  0.2692 -0.3282
   72CHL1   H3' 7738   0.456   0.444   6.943 -1.2047 -1.4608 -0.3400
   72CHL1    C4 7739   0.471   0.257   7.114  0.0143  0.0200  0.8676
   72CHL1   H4A 7740   0.369   0.297   7.094  1.1012  1.4125 -2.6378
   72CHL1   H4B 7741   0.471   0.162   7.056 -1.4655  0.2780  0.3877
   72CHL1    C5 7742   0.474   0.224   7.262  0.3042  0.5234 -0.5502
   72CHL1    C6 7743   0.490   0.095   7.307 -0.4273  0.1470  1.1635
   72CHL1    H6 7744   0.504   0.013   7.235  0.6792  0.5311  0.9246
   72CHL1    C7 7745   0.509   0.060   7.452 -0.7594  0.3349 -0.2611
   72CHL1   H7A 7746   0.455  -0.036   7.466  0.3412 -0.1903  0.4890
   72CHL1   H7B 7747   0.617   0.035   7.457 -0.5868  0.9217 -0.8102
   72CHL1    C8 7748   0.465   0.173   7.544  0.1327  0.0826 -0.3980
   72CHL1    H8 7749   0.356   0.176   7.561 -0.0309 -1.0789 -1.1788
   72CHL1   C14 7750   0.512   0.149   7.687  0.1878  0.5412 -0.3423
   72CHL1   H14 7751   0.623   0.146   7.679  0.1573 -1.1915 -0.4096
   72CHL1   C15 7752   0.467   0.014   7.753 -0.2392  1.0053  0.2581
   72CHL1  H15A 7753   0.358   0.006   7.731 -0.3683 -0.5280  1.3034
   72CHL1  H15B 7754   0.517  -0.077   7.716 -2.9524 -0.3920 -0.2389
   72CHL1   C16 7755   0.497   0.045   7.901 -0.1154  0.2840  0.7165
   72CHL1  H16A 7756   0.411   0.006   7.959  0.0401 -1.4705 -0.1786
   72CHL1  H16B 7757   0.582  -0.017   7.935  1.2399  1.4170 -0.4676
   72CHL1   C17 7758   0.537   0.192   7.919 -0.1828 -0.0134 -0.3525
   72CHL1   H17 7759   0.648   0.199   7.911 -0.0077 -0.8826  0.9436
   72CHL1   C13 7760   0.477   0.261   7.792 -0.3206  0.3319 -0.2347
   72CHL1   C18 7761   0.331   0.283   7.818 -0.3784  0.2919 -0.4552
   72CHL1  H18A 7762   0.292   0.352   7.740  0.6124  0.3142 -0.9391
   72CHL1  H18B 7763   0.266   0.193   7.820 -0.8528  0.6299  0.7910
   72CHL1  H18C 7764   0.323   0.334   7.917  2.3700  0.0140 -0.0080
   72CHL1   C12 7765   0.542   0.387   7.744  0.5942  0.3130  0.1478
   72CHL1  H12A 7766   0.504   0.470   7.808 -3.0435 -2.0715  1.4048
   72CHL1  H12B 7767   0.651   0.373   7.762  0.4405 -1.3722 -0.0685
   72CHL1   C11 7768   0.511   0.424   7.600  1.0159  0.3328  0.2745
   72CHL1  H11A 7769   0.407   0.463   7.602  0.4505 -0.9725 -1.5291
   72CHL1  H11B 7770   0.577   0.512   7.583 -0.3317  1.4023  0.3948
   72CHL1    C9 7771   0.518   0.310   7.494  0.3212 -0.1921  0.2547
   72CHL1    H9 7772   0.627   0.289   7.494 -0.0197 -2.2825 -0.9569
   72CHL1   C10 7773   0.478   0.348   7.349  0.6006  0.6413  0.0884
   72CHL1   C19 7774   0.341   0.412   7.352 -0.4186 -0.5619 -0.7119
   72CHL1  H19A 7775   0.355   0.514   7.394  0.9618 -1.5715  1.4989
   72CHL1  H19B 7776   0.283   0.407   7.258 -1.8591  1.7489 -0.0288
   72CHL1  H19C 7777   0.288   0.352   7.430  1.4535 -2.3573 -0.7397
   72CHL1    C1 7778   0.585   0.445   7.296  0.8109  0.4007  0.3644
   72CHL1   H1A 7779   0.571   0.530   7.367  0.0435 -1.1266  2.1316
   72CHL1   H1B 7780   0.686   0.405   7.321  0.9250  0.3768 -0.1195
   72CHL1    C2 7781   0.568   0.484   7.152 -0.0595  1.0273 -0.0657
   72CHL1   H2A 7782   0.648   0.552   7.115  0.1545  1.2453  0.7779
   72CHL1   H2B 7783   0.476   0.545   7.143 -0.4336  1.1134  3.2975
   72CHL1   C20 7784   0.500   0.239   8.060 -0.0633 -0.1496  0.0715
   72CHL1   H20 7785   0.392   0.226   8.085  0.2612 -1.3726  0.8933
   72CHL1   C21 7786   0.529   0.388   8.082 -0.5858 -0.0955  0.3723
   72CHL1  H21A 7787   0.504   0.420   8.185 -2.1865 -0.0821  0.0067
   72CHL1  H21B 7788   0.471   0.449   8.009  0.0667 -1.4539 -1.3736
   72CHL1  H21C 7789   0.638   0.409   8.074 -0.8004  0.6348 -1.0296
   72CHL1   C22 7790   0.581   0.152   8.166  0.1296  0.0858  0.0808
   72CHL1  H22A 7791   0.535   0.172   8.265  3.0824 -1.4331  1.8843
   72CHL1  H22B 7792   0.571   0.044   8.143 -0.1554  0.1863 -0.2755
   72CHL1   C23 7793   0.729   0.174   8.177 -0.7980 -0.1141 -0.3491
   72CHL1  H23A 7794   0.778   0.173   8.077  1.8116 -0.9760  0.8517
   72CHL1  H23B 7795   0.751   0.268   8.232 -1.4964 -0.4181  0.4618
   72CHL1   C24 7796   0.788   0.061   8.275  0.8833  0.0579  0.2179
   72CHL1  H24A 7797   0.743   0.079   8.375  0.5763 -1.8018  0.4600
   72CHL1  H24B 7798   0.758  -0.036   8.229  1.5369 -0.0076 -0.0786
   72CHL1   C25 7799   0.939   0.060   8.290 -0.0457  0.1079  0.1575
   72CHL1   H25 7800   0.977   0.052   8.186  0.0289 -0.1700  0.2050
   72CHL1   C26 7801   1.000   0.183   8.342 -0.2306 -0.3711 -0.1408
   72CHL1  H26A 7802   1.006   0.265   8.267  0.0232  0.9066  1.2265
   72CHL1  H26B 7803   0.936   0.209   8.429 -3.5098 -0.3955 -2.3694
   72CHL1  H26C 7804   1.106   0.169   8.375 -0.1654 -0.6646 -0.4746
   72CHL1   C27 7805   0.986  -0.069   8.359  0.5132  0.0754  0.1861
   72CHL1  H27A 7806   0.926  -0.155   8.322  1.9491 -0.8860  0.0242
   72CHL1  H27B 7807   1.092  -0.092   8.334  1.0867  2.1960  0.5117
   72CHL1  H27C 7808   0.971  -0.069   8.469  1.9342 -0.4440  0.3965
   73CHL1    C3 7809   4.488   6.044   6.778 -0.4181  0.7095  0.5185
   73CHL1    H3 7810   4.518   5.948   6.825 -0.1299  0.2439 -0.5935
   73CHL1    O3 7811   4.549   6.040   6.649  0.5577  0.0432 -0.0129
   73CHL1   H3' 7812   4.644   6.039   6.660  0.7961 -1.0312 -1.7879
   73CHL1    C4 7813   4.332   6.052   6.765  0.0801 -1.1552  0.2071
   73CHL1   H4A 7814   4.304   6.143   6.707 -0.6618 -1.3834  0.1953
   73CHL1   H4B 7815   4.301   5.959   6.712 -1.0363  0.6544 -2.5312
   73CHL1    C5 7816   4.270   6.062   6.903 -0.6677 -0.4623  0.0360
   73CHL1    C6 7817   4.183   5.973   6.949  0.0269 -0.6663 -0.9237
   73CHL1    H6 7818   4.153   5.887   6.888  0.6103 -1.3012 -0.3312
   73CHL1    C7 7819   4.113   5.991   7.087  0.0389  0.3302  1.0863
   73CHL1   H7A 7820   4.005   5.978   7.068  0.5229  0.4972 -2.5380
   73CHL1   H7B 7821   4.149   5.909   7.152 -2.3850 -2.3202 -0.6922
   73CHL1    C8 7822   4.131   6.131   7.150  0.3480  0.0474  0.2774
   73CHL1    H8 7823   4.057   6.203   7.109 -0.3217 -1.1590 -0.6570
   73CHL1   C14 7824   4.113   6.116   7.301  0.8655  0.0200  0.1947
   73CHL1   H14 7825   4.196   6.049   7.331 -0.4532 -1.2086  1.2416
   73CHL1   C15 7826   3.981   6.055   7.364 -0.2679 -0.4218 -0.5214
   73CHL1  H15A 7827   3.899   6.074   7.291  0.7388 -1.9192 -2.1270
   73CHL1  H15B 7828   3.982   5.944   7.369 -2.2873 -0.6204 -2.7230
   73CHL1   C16 7829   3.972   6.112   7.507 -0.8164  0.5968 -0.3362
   73CHL1  H16A 7830   3.875   6.159   7.532 -1.6698 -1.1199 -0.2377
   73CHL1  H16B 7831   3.978   6.034   7.586  3.0060  0.5600 -0.4905
   73CHL1   C17 7832   4.098   6.204   7.534  0.1915  0.2005  0.3459
   73CHL1   H17 7833   4.191   6.149   7.560 -1.1840 -2.2791  0.3638
   73CHL1   C13 7834   4.132   6.247   7.387 -0.2098 -0.2220  1.0739
   73CHL1   C18 7835   4.028   6.356   7.347 -0.3613  0.0107 -0.1639
   73CHL1  H18A 7836   4.062   6.449   7.397  1.1774 -0.4385 -0.3320
   73CHL1  H18B 7837   4.033   6.373   7.237 -0.6412 -0.9187 -0.3329
   73CHL1  H18C 7838   3.922   6.330   7.371  0.0795 -0.5083  1.3397
   73CHL1   C12 7839   4.280   6.292   7.351  1.2248 -0.0938 -0.2282
   73CHL1  H12A 7840   4.297   6.383   7.411 -1.8763  0.2295  0.3566
   73CHL1  H12B 7841   4.341   6.206   7.386 -0.6219 -0.4473  2.4801
   73CHL1   C11 7842   4.307   6.312   7.199  0.2400  0.1597  0.0472
   73CHL1  H11A 7843   4.251   6.396   7.153 -0.2632 -0.4641 -0.4879
   73CHL1  H11B 7844   4.416   6.332   7.195  0.3771 -0.4299  0.5973
   73CHL1    C9 7845   4.273   6.177   7.123 -0.3725  0.1317 -0.4219
   73CHL1    H9 7846   4.341   6.107   7.176 -0.4279  0.9384  0.7636
   73CHL1   C10 7847   4.318   6.184   6.978  0.0468 -0.7490  0.1661
   73CHL1   C19 7848   4.257   6.317   6.918  0.3910 -0.1986 -0.2639
   73CHL1  H19A 7849   4.309   6.404   6.962  0.7365  0.9945 -2.8466
   73CHL1  H19B 7850   4.257   6.336   6.809 -2.0281  0.2652 -0.2357
   73CHL1  H19C 7851   4.151   6.325   6.951  0.4899 -2.7271  0.9307
   73CHL1    C1 7852   4.478   6.187   6.982  0.2092  0.0182 -0.1259
   73CHL1   H1A 7853   4.527   6.279   7.021  2.9949 -0.9371 -1.1049
   73CHL1   H1B 7854   4.518   6.102   7.042 -1.2932 -0.6466 -0.0355
   73CHL1    C2 7855   4.538   6.167   6.844 -0.1755  0.1996 -0.1014
   73CHL1   H2A 7856   4.649   6.178   6.844 -0.3212  2.7386  2.0136
   73CHL1   H2B 7857   4.504   6.257   6.788 -1.1076  0.2924  0.5996
   73CHL1   C20 7858   4.071   6.310   7.644 -0.3909  0.3005  0.8817
   73CHL1   H20 7859   3.992   6.381   7.611  1.2688  1.2713 -1.1651
   73CHL1   C21 7860   4.198   6.398   7.657  0.1178  0.5061 -0.0034
   73CHL1  H21A 7861   4.281   6.324   7.654  0.8575  1.2867  0.8483
   73CHL1  H21B 7862   4.202   6.442   7.759 -0.4300  0.5052  0.0240
   73CHL1  H21C 7863   4.204   6.472   7.574 -1.4038 -1.3170 -1.8536
   73CHL1   C22 7864   4.046   6.240   7.778 -0.2912 -0.1465 -0.7384
   73CHL1  H22A 7865   3.959   6.173   7.765  0.2438 -1.0880  0.3560
   73CHL1  H22B 7866   4.137   6.183   7.805 -0.3650  0.2488  0.3924
   73CHL1   C23 7867   4.020   6.335   7.902 -0.7527 -0.0633  0.2248
   73CHL1  H23A 7868   4.118   6.371   7.938  0.2826 -2.6342  0.2055
   73CHL1  H23B 7869   3.969   6.427   7.866  1.0879 -0.4678 -4.0257
   73CHL1   C24 7870   3.936   6.263   8.019  0.0139 -0.1144 -0.0657
   73CHL1  H24A 7871   3.839   6.233   7.973  0.6979 -1.4580 -0.6829
   73CHL1  H24B 7872   3.997   6.177   8.052 -0.8583 -1.0400 -0.8124
   73CHL1   C25 7873   3.898   6.364   8.124 -0.3106 -1.1296  0.0399
   73CHL1   H25 7874   3.805   6.418   8.095  0.8102  0.2489 -1.1292
   73CHL1   C26 7875   3.884   6.294   8.258 -0.6254  0.0520 -0.2014
   73CHL1  H26A 7876   3.981   6.254   8.293 -0.7485 -0.6311 -0.6109
   73CHL1  H26B 7877   3.861   6.372   8.334 -1.0429  3.8617 -3.8715
   73CHL1  H26C 7878   3.813   6.208   8.263 -0.0211 -0.6857 -2.8316
   73CHL1   C27 7879   3.994   6.483   8.152  0.2640  0.4726  0.0460
   73CHL1  H27A 7880   3.968   6.539   8.244  0.1618  0.5478 -0.0290
   73CHL1  H27B 7881   4.092   6.438   8.177 -0.5968 -1.0451  0.8629
   73CHL1  H27C 7882   4.023   6.553   8.071 -0.5696  1.2026  0.3594
   74CHL1    C3 7883   0.628   5.773   6.803 -0.2943  0.0888 -0.5676
   74CHL1    H3 7884   0.663   5.869   6.847 -2.9334  0.5595  0.7101
   74CHL1    O3 7885   0.656   5.782   6.661  0.7087  0.1681 -0.0446
   74CHL1   H3' 7886   0.583   5.824   6.615  0.6821 -0.3512 -0.4854
   74CHL1    C4 7887   0.702   5.650   6.862 -0.6660 -0.6113  0.7879
   74CHL1   H4A 7888   0.661   5.569   6.797  0.1879 -0.1528 -0.3661
   74CHL1   H4B 7889   0.808   5.671   6.838 -0.9356 -0.2920 -0.1985
   74CHL1    C5 7890   0.682   5.617   7.007 -0.7686 -0.1659  1.0457
   74CHL1    C6 7891   0.783   5.613   7.094  0.5914  0.5183 -0.4158
   74CHL1    H6 7892   0.883   5.627   7.051  0.9349 -0.2655  0.1133
   74CHL1    C7 7893   0.777   5.570   7.238 -0.0649 -0.2224  0.7204
   74CHL1   H7A 7894   0.849   5.486   7.250 -0.9688 -1.2075 -0.4411
   74CHL1   H7B 7895   0.800   5.653   7.309 -1.3758  0.6166  0.1956
   74CHL1    C8 7896   0.631   5.530   7.274  0.0770  0.6603 -0.2345
   74CHL1    H8 7897   0.611   5.427   7.238  1.6397  0.5156 -0.7988
   74CHL1   C14 7898   0.609   5.546   7.418 -0.2566 -0.1562  0.0933
   74CHL1   H14 7899   0.604   5.653   7.449 -2.5703 -0.4933  1.0985
   74CHL1   C15 7900   0.712   5.489   7.513 -0.0938 -0.2299  0.2567
   74CHL1  H15A 7901   0.743   5.386   7.485  0.2918 -0.4410  1.4068
   74CHL1  H15B 7902   0.801   5.554   7.524 -0.6701  0.6502 -0.1828
   74CHL1   C16 7903   0.636   5.482   7.651  0.2430 -0.1486  0.2883
   74CHL1  H16A 7904   0.651   5.377   7.686 -1.4448 -0.9079 -1.1286
   74CHL1  H16B 7905   0.693   5.547   7.721 -0.6270  1.7454 -0.6865
   74CHL1   C17 7906   0.491   5.533   7.629 -0.2086  0.1763 -0.0404
   74CHL1   H17 7907   0.500   5.642   7.649 -1.0254  0.1635  0.4274
   74CHL1   C13 7908   0.474   5.505   7.474  0.4605  0.4979 -0.3741
   74CHL1   C18 7909   0.442   5.354   7.455  0.2026 -0.2238  0.1900
   74CHL1  H18A 7910   0.333   5.337   7.469 -0.1295  1.1617 -0.4925
   74CHL1  H18B 7911   0.464   5.331   7.348  2.2245  1.5176  0.1607
   74CHL1  H18C 7912   0.504   5.289   7.520  2.5844  1.2945 -0.4285
   74CHL1   C12 7913   0.368   5.593   7.404 -0.4333 -0.2593 -0.8812
   74CHL1  H12A 7914   0.269   5.558   7.441  0.2032 -0.6584  0.5180
   74CHL1  H12B 7915   0.396   5.698   7.427  1.1486 -0.8196 -0.0807
   74CHL1   C11 7916   0.383   5.575   7.253 -0.0989  0.3887  0.8564
   74CHL1  H11A 7917   0.352   5.476   7.212 -2.4032  1.0248  0.9463
   74CHL1  H11B 7918   0.315   5.646   7.202  0.0368 -0.4052 -0.4894
   74CHL1    C9 7919   0.529   5.604   7.195  0.8217  0.0120 -0.5436
   74CHL1    H9 7920   0.533   5.712   7.220 -3.1575 -0.0017  0.8726
   74CHL1   C10 7921   0.532   5.599   7.040 -0.3063 -0.1210  0.1389
   74CHL1   C19 7922   0.482   5.455   6.987 -0.7029  0.0714  0.1030
   74CHL1  H19A 7923   0.538   5.371   7.032  0.0319  0.9308  0.8239
   74CHL1  H19B 7924   0.372   5.440   6.999 -0.6164 -1.0787 -0.4493
   74CHL1  H19C 7925   0.498   5.449   6.877  0.2256  2.7659  0.0154
   74CHL1    C1 7926   0.452   5.718   6.976  0.2134  0.1916 -0.1130
   74CHL1   H1A 7927   0.342   5.707   6.990  0.2745  0.6824  0.8545
   74CHL1   H1B 7928   0.470   5.802   7.046 -2.6693 -0.2413  1.3040
   74CHL1    C2 7929   0.473   5.755   6.830 -0.2707  0.1229  0.7767
   74CHL1   H2A 7930   0.407   5.842   6.807 -1.2049  0.0935  3.0739
   74CHL1   H2B 7931   0.435   5.675   6.763 -0.5270 -0.5442  1.7036
   74CHL1   C20 7932   0.398   5.474   7.736  0.6990  0.1004  0.1194
   74CHL1   H20 7933   0.393   5.364   7.718 -0.9566  0.0362  0.7711
   74CHL1   C21 7934   0.253   5.529   7.726 -0.1737 -0.2601  0.1531
   74CHL1  H21A 7935   0.250   5.639   7.740 -3.6545 -0.3316  0.6884
   74CHL1  H21B 7936   0.200   5.470   7.804  1.5371  0.1637  1.7067
   74CHL1  H21C 7937   0.209   5.497   7.629 -0.6126 -0.5060  0.4288
   74CHL1   C22 7938   0.449   5.484   7.882  0.4870  0.1477 -0.3394
   74CHL1  H22A 7939   0.553   5.447   7.891 -0.0115 -0.7787  2.4896
   74CHL1  H22B 7940   0.462   5.590   7.913  0.6048  0.1916 -0.5350
   74CHL1   C23 7941   0.364   5.412   7.994 -0.1490  1.2450  0.0001
   74CHL1  H23A 7942   0.268   5.463   8.016  0.1789  0.4446  4.1894
   74CHL1  H23B 7943   0.332   5.309   7.967 -2.5214  1.2161  2.4128
   74CHL1   C24 7944   0.439   5.393   8.119 -1.0058 -0.2921  0.5178
   74CHL1  H24A 7945   0.549   5.379   8.106 -0.8252 -1.3829  2.6849
   74CHL1  H24B 7946   0.420   5.480   8.185  1.6325 -0.5417  1.7562
   74CHL1   C25 7947   0.395   5.257   8.192  0.3092 -0.5479  0.4361
   74CHL1   H25 7948   0.287   5.249   8.168 -0.1034  1.2997  1.4810
   74CHL1   C26 7949   0.470   5.138   8.126  0.3241 -0.2874  0.4427
   74CHL1  H26A 7950   0.425   5.043   8.160 -0.7083 -1.0913 -2.8230
   74CHL1  H26B 7951   0.456   5.142   8.016 -0.4447 -1.2695  0.4943
   74CHL1  H26C 7952   0.581   5.146   8.136  0.9453 -0.1677 -4.3205
   74CHL1   C27 7953   0.430   5.265   8.346 -0.5830 -0.0163  0.3376
   74CHL1  H27A 7954   0.536   5.299   8.358 -0.0080 -0.2475 -3.1354
   74CHL1  H27B 7955   0.360   5.335   8.397  1.6829  0.8138  2.5423
   74CHL1  H27C 7956   0.429   5.172   8.406  0.3061  0.6140  1.3766
   75CHL1    C3 7957   4.083   0.537   6.765  0.4419 -0.2900 -0.6272
   75CHL1    H3 7958   4.100   0.441   6.818  1.6071  0.6593  0.7801
   75CHL1    O3 7959   4.066   0.506   6.632  0.1836  0.9454  0.1824
   75CHL1   H3' 7960   4.051   0.593   6.594  0.2675  0.3423 -1.2827
   75CHL1    C4 7961   3.951   0.591   6.834 -0.1747 -0.0669  0.3399
   75CHL1   H4A 7962   3.926   0.682   6.776 -2.3774 -2.2027 -2.4055
   75CHL1   H4B 7963   3.871   0.516   6.813  0.1533 -0.4181  0.3327
   75CHL1    C5 7964   3.979   0.613   6.980 -0.1904 -0.1908 -0.5276
   75CHL1    C6 7965   3.906   0.558   7.077 -0.2493  0.4800  0.1265
   75CHL1    H6 7966   3.816   0.497   7.060 -1.2388  1.9785 -0.1918
   75CHL1    C7 7967   3.919   0.585   7.222 -1.5310  0.0654  0.7268
   75CHL1   H7A 7968   3.830   0.606   7.285 -2.2175  0.0091 -0.2231
   75CHL1   H7B 7969   3.965   0.492   7.263 -1.8628 -0.5238 -0.2287
   75CHL1    C8 7970   4.012   0.704   7.249 -0.1780  0.2028  0.0115
   75CHL1    H8 7971   3.958   0.799   7.230 -0.8488 -0.7920 -3.9063
   75CHL1   C14 7972   4.058   0.701   7.393 -0.2886 -0.6930 -0.3221
   75CHL1   H14 7973   4.115   0.606   7.390 -0.6736 -1.0326  1.6605
   75CHL1   C15 7974   3.953   0.672   7.502 -0.1445  0.2071 -0.8369
   75CHL1  H15A 7975   3.868   0.743   7.488 -0.1375 -0.0460 -2.3177
   75CHL1  H15B 7976   3.909   0.570   7.508 -1.2936  0.7325  0.4270
   75CHL1   C16 7977   4.037   0.711   7.634 -0.8133 -0.2450  0.0502
   75CHL1  H16A 7978   3.976   0.790   7.686  1.7099  1.8322  0.0477
   75CHL1  H16B 7979   4.036   0.621   7.699 -4.9742 -0.6664 -0.3068
   75CHL1   C17 7980   4.177   0.764   7.590 -0.4376  0.0015  0.0129
   75CHL1   H17 7981   4.237   0.671   7.596  0.1881  0.5005  2.2515
   75CHL1   C13 7982   4.164   0.806   7.441  0.3894 -0.1164  0.4104
   75CHL1   C18 7983   4.115   0.953   7.414  0.0646 -0.1432  0.0753
   75CHL1  H18A 7984   4.023   0.983   7.470  0.6641  0.2978  0.8427
   75CHL1  H18B 7985   4.196   1.022   7.445 -0.4798  0.2480  0.6733
   75CHL1  H18C 7986   4.101   0.985   7.309  1.9763 -1.1779 -0.5362
   75CHL1   C12 7987   4.290   0.789   7.358 -0.0945  0.0166  0.1530
   75CHL1  H12A 7988   4.365   0.866   7.387 -1.9934  0.9296  3.1895
   75CHL1  H12B 7989   4.338   0.690   7.374  0.7997  0.0882 -1.8087
   75CHL1   C11 7990   4.246   0.792   7.210 -0.4606 -0.9950  0.0379
   75CHL1  H11A 7991   4.217   0.893   7.173 -0.6830 -0.3849  1.8003
   75CHL1  H11B 7992   4.339   0.762   7.157 -0.5062 -3.7825  1.3463
   75CHL1    C9 7993   4.136   0.698   7.161  0.0869 -0.7837  0.4810
   75CHL1    H9 7994   4.177   0.596   7.175 -1.7480 -1.4917  1.0103
   75CHL1   C10 7995   4.101   0.708   7.010 -0.0006 -0.0683  0.1200
   75CHL1   C19 7996   4.063   0.852   6.961  0.3923 -0.1152  0.5683
   75CHL1  H19A 7997   3.981   0.896   7.021  0.0347 -0.1708  0.1172
   75CHL1  H19B 7998   4.152   0.919   6.971  1.3793 -1.4810  1.3412
   75CHL1  H19C 7999   4.034   0.868   6.855 -1.7576  0.9111  1.2775
   75CHL1    C1 8000   4.228   0.654   6.931  0.6006  0.2474  0.2240
   75CHL1   H1A 8001   4.309   0.730   6.931 -0.1677  1.0922 -0.5137
   75CHL1   H1B 8002   4.264   0.557   6.971 -0.5973 -1.1397 -1.8661
   75CHL1    C2 8003   4.207   0.626   6.783  0.5641 -0.4838  0.2152
   75CHL1   H2A 8004   4.298   0.568   6.760  0.1389 -1.3066  0.5846
   75CHL1   H2B 8005   4.192   0.732   6.751 -0.3681 -0.6836 -0.0655
   75CHL1   C20 8006   4.231   0.870   7.689  0.5572  0.7033 -0.5301
   75CHL1   H20 8007   4.179   0.966   7.674 -2.4358 -0.8592 -0.8436
   75CHL1   C21 8008   4.386   0.898   7.670  0.5743  0.0244 -0.3694
   75CHL1  H21A 8009   4.406   0.922   7.563 -0.8447  0.2412 -0.6099
   75CHL1  H21B 8010   4.438   0.803   7.697  0.4262  0.5285  1.8833
   75CHL1  H21C 8011   4.413   0.984   7.734 -0.7779  2.6761 -3.0710
   75CHL1   C22 8012   4.208   0.818   7.834  0.0593  0.3543 -0.0281
   75CHL1  H22A 8013   4.099   0.816   7.852  0.1158  0.2113  0.3110
   75CHL1  H22B 8014   4.250   0.715   7.835 -0.9776 -0.1317 -2.0188
   75CHL1   C23 8015   4.265   0.901   7.951 -0.1275 -0.0678 -0.1978
   75CHL1  H23A 8016   4.255   0.842   8.044 -0.1018  0.7821  0.3544
   75CHL1  H23B 8017   4.372   0.930   7.947 -0.2888  1.1456  2.3864
   75CHL1   C24 8018   4.204   1.041   7.969 -0.0012 -0.0912 -0.6763
   75CHL1  H24A 8019   4.235   1.070   8.072 -2.1938 -1.4815  0.4537
   75CHL1  H24B 8020   4.242   1.111   7.892  0.8051  1.3375  0.9626
   75CHL1   C25 8021   4.052   1.043   7.965  0.2494 -0.3580  0.0196
   75CHL1   H25 8022   4.012   0.990   7.876  0.5086 -1.0301  0.3031
   75CHL1   C26 8023   3.998   0.972   8.088 -0.1395 -0.3084 -0.2795
   75CHL1  H26A 8024   4.036   0.868   8.100  0.3028 -0.1454 -0.2622
   75CHL1  H26B 8025   4.016   1.035   8.177 -2.6791 -0.7650  0.6297
   75CHL1  H26C 8026   3.888   0.963   8.078 -0.0286 -3.3172  0.3315
   75CHL1   C27 8027   3.998   1.183   7.948 -0.4621 -0.2428  0.3713
   75CHL1  H27A 8028   4.006   1.240   8.043  0.3611  0.1808  0.0615
   75CHL1  H27B 8029   4.049   1.241   7.867 -1.5509  0.1095 -0.0741
   75CHL1  H27C 8030   3.888   1.183   7.938 -0.3509 -0.0075 -1.2642
   76CHL1    C3 8031   6.877   0.900   7.107 -0.5343 -0.3222 -1.1040
   76CHL1    H3 8032   6.984   0.927   7.124 -1.0671  0.7780  0.7173
   76CHL1    O3 8033   6.835   0.900   6.974 -0.3613 -0.1853  0.1155
   76CHL1   H3' 8034   6.878   0.829   6.926  2.2792  1.3525 -0.0101
   76CHL1    C4 8035   6.840   0.761   7.165  0.8368 -0.6529 -0.4285
   76CHL1   H4A 8036   6.732   0.750   7.141  0.5724 -0.3694  0.6068
   76CHL1   H4B 8037   6.896   0.693   7.097  1.4408  2.0218 -2.8146
   76CHL1    C5 8038   6.857   0.727   7.317  0.6602 -0.1233  0.5597
   76CHL1    C6 8039   6.935   0.629   7.366  0.5154  0.0936 -0.6381
   76CHL1    H6 8040   6.984   0.552   7.305  0.4576 -1.1920  0.8722
   76CHL1    C7 8041   6.939   0.599   7.509  0.4321  0.9440 -0.1646
   76CHL1   H7A 8042   6.920   0.493   7.535  2.3871  0.5836 -0.0586
   76CHL1   H7B 8043   7.041   0.626   7.547  1.1545  0.4426 -1.6820
   76CHL1    C8 8044   6.832   0.679   7.588 -0.1186 -0.2566 -0.3525
   76CHL1    H8 8045   6.736   0.627   7.569 -0.7838  0.9281 -0.3170
   76CHL1   C14 8046   6.870   0.679   7.738  0.2628  0.2557  0.3932
   76CHL1   H14 8047   6.966   0.735   7.744 -0.9172  2.3015  1.4131
   76CHL1   C15 8048   6.881   0.539   7.806 -0.0789 -0.1790  0.4324
   76CHL1  H15A 8049   6.803   0.466   7.776 -0.5543 -0.2730  1.8491
   76CHL1  H15B 8050   6.971   0.478   7.780 -0.4316 -0.6555  0.3151
   76CHL1   C16 8051   6.858   0.564   7.958 -1.1179  0.2041  0.1676
   76CHL1  H16A 8052   6.766   0.511   7.989 -1.4264  0.1852 -0.7405
   76CHL1  H16B 8053   6.937   0.527   8.026  0.3316  1.7785 -0.5933
   76CHL1   C17 8054   6.837   0.719   7.965 -0.2160  0.3743  0.0789
   76CHL1   H17 8055   6.942   0.754   7.962  0.6843 -2.1701 -1.1620
   76CHL1   C13 8056   6.777   0.756   7.831 -0.4236 -0.4716  0.0580
   76CHL1   C18 8057   6.637   0.693   7.820 -0.4839 -0.2394  0.1552
   76CHL1  H18A 8058   6.595   0.683   7.718 -2.8449  1.5076  0.8666
   76CHL1  H18B 8059   6.624   0.594   7.868 -0.4506 -0.5610 -0.4924
   76CHL1  H18C 8060   6.561   0.741   7.885 -2.6200 -2.2973 -0.6796
   76CHL1   C12 8061   6.784   0.901   7.782  0.4072  0.9734  0.3020
   76CHL1  H12A 8062   6.721   0.963   7.849  1.1108  0.4108  1.5078
   76CHL1  H12B 8063   6.891   0.930   7.791  1.3635 -2.5688  1.8907
   76CHL1   C11 8064   6.731   0.905   7.637 -0.1712 -0.1422  0.0290
   76CHL1  H11A 8065   6.629   0.861   7.643 -0.2973  0.1383 -0.0104
   76CHL1  H11B 8066   6.728   1.012   7.608 -0.4184 -0.2219 -0.2360
   76CHL1    C9 8067   6.824   0.826   7.538 -0.1097  0.0243  0.1666
   76CHL1    H9 8068   6.926   0.869   7.543 -0.2450  0.2964  0.7157
   76CHL1   C10 8069   6.778   0.830   7.396  0.4677  0.1159  0.5078
   76CHL1   C19 8070   6.621   0.808   7.378  0.0842 -0.0895 -0.3459
   76CHL1  H19A 8071   6.584   0.822   7.274 -2.6167  0.6278  0.6084
   76CHL1  H19B 8072   6.597   0.703   7.408  2.3888 -0.3007  0.9677
   76CHL1  H19C 8073   6.549   0.864   7.442 -0.9491 -2.3966  0.6554
   76CHL1    C1 8074   6.818   0.970   7.343 -0.3180  0.0672 -0.3771
   76CHL1   H1A 8075   6.780   1.058   7.399 -1.2060 -0.3954 -0.2398
   76CHL1   H1B 8076   6.928   0.986   7.350 -0.4898  1.7408 -1.1017
   76CHL1    C2 8077   6.788   0.995   7.196 -0.5699  0.0094  0.0617
   76CHL1   H2A 8078   6.813   1.099   7.164  0.4968 -0.3402 -0.2757
   76CHL1   H2B 8079   6.687   0.970   7.156  0.2718  1.4896 -3.4524
   76CHL1   C20 8080   6.768   0.776   8.084 -0.1737  0.0413  0.9324
   76CHL1   H20 8081   6.660   0.792   8.061 -0.6800 -1.3182  2.1789
   76CHL1   C21 8082   6.828   0.914   8.113 -0.5838 -0.1423  0.2426
   76CHL1  H21A 8083   6.866   0.968   8.024 -0.9566  1.2875  0.9282
   76CHL1  H21B 8084   6.917   0.905   8.179 -1.0226 -1.5983  0.6742
   76CHL1  H21C 8085   6.748   0.973   8.163 -1.3399 -1.3707  0.5166
   76CHL1   C22 8086   6.772   0.685   8.207  0.4169  0.4931 -0.6461
   76CHL1  H22A 8087   6.728   0.585   8.186  2.9183 -1.1083  1.1123
   76CHL1  H22B 8088   6.872   0.665   8.252  0.3114 -0.0884 -0.6618
   76CHL1   C23 8089   6.683   0.747   8.324  0.4125 -0.0496 -0.0791
   76CHL1  H23A 8090   6.710   0.854   8.337  1.1084 -0.4404  2.0008
   76CHL1  H23B 8091   6.582   0.747   8.279  0.8322 -1.1992 -1.0850
   76CHL1   C24 8092   6.699   0.676   8.457 -0.1727 -0.0103  0.0800
   76CHL1  H24A 8093   6.673   0.568   8.452  2.3088 -0.8299  2.2756
   76CHL1  H24B 8094   6.802   0.679   8.498 -0.6409 -0.6507  1.3648
   76CHL1   C25 8095   6.621   0.736   8.568 -0.2819  0.0383 -0.4463
   76CHL1   H25 8096   6.659   0.839   8.584 -1.6849  0.4367  0.5717
   76CHL1   C26 8097   6.468   0.735   8.543 -0.1809  0.4109  0.6304
   76CHL1  H26A 8098   6.430   0.795   8.458 -2.3028 -0.2696  1.0282
   76CHL1  H26B 8099   6.438   0.628   8.541  3.8398 -0.8652 -1.7729
   76CHL1  H26C 8100   6.421   0.768   8.638  0.0456 -0.1199  0.9334
   76CHL1   C27 8101   6.654   0.644   8.686 -0.5563 -0.1652 -0.6914
   76CHL1  H27A 8102   6.592   0.671   8.774  1.4890  1.1480  0.4176
   76CHL1  H27B 8103   6.652   0.535   8.663  0.2845 -0.9850  2.6556
   76CHL1  H27C 8104   6.758   0.661   8.721 -0.9869 -0.4219  0.8072
   77CHL1    C3 8105   0.575   6.240   6.897  0.9526 -0.0836  0.1482
   77CHL1    H3 8106   0.680   6.246   6.932  0.9991  0.9018 -0.1214
   77CHL1    O3 8107   0.576   6.236   6.754 -0.0039 -0.0170  0.9128
   77CHL1   H3' 8108   0.666   6.220   6.727  0.3180  1.9998  0.6593
   77CHL1    C4 8109   0.485   6.129   6.956  0.1446 -0.5365 -0.0965
   77CHL1   H4A 8110   0.390   6.141   6.899  1.1923 -1.5160 -2.1481
   77CHL1   H4B 8111   0.528   6.034   6.919  0.9283 -0.4959  0.6725
   77CHL1    C5 8112   0.487   6.146   7.107  0.6379  0.0525  0.2742
   77CHL1    C6 8113   0.537   6.050   7.188  0.6336  0.4781  0.5861
   77CHL1    H6 8114   0.580   5.966   7.132 -0.2539  1.3720 -1.5503
   77CHL1    C7 8115   0.537   6.060   7.338  0.2467  0.1447  0.3656
   77CHL1   H7A 8116   0.491   5.969   7.381  0.3626  0.2434  0.6971
   77CHL1   H7B 8117   0.638   6.082   7.377 -0.1449 -1.2378  2.3191
   77CHL1    C8 8118   0.445   6.168   7.392  0.4429 -1.2841  0.7111
   77CHL1    H8 8119   0.342   6.127   7.385  0.1745 -0.5017 -0.1714
   77CHL1   C14 8120   0.474   6.198   7.536  0.2501 -0.0224 -0.3622
   77CHL1   H14 8121   0.573   6.249   7.543  0.4130 -0.4014  0.2137
   77CHL1   C15 8122   0.476   6.082   7.638 -0.3810 -0.1939 -0.5890
   77CHL1  H15A 8123   0.398   6.004   7.626  0.8108 -1.3585 -1.0369
   77CHL1  H15B 8124   0.576   6.033   7.640  0.8684  2.1328 -1.4869
   77CHL1   C16 8125   0.457   6.153   7.779  0.0470  0.1788  0.4190
   77CHL1  H16A 8126   0.391   6.090   7.842  1.0713 -1.4724 -0.1108
   77CHL1  H16B 8127   0.553   6.156   7.835 -0.3775  0.5939  1.1365
   77CHL1   C17 8128   0.421   6.298   7.750  0.1748  0.3529 -0.0922
   77CHL1   H17 8129   0.521   6.343   7.736 -0.0057  0.8607  0.1753
   77CHL1   C13 8130   0.377   6.300   7.598 -0.0599  0.1961  0.1913
   77CHL1   C18 8131   0.228   6.256   7.600  0.1216  0.4713  0.2469
   77CHL1  H18A 8132   0.190   6.254   7.496  3.2341 -1.1745 -1.0058
   77CHL1  H18B 8133   0.213   6.157   7.648 -0.2637 -0.5309 -1.8322
   77CHL1  H18C 8134   0.166   6.333   7.651  0.3709  2.4912 -2.3035
   77CHL1   C12 8135   0.398   6.434   7.529  0.0183  0.0593  0.5010
   77CHL1  H12A 8136   0.324   6.514   7.549 -0.5706 -0.5789  0.8989
   77CHL1  H12B 8137   0.498   6.474   7.555  0.2932  0.4111 -0.9732
   77CHL1   C11 8138   0.371   6.427   7.376 -0.9351 -0.2441  0.0831
   77CHL1  H11A 8139   0.263   6.416   7.354 -0.8995  0.1403 -0.2918
   77CHL1  H11B 8140   0.412   6.520   7.331 -2.6302  0.7872  0.6067
   77CHL1    C9 8141   0.451   6.303   7.311  0.0529  0.7678 -0.3886
   77CHL1    H9 8142   0.560   6.316   7.328 -0.4126  1.3875  2.5889
   77CHL1   C10 8143   0.428   6.279   7.159 -0.2696  0.2554 -0.3475
   77CHL1   C19 8144   0.278   6.288   7.122 -0.8213  0.3800  0.1029
   77CHL1  H19A 8145   0.252   6.274   7.015  0.8849  2.2660 -0.6369
   77CHL1  H19B 8146   0.231   6.207   7.182 -0.9802  0.2707 -0.1696
   77CHL1  H19C 8147   0.229   6.383   7.155  0.1831  1.3991 -1.2600
   77CHL1    C1 8148   0.506   6.394   7.090 -0.9384 -0.3317 -0.1457
   77CHL1   H1A 8149   0.467   6.494   7.117  2.6279  1.1261  0.0838
   77CHL1   H1B 8150   0.608   6.390   7.135 -1.1964  0.2072  0.5094
   77CHL1    C2 8151   0.509   6.372   6.939  0.3062 -0.8084 -0.1779
   77CHL1   H2A 8152   0.576   6.450   6.897  0.2039 -1.1739 -1.0361
   77CHL1   H2B 8153   0.415   6.406   6.890 -0.0166  0.7122  1.3916
   77CHL1   C20 8154   0.346   6.381   7.862 -1.0307  0.4057  1.2110
   77CHL1   H20 8155   0.305   6.466   7.803  0.0782 -0.6734 -1.2742
   77CHL1   C21 8156   0.465   6.436   7.953  0.4337  0.3247  0.3121
   77CHL1  H21A 8157   0.430   6.505   8.033  1.7893 -1.0582  2.1817
   77CHL1  H21B 8158   0.544   6.485   7.892  0.2950  2.3793  1.6782
   77CHL1  H21C 8159   0.493   6.344   8.008 -3.2447 -0.5171  1.0171
   77CHL1   C22 8160   0.244   6.305   7.932 -0.4912  0.3627 -0.5110
   77CHL1  H22A 8161   0.169   6.267   7.860  0.2476 -4.5520  0.9626
   77CHL1  H22B 8162   0.290   6.218   7.984  2.2273  1.0170 -1.6204
   77CHL1   C23 8163   0.171   6.384   8.053  0.1702  0.0660 -0.2432
   77CHL1  H23A 8164   0.241   6.420   8.131  1.6218 -1.7006 -0.6609
   77CHL1  H23B 8165   0.132   6.479   8.012  0.4905  0.8589  1.2090
   77CHL1   C24 8166   0.072   6.302   8.137  0.5435 -0.1834 -0.2899
   77CHL1  H24A 8167   0.016   6.366   8.208 -0.1120 -0.7942 -0.2444
   77CHL1  H24B 8168  -0.002   6.261   8.064  0.3368  0.3015 -0.3521
   77CHL1   C25 8169   0.134   6.180   8.209 -0.2380 -0.0461  1.2759
   77CHL1   H25 8170   0.172   6.103   8.138 -1.4804 -1.3999  2.0359
   77CHL1   C26 8171   0.247   6.220   8.300 -0.1014  0.1164 -0.3714
   77CHL1  H26A 8172   0.219   6.309   8.360  1.8073  0.5833 -0.0906
   77CHL1  H26B 8173   0.268   6.149   8.383  1.5386 -0.1180 -0.9437
   77CHL1  H26C 8174   0.343   6.248   8.251  1.1597  1.1560  2.4997
   77CHL1   C27 8175   0.034   6.102   8.296 -0.2817  0.1313  0.4767
   77CHL1  H27A 8176  -0.009   6.162   8.379 -0.7757 -3.0057  2.6531
   77CHL1  H27B 8177  -0.038   6.072   8.218  0.4458  0.8875 -0.5226
   77CHL1  H27C 8178   0.081   6.016   8.349  0.1034  0.4082  0.5968
   78CHL1    C3 8179   2.081   4.122   6.732 -0.6409  0.7410 -0.1816
   78CHL1    H3 8180   2.159   4.044   6.748 -0.0761  0.8820 -1.9646
   78CHL1    O3 8181   2.040   4.130   6.592 -0.0620  0.5651  0.6379
   78CHL1   H3' 8182   1.945   4.146   6.589 -0.6352 -2.3468 -0.1406
   78CHL1    C4 8183   1.956   4.081   6.817  0.3148  0.0216 -0.1357
   78CHL1   H4A 8184   1.880   4.157   6.789 -0.4296 -0.8954 -0.6622
   78CHL1   H4B 8185   1.913   3.985   6.782  0.5391  0.1769 -0.8762
   78CHL1    C5 8186   1.995   4.089   6.964  0.3567 -1.0845 -0.0655
   78CHL1    C6 8187   1.975   3.990   7.047  0.2352  0.3091  0.4037
   78CHL1    H6 8188   1.928   3.898   7.009  0.3212  0.7159 -0.7327
   78CHL1    C7 8189   2.014   3.997   7.186  0.3490 -0.4143  0.1522
   78CHL1   H7A 8190   1.949   3.946   7.261 -0.1250 -1.0957 -0.7109
   78CHL1   H7B 8191   2.116   3.953   7.193  0.6996 -0.2946 -2.9875
   78CHL1    C8 8192   2.028   4.140   7.243  0.6496 -0.1323 -0.5809
   78CHL1    H8 8193   1.923   4.175   7.256  0.3401 -1.1035 -0.3457
   78CHL1   C14 8194   2.089   4.131   7.381  0.5612 -0.5411 -0.5032
   78CHL1   H14 8195   2.195   4.096   7.383  1.0249  0.7597 -0.9269
   78CHL1   C15 8196   2.016   4.046   7.496  0.7685  0.0261 -0.2410
   78CHL1  H15A 8197   1.907   4.065   7.489  0.5700 -0.9261  0.0603
   78CHL1  H15B 8198   2.029   3.937   7.476  1.0127  0.0434 -0.1794
   78CHL1   C16 8199   2.066   4.098   7.629  0.4443  0.0531  0.1618
   78CHL1  H16A 8200   1.976   4.128   7.688  0.7499 -1.0448  1.1990
   78CHL1  H16B 8201   2.125   4.021   7.682 -0.1718 -0.3800  0.2372
   78CHL1   C17 8202   2.140   4.234   7.597  0.6047  0.8224 -0.2300
   78CHL1   H17 8203   2.248   4.215   7.580  0.7335  2.6451 -1.7896
   78CHL1   C13 8204   2.099   4.270   7.449  0.6266  0.7037 -0.2048
   78CHL1   C18 8205   1.973   4.357   7.448 -0.4549  0.4199 -0.3293
   78CHL1  H18A 8206   2.001   4.455   7.493 -0.9952 -0.1936  1.3904
   78CHL1  H18B 8207   1.921   4.377   7.351  0.6520  2.9454 -0.4897
   78CHL1  H18C 8208   1.894   4.306   7.507 -2.7222  0.1153 -3.3733
   78CHL1   C12 8209   2.209   4.333   7.365  0.3783 -0.0987 -0.3298
   78CHL1  H12A 8210   2.250   4.427   7.408  0.7624  0.7046 -2.3717
   78CHL1  H12B 8211   2.296   4.265   7.357  0.2898 -0.6277  2.1416
   78CHL1   C11 8212   2.160   4.352   7.223  0.5939  0.0007 -0.1785
   78CHL1  H11A 8213   2.074   4.421   7.216 -0.6659 -1.4748  0.1426
   78CHL1  H11B 8214   2.235   4.412   7.167 -0.7864  1.1940 -0.8235
   78CHL1    C9 8215   2.117   4.218   7.152  0.3897 -0.4037  0.0525
   78CHL1    H9 8216   2.210   4.158   7.166  1.4110  1.0920 -0.1131
   78CHL1   C10 8217   2.063   4.227   7.012 -0.4203  0.6951  0.5048
   78CHL1   C19 8218   1.960   4.339   7.008  0.5716  0.5495  0.3819
   78CHL1  H19A 8219   1.895   4.328   7.098 -0.5537 -4.7607 -0.7089
   78CHL1  H19B 8220   2.012   4.436   7.015  1.6423 -0.0105  0.3727
   78CHL1  H19C 8221   1.876   4.333   6.935  2.0847  2.7052 -1.6904
   78CHL1    C1 8222   2.173   4.263   6.913  0.7170 -0.5554  0.4056
   78CHL1   H1A 8223   2.197   4.369   6.934 -0.5626  0.1188 -1.2380
   78CHL1   H1B 8224   2.249   4.184   6.930 -1.0802 -2.3278  0.5432
   78CHL1    C2 8225   2.130   4.265   6.769  0.1145  0.2669  0.3192
   78CHL1   H2A 8226   2.205   4.295   6.692 -1.1683 -0.9907 -1.5188
   78CHL1   H2B 8227   2.048   4.338   6.752 -0.1336 -0.1834 -0.4708
   78CHL1   C20 8228   2.129   4.339   7.708  0.1995  0.1349 -0.4332
   78CHL1   H20 8229   2.025   4.374   7.722 -0.0749 -1.4273  1.8952
   78CHL1   C21 8230   2.216   4.463   7.686  0.5621 -0.7240 -0.0011
   78CHL1  H21A 8231   2.320   4.444   7.650  1.1758  2.3592 -0.1329
   78CHL1  H21B 8232   2.210   4.528   7.776 -1.5130 -0.0943 -0.5412
   78CHL1  H21C 8233   2.169   4.515   7.600  1.4822  1.3003  0.6375
   78CHL1   C22 8234   2.156   4.271   7.849  0.1709 -0.6372 -0.0082
   78CHL1  H22A 8235   2.157   4.352   7.925  0.9863  0.3824 -1.0744
   78CHL1  H22B 8236   2.082   4.192   7.874 -0.9543 -0.1797 -1.6980
   78CHL1   C23 8237   2.301   4.217   7.853  0.0293 -0.2100 -0.4409
   78CHL1  H23A 8238   2.300   4.125   7.792 -0.0846 -1.2142  1.0202
   78CHL1  H23B 8239   2.377   4.288   7.814 -1.3241  0.7178 -1.4898
   78CHL1   C24 8240   2.339   4.172   8.001  1.3480 -0.0468 -0.7460
   78CHL1  H24A 8241   2.319   4.251   8.077  0.6046 -0.3075 -0.6680
   78CHL1  H24B 8242   2.256   4.107   8.034  2.4227 -0.8177  0.5564
   78CHL1   C25 8243   2.481   4.121   8.022  0.2322 -0.2674 -0.2266
   78CHL1   H25 8244   2.471   4.065   8.118 -0.4937 -0.4125 -0.3780
   78CHL1   C26 8245   2.519   4.025   7.916  0.2123  0.3740 -0.6182
   78CHL1  H26A 8246   2.453   3.936   7.908 -2.0336  1.9321 -0.2413
   78CHL1  H26B 8247   2.511   4.074   7.817  1.8879 -3.3574 -2.8431
   78CHL1  H26C 8248   2.624   3.989   7.923  1.3772  3.7197  3.0515
   78CHL1   C27 8249   2.577   4.238   8.024  0.1034 -0.1212 -0.7322
   78CHL1  H27A 8250   2.562   4.282   7.923  0.9754  1.0721 -0.3617
   78CHL1  H27B 8251   2.555   4.299   8.114 -2.7176 -1.7266 -0.1905
   78CHL1  H27C 8252   2.681   4.198   8.022  0.5723  0.8856  1.2712
   79CHL1    C3 8253   1.481   2.995   6.989 -0.3232  0.6700  0.0692
   79CHL1    H3 8254   1.375   2.974   6.961 -0.5059  0.5775  0.8271
   79CHL1    O3 8255   1.563   2.996   6.873  0.2651 -0.4713  0.7723
   79CHL1   H3' 8256   1.563   2.905   6.845  1.0559  0.5394 -3.1461
   79CHL1    C4 8257   1.485   3.121   7.069  0.5035  0.1416  0.3832
   79CHL1   H4A 8258   1.589   3.135   7.106  1.3191 -1.1896 -1.2706
   79CHL1   H4B 8259   1.461   3.212   7.011 -0.0040  0.6194  1.3180
   79CHL1    C5 8260   1.402   3.117   7.198  0.0473  0.0905 -0.0490
   79CHL1    C6 8261   1.311   3.210   7.224 -0.0468 -0.5257  0.4528
   79CHL1    H6 8262   1.289   3.285   7.146 -0.4943  0.3119  1.3572
   79CHL1    C7 8263   1.230   3.209   7.350 -0.0035  0.4476 -0.6810
   79CHL1   H7A 8264   1.233   3.316   7.377 -0.2745 -0.0736  1.5753
   79CHL1   H7B 8265   1.132   3.170   7.314  0.0842  0.1436 -0.5982
   79CHL1    C8 8266   1.286   3.123   7.456  0.1200  0.4758  0.4078
   79CHL1    H8 8267   1.376   3.170   7.502  1.3577  0.7931 -2.1476
   79CHL1   C14 8268   1.182   3.099   7.561 -0.3774  0.0422 -0.0873
   79CHL1   H14 8269   1.094   3.046   7.518 -0.0395 -0.8152  0.2742
   79CHL1   C15 8270   1.114   3.230   7.611  0.0117  0.3740 -0.8809
   79CHL1  H15A 8271   1.191   3.299   7.650 -0.9979  0.8064  0.4306
   79CHL1  H15B 8272   1.053   3.281   7.533  0.2614  0.8220 -0.7823
   79CHL1   C16 8273   1.040   3.180   7.740 -0.1567 -0.1762  1.2744
   79CHL1  H16A 8274   1.052   3.256   7.820  0.1383  1.3695 -0.2017
   79CHL1  H16B 8275   0.931   3.179   7.716 -0.4540 -0.7645  2.5355
   79CHL1   C17 8276   1.093   3.037   7.777 -0.4842  0.3619 -0.5309
   79CHL1   H17 8277   1.010   2.969   7.747 -0.3800  0.1135 -0.2546
   79CHL1   C13 8278   1.217   3.018   7.689 -0.2656 -0.0969  0.5006
   79CHL1   C18 8279   1.342   3.075   7.757 -0.1160  0.0978 -0.4228
   79CHL1  H18A 8280   1.330   3.182   7.786  4.3516  0.5950  0.3223
   79CHL1  H18B 8281   1.362   3.012   7.847 -0.4642 -0.3041 -0.6268
   79CHL1  H18C 8282   1.431   3.073   7.690 -0.3157 -0.2543 -0.6779
   79CHL1   C12 8283   1.254   2.884   7.626  0.3592  0.1664  0.2324
   79CHL1  H12A 8284   1.295   2.817   7.704  1.3778 -2.0112 -2.0268
   79CHL1  H12B 8285   1.162   2.844   7.578 -0.6691  2.8173 -0.1766
   79CHL1   C11 8286   1.363   2.882   7.516  0.5028  0.2435 -0.3563
   79CHL1  H11A 8287   1.455   2.916   7.569 -0.1322  1.1143  0.2208
   79CHL1  H11B 8288   1.379   2.779   7.477  0.6637  0.6090 -1.2601
   79CHL1    C9 8289   1.323   2.981   7.402 -0.2643  0.3430  0.4823
   79CHL1    H9 8290   1.229   2.939   7.359  1.0177 -1.4957 -0.7154
   79CHL1   C10 8291   1.432   2.995   7.288  0.8878  0.6568  0.0691
   79CHL1   C19 8292   1.576   3.018   7.352 -0.6217  0.3537 -0.2935
   79CHL1  H19A 8293   1.589   3.111   7.411  2.1678  1.0530 -1.8383
   79CHL1  H19B 8294   1.608   2.923   7.401  0.3715  0.5505 -0.5357
   79CHL1  H19C 8295   1.645   3.028   7.265 -1.8809 -0.0519 -1.3785
   79CHL1    C1 8296   1.431   2.864   7.199  0.2936 -0.7600  0.8148
   79CHL1   H1A 8297   1.472   2.782   7.262 -0.1426 -1.8028 -0.2124
   79CHL1   H1B 8298   1.323   2.843   7.179  0.0674 -1.8174  2.8385
   79CHL1    C2 8299   1.522   2.879   7.075  0.2016 -0.3077  0.1669
   79CHL1   H2A 8300   1.526   2.787   7.012 -0.4004 -0.2397  0.0329
   79CHL1   H2B 8301   1.623   2.895   7.119 -0.1279  1.4355  0.3379
   79CHL1   C20 8302   1.100   2.996   7.919 -0.0399  0.3114  0.0439
   79CHL1   H20 8303   1.184   3.041   7.976  0.4088  0.7845 -0.9567
   79CHL1   C21 8304   1.124   2.842   7.929  0.1865 -0.0374 -0.0819
   79CHL1  H21A 8305   1.095   2.793   8.025  0.9203  0.9409  0.6632
   79CHL1  H21B 8306   1.232   2.824   7.906  0.2588  1.1636 -0.7221
   79CHL1  H21C 8307   1.057   2.791   7.857  0.8307 -0.9198 -0.0787
   79CHL1   C22 8308   0.986   3.037   8.008  0.7374 -0.0726  0.2113
   79CHL1  H22A 8309   0.969   3.146   7.996  0.0065 -0.3485 -1.6867
   79CHL1  H22B 8310   0.898   2.975   7.980  1.3046 -0.6593 -0.3378
   79CHL1   C23 8311   1.015   3.026   8.158  0.1328 -0.3103 -0.3329
   79CHL1  H23A 8312   1.061   2.926   8.174 -1.3697 -1.0456 -0.4648
   79CHL1  H23B 8313   1.085   3.110   8.179 -0.4611 -0.1561  1.1536
   79CHL1   C24 8314   0.885   3.043   8.249 -0.5586  0.3190 -0.1104
   79CHL1  H24A 8315   0.811   3.110   8.201 -1.6459 -0.0022  1.0492
   79CHL1  H24B 8316   0.840   2.942   8.234 -1.5471  0.1530  3.1477
   79CHL1   C25 8317   0.908   3.096   8.392  0.1162  0.0520  0.5482
   79CHL1   H25 8318   0.993   3.034   8.428  0.3644 -1.6434 -2.5399
   79CHL1   C26 8319   0.953   3.242   8.395  0.1555 -0.6231  0.2920
   79CHL1  H26A 8320   0.992   3.271   8.494 -1.0011  3.1944 -0.2155
   79CHL1  H26B 8321   1.023   3.265   8.312 -0.8568 -1.2555 -0.7703
   79CHL1  H26C 8322   0.859   3.302   8.394 -0.9326 -2.2441  0.9013
   79CHL1   C27 8323   0.777   3.073   8.468 -0.0232 -0.0518  0.0230
   79CHL1  H27A 8324   0.754   2.966   8.486  0.1396 -0.1285 -0.2169
   79CHL1  H27B 8325   0.789   3.117   8.569 -0.1767  0.1209 -0.0327
   79CHL1  H27C 8326   0.687   3.110   8.413  1.3638 -0.5996 -2.8315
   80CHL1    C3 8327   1.631   5.658   6.861 -0.4034  0.0087  0.0173
   80CHL1    H3 8328   1.729   5.610   6.877 -0.7830 -0.3327  1.4205
   80CHL1    O3 8329   1.586   5.652   6.731 -0.2127  0.7067  0.0866
   80CHL1   H3' 8330   1.520   5.721   6.724 -1.0091 -0.0334  0.0213
   80CHL1    C4 8331   1.526   5.595   6.955 -0.3627 -0.7352 -0.0471
   80CHL1   H4A 8332   1.441   5.664   6.936  1.2635  0.4592 -3.9504
   80CHL1   H4B 8333   1.500   5.489   6.935  1.0324 -0.8145 -1.6822
   80CHL1    C5 8334   1.563   5.621   7.105 -0.0503  0.8846  0.1193
   80CHL1    C6 8335   1.583   5.517   7.193 -0.5727 -0.3469 -0.4956
   80CHL1    H6 8336   1.579   5.411   7.162  0.1755 -0.6496  0.3886
   80CHL1    C7 8337   1.632   5.535   7.336  0.1752 -0.6703 -0.0425
   80CHL1   H7A 8338   1.576   5.479   7.415  1.3878 -0.0115  1.3387
   80CHL1   H7B 8339   1.742   5.523   7.349 -0.3156 -2.9084  3.2619
   80CHL1    C8 8340   1.602   5.685   7.381 -0.3395 -0.1400 -0.4786
   80CHL1    H8 8341   1.493   5.697   7.395 -0.1152  2.5680 -0.4677
   80CHL1   C14 8342   1.674   5.702   7.514 -0.4962 -0.6441 -0.5852
   80CHL1   H14 8343   1.783   5.704   7.492  0.0114  2.5575  1.5937
   80CHL1   C15 8344   1.654   5.594   7.630 -0.6302  0.1956  0.2473
   80CHL1  H15A 8345   1.549   5.558   7.629 -0.3827 -0.5428 -0.9010
   80CHL1  H15B 8346   1.729   5.515   7.610 -1.2880 -0.3668 -0.0481
   80CHL1   C16 8347   1.705   5.669   7.755  0.1557 -1.1333  0.0283
   80CHL1  H16A 8348   1.623   5.688   7.827  1.0924 -0.0102  0.8302
   80CHL1  H16B 8349   1.794   5.630   7.809 -0.1732 -0.4390  1.0900
   80CHL1   C17 8350   1.743   5.817   7.703 -0.8658  0.1537 -0.0018
   80CHL1   H17 8351   1.846   5.809   7.663 -0.7810 -0.1253  0.2714
   80CHL1   C13 8352   1.661   5.843   7.577  0.6935 -0.0653  0.4792
   80CHL1   C18 8353   1.513   5.865   7.623 -0.3902  0.0937 -0.6683
   80CHL1  H18A 8354   1.433   5.839   7.550  0.1923 -2.3929 -0.4949
   80CHL1  H18B 8355   1.497   5.810   7.717 -0.4609  0.8265 -0.2442
   80CHL1  H18C 8356   1.500   5.975   7.638  2.1715  0.5173 -0.9542
   80CHL1   C12 8357   1.700   5.948   7.470 -0.2416 -0.0933 -0.5824
   80CHL1  H12A 8358   1.667   6.046   7.511  0.1149 -0.6748  1.1987
   80CHL1  H12B 8359   1.810   5.951   7.463 -0.0897 -3.8168 -1.8820
   80CHL1   C11 8360   1.643   5.928   7.333 -0.0714  0.4755 -0.1778
   80CHL1  H11A 8361   1.535   5.948   7.348 -0.2730 -1.0923  0.7324
   80CHL1  H11B 8362   1.676   6.001   7.256 -0.5743  0.7343 -0.1494
   80CHL1    C9 8363   1.653   5.789   7.277  0.5621 -0.3911 -0.3507
   80CHL1    H9 8364   1.761   5.772   7.260  0.5642 -1.9679  1.0384
   80CHL1   C10 8365   1.580   5.772   7.138 -0.0971 -0.3707  0.5268
   80CHL1   C19 8366   1.431   5.831   7.146 -0.2802  0.5395 -0.2513
   80CHL1  H19A 8367   1.388   5.837   7.044 -1.2504  0.0196  0.1080
   80CHL1  H19B 8368   1.369   5.769   7.214 -0.7176  0.3307 -0.8311
   80CHL1  H19C 8369   1.435   5.940   7.169  1.2056  0.4386  0.0508
   80CHL1    C1 8370   1.673   5.845   7.032  0.5704  0.5129  0.6547
   80CHL1   H1A 8371   1.661   5.954   7.047 -0.6072  0.4077  0.5713
   80CHL1   H1B 8372   1.774   5.807   7.055  0.8288  0.2422 -0.7932
   80CHL1    C2 8373   1.637   5.810   6.891 -0.0959  0.7137  0.5914
   80CHL1   H2A 8374   1.725   5.842   6.830  0.0517  0.8761  0.8886
   80CHL1   H2B 8375   1.543   5.859   6.859 -2.0238 -1.8826  1.8831
   80CHL1   C20 8376   1.740   5.923   7.805 -0.3308 -0.0355  0.6155
   80CHL1   H20 8377   1.639   5.970   7.808 -0.4658 -0.0878 -1.6633
   80CHL1   C21 8378   1.830   6.034   7.752  0.1803  0.6256  0.3642
   80CHL1  H21A 8379   1.934   5.995   7.737  0.9971  3.0901 -0.9022
   80CHL1  H21B 8380   1.847   6.116   7.826  2.7565  0.6909 -0.1963
   80CHL1  H21C 8381   1.790   6.088   7.664 -1.3117  0.1185  0.7053
   80CHL1   C22 8382   1.780   5.879   7.948  0.6905  0.3907  0.6791
   80CHL1  H22A 8383   1.698   5.809   7.976 -0.1666  1.0502 -0.0934
   80CHL1  H22B 8384   1.870   5.817   7.967  0.0770 -0.3759  1.1172
   80CHL1   C23 8385   1.768   5.988   8.055 -0.0019 -0.0089 -0.4216
   80CHL1  H23A 8386   1.860   6.049   8.043  0.7912 -1.2926 -1.0646
   80CHL1  H23B 8387   1.681   6.055   8.039  0.3276  0.7064  0.6769
   80CHL1   C24 8388   1.759   5.927   8.198  0.0881 -0.2298 -0.6170
   80CHL1  H24A 8389   1.724   5.821   8.196  1.0100 -0.6125  1.1370
   80CHL1  H24B 8390   1.861   5.923   8.241 -0.6044  0.3238  1.1668
   80CHL1   C25 8391   1.686   6.017   8.308  0.1870 -0.4859  0.1730
   80CHL1   H25 8392   1.587   6.057   8.279  1.3123  1.3891 -1.2972
   80CHL1   C26 8393   1.671   5.943   8.440 -0.2316  0.6032 -0.3284
   80CHL1  H26A 8394   1.639   6.009   8.523  3.4155  3.2240 -0.7877
   80CHL1  H26B 8395   1.600   5.857   8.436 -1.6316  1.7348 -0.6712
   80CHL1  H26C 8396   1.770   5.899   8.466 -0.5754  0.2678  0.4301
   80CHL1   C27 8397   1.782   6.130   8.335 -0.4547 -0.1543 -0.3594
   80CHL1  H27A 8398   1.798   6.196   8.247  2.7594 -0.7170 -0.3049
   80CHL1  H27B 8399   1.752   6.199   8.416  0.9948  0.1987 -0.0940
   80CHL1  H27C 8400   1.882   6.088   8.358  0.0216  1.5572  0.8407
   81CHL1    C3 8401   3.837   5.494   6.812  0.2956  0.7641 -0.3191
   81CHL1    H3 8402   3.749   5.445   6.859  0.7559  0.1411 -0.0921
   81CHL1    O3 8403   3.831   5.511   6.668 -0.6482  0.1484 -0.2558
   81CHL1   H3' 8404   3.898   5.577   6.649 -3.5859  3.1063 -1.3223
   81CHL1    C4 8405   3.845   5.635   6.871 -0.0607 -0.3454 -0.7336
   81CHL1   H4A 8406   3.941   5.681   6.842  2.3710 -3.3214  1.8439
   81CHL1   H4B 8407   3.766   5.704   6.834 -2.2297 -1.2035  1.9385
   81CHL1    C5 8408   3.850   5.641   7.020  0.3744 -0.1010  0.0531
   81CHL1    C6 8409   3.758   5.705   7.095  0.6406  1.4342  0.3391
   81CHL1    H6 8410   3.669   5.758   7.056  1.0188  1.1693 -0.9465
   81CHL1    C7 8411   3.769   5.710   7.243 -0.0008 -0.3996 -0.2916
   81CHL1   H7A 8412   3.758   5.817   7.269 -0.7980  0.5602 -3.9412
   81CHL1   H7B 8413   3.677   5.672   7.291 -1.3249  1.4362 -1.2499
   81CHL1    C8 8414   3.902   5.661   7.303 -0.0837  0.4732  0.1826
   81CHL1    H8 8415   3.982   5.736   7.287  0.9425 -1.0651 -2.5675
   81CHL1   C14 8416   3.883   5.636   7.455 -0.2041  0.6993  0.9561
   81CHL1   H14 8417   3.827   5.541   7.448  0.7355  0.2092 -0.4016
   81CHL1   C15 8418   3.806   5.739   7.544 -0.0795  0.2018 -0.0440
   81CHL1  H15A 8419   3.849   5.840   7.527  0.2857 -0.1060 -1.0537
   81CHL1  H15B 8420   3.699   5.725   7.520  0.3464 -1.2644 -1.2488
   81CHL1   C16 8421   3.839   5.694   7.681  0.1026 -0.0260 -0.1332
   81CHL1  H16A 8422   3.895   5.774   7.734  2.4515 -0.8487 -1.2292
   81CHL1  H16B 8423   3.755   5.670   7.750  0.4399  0.2171  0.3729
   81CHL1   C17 8424   3.939   5.577   7.675  0.6378 -0.0533  0.2057
   81CHL1   H17 8425   3.866   5.494   7.666 -0.2637  0.7836 -0.3695
   81CHL1   C13 8426   4.003   5.586   7.532 -0.8071 -0.0651  0.2981
   81CHL1   C18 8427   4.113   5.693   7.539 -0.5565  0.9247 -0.4734
   81CHL1  H18A 8428   4.205   5.644   7.579 -0.5606  0.6711 -0.7710
   81CHL1  H18B 8429   4.157   5.721   7.441  0.9902 -2.7468 -0.9998
   81CHL1  H18C 8430   4.088   5.784   7.596  0.9487  0.7366  0.5472
   81CHL1   C12 8431   4.054   5.459   7.461 -0.0396 -0.2833  0.3305
   81CHL1  H12A 8432   4.149   5.425   7.506 -0.5611 -0.9856  0.9338
   81CHL1  H12B 8433   3.975   5.383   7.482  0.4111 -0.6656  0.6640
   81CHL1   C11 8434   4.072   5.469   7.305 -0.6110  0.6436 -0.2770
   81CHL1  H11A 8435   4.162   5.533   7.290  1.0089 -1.0132  1.7329
   81CHL1  H11B 8436   4.088   5.373   7.252 -0.4026  1.8443 -2.5400
   81CHL1    C9 8437   3.950   5.533   7.233  0.5286 -0.6718 -0.1529
   81CHL1    H9 8438   3.864   5.464   7.245  0.3585 -0.0890  2.6321
   81CHL1   C10 8439   3.961   5.553   7.079 -0.4169 -0.0771 -0.1031
   81CHL1   C19 8440   4.096   5.624   7.054  0.5516 -0.1154  0.1762
   81CHL1  H19A 8441   4.102   5.720   7.111 -0.8240  0.2271 -0.2326
   81CHL1  H19B 8442   4.189   5.574   7.090  0.0066 -0.9576  0.4447
   81CHL1  H19C 8443   4.113   5.657   6.950  0.9424 -0.6085  0.0818
   81CHL1    C1 8444   3.960   5.408   7.006 -0.6463  0.4283  0.1484
   81CHL1   H1A 8445   4.044   5.343   7.038 -0.7858  0.7199  1.1459
   81CHL1   H1B 8446   3.868   5.358   7.045  0.0538 -0.3350  0.8517
   81CHL1    C2 8447   3.963   5.417   6.850  0.0924 -0.1053 -0.3708
   81CHL1   H2A 8448   3.953   5.317   6.804 -0.3962  0.3020 -1.1796
   81CHL1   H2B 8449   4.057   5.449   6.801 -0.2507 -2.0291 -2.4433
   81CHL1   C20 8450   4.024   5.531   7.800  0.0204  0.9885  0.3240
   81CHL1   H20 8451   4.129   5.565   7.785 -0.4474  1.9878 -0.8358
   81CHL1   C21 8452   4.031   5.378   7.797 -0.4447 -0.0384  0.0073
   81CHL1  H21A 8453   4.075   5.340   7.892 -0.0418  1.8681  0.6248
   81CHL1  H21B 8454   4.106   5.345   7.721  0.3737 -0.8033  1.1081
   81CHL1  H21C 8455   3.940   5.327   7.759  0.7366 -1.0702 -1.6059
   81CHL1   C22 8456   3.952   5.577   7.932 -0.1134 -0.2383  0.1983
   81CHL1  H22A 8457   3.960   5.687   7.939  3.1851 -0.4449  1.2225
   81CHL1  H22B 8458   3.847   5.540   7.930 -0.2333  0.1049  0.0133
   81CHL1   C23 8459   3.998   5.537   8.072  0.0957  0.3986 -0.7383
   81CHL1  H23A 8460   3.929   5.586   8.145 -1.6103 -1.9569 -0.6500
   81CHL1  H23B 8461   3.976   5.429   8.087  0.8450  0.4806  1.3931
   81CHL1   C24 8462   4.142   5.553   8.120  0.0630 -0.4784  0.2671
   81CHL1  H24A 8463   4.206   5.481   8.066  0.5759  0.3442 -0.2446
   81CHL1  H24B 8464   4.176   5.658   8.109 -0.6825 -0.2473  0.1101
   81CHL1   C25 8465   4.167   5.535   8.275  0.3516  0.2274  0.4747
   81CHL1   H25 8466   4.108   5.444   8.296 -0.7734  0.5589 -1.0677
   81CHL1   C26 8467   4.317   5.519   8.301 -0.4494 -0.2067 -0.1643
   81CHL1  H26A 8468   4.363   5.619   8.289 -1.5176  0.2654 -0.4383
   81CHL1  H26B 8469   4.336   5.484   8.405 -0.5080 -0.6613 -0.3032
   81CHL1  H26C 8470   4.350   5.447   8.224 -2.2188 -0.5795 -0.6178
   81CHL1   C27 8471   4.100   5.644   8.367  0.3231  0.0577  0.4087
   81CHL1  H27A 8472   4.128   5.622   8.473  1.0647  1.1574  0.4553
   81CHL1  H27B 8473   4.146   5.744   8.355  0.8525 -0.3907 -1.6545
   81CHL1  H27C 8474   3.990   5.648   8.361  0.3189  1.3463  1.0804
   82CHL1    C3 8475   3.764   1.327   6.914  0.2248 -0.1409  0.4731
   82CHL1    H3 8476   3.844   1.402   6.899 -0.0219 -0.1121 -0.7535
   82CHL1    O3 8477   3.743   1.243   6.801 -0.2276 -0.3174  0.1778
   82CHL1   H3' 8478   3.655   1.210   6.824  0.4469 -3.1788 -0.8770
   82CHL1    C4 8479   3.802   1.235   7.028  0.3463 -0.9043 -0.4275
   82CHL1   H4A 8480   3.728   1.152   7.031 -0.9491  0.1695 -1.1872
   82CHL1   H4B 8481   3.887   1.173   6.991 -0.1518 -1.6209 -0.3893
   82CHL1    C5 8482   3.812   1.306   7.167 -0.7478  0.4019 -0.0572
   82CHL1    C6 8483   3.924   1.317   7.243  0.0141 -0.5581 -0.1350
   82CHL1    H6 8484   4.009   1.249   7.226  1.6509  1.3842  0.0678
   82CHL1    C7 8485   3.915   1.383   7.375  0.8128  0.1748 -0.4759
   82CHL1   H7A 8486   3.969   1.319   7.448  0.9494  1.0808  0.2337
   82CHL1   H7B 8487   3.969   1.480   7.374 -0.7435  1.0738 -1.1998
   82CHL1    C8 8488   3.775   1.411   7.439  0.4841  0.2861 -0.0189
   82CHL1    H8 8489   3.727   1.317   7.476  4.5966 -3.1537 -2.5273
   82CHL1   C14 8490   3.780   1.508   7.556 -0.2250  0.1534  0.2563
   82CHL1   H14 8491   3.831   1.598   7.517  0.7711 -1.6602 -2.9403
   82CHL1   C15 8492   3.863   1.461   7.680  0.0288 -0.2146  0.3922
   82CHL1  H15A 8493   3.823   1.367   7.723 -1.5064  0.2540  0.0564
   82CHL1  H15B 8494   3.972   1.465   7.661 -0.0058 -0.0984  0.2126
   82CHL1   C16 8495   3.825   1.573   7.780 -0.3452 -0.3925 -0.2407
   82CHL1  H16A 8496   3.826   1.530   7.882  2.1263  1.1539  0.4878
   82CHL1  H16B 8497   3.900   1.656   7.781 -1.1840  0.3742  0.4234
   82CHL1   C17 8498   3.690   1.634   7.738  0.6676  0.1713  0.4096
   82CHL1   H17 8499   3.706   1.737   7.700 -2.0736  0.5672  0.1342
   82CHL1   C13 8500   3.643   1.546   7.614 -0.6741 -0.3223 -0.4467
   82CHL1   C18 8501   3.566   1.422   7.670 -0.5418  0.2716 -0.3551
   82CHL1  H18A 8502   3.465   1.440   7.712  0.0250 -3.2364  3.1939
   82CHL1  H18B 8503   3.562   1.338   7.598 -0.8718  1.6071 -1.9610
   82CHL1  H18C 8504   3.624   1.385   7.758  0.3526  1.4223 -0.4348
   82CHL1   C12 8505   3.566   1.620   7.498  0.7535 -0.2069 -0.4253
   82CHL1  H12A 8506   3.468   1.659   7.533  0.6050 -1.3000  0.4438
   82CHL1  H12B 8507   3.621   1.710   7.465 -1.9209  1.3595 -0.8721
   82CHL1   C11 8508   3.551   1.530   7.375  0.1091  0.1681  0.0064
   82CHL1  H11A 8509   3.471   1.457   7.398  1.5777 -1.3498  0.4835
   82CHL1  H11B 8510   3.507   1.587   7.289 -1.5451 -0.3530  0.4746
   82CHL1    C9 8511   3.686   1.462   7.328  0.5616 -0.7487 -0.2615
   82CHL1    H9 8512   3.732   1.556   7.292 -1.1348  1.2023  2.2996
   82CHL1   C10 8513   3.682   1.377   7.205 -0.4130 -0.0658  0.2868
   82CHL1   C19 8514   3.578   1.268   7.220  0.1179  0.7056  0.4119
   82CHL1  H19A 8515   3.618   1.198   7.296  2.1055 -0.1185 -1.3188
   82CHL1  H19B 8516   3.481   1.315   7.250  0.3923  3.0676 -2.0595
   82CHL1  H19C 8517   3.560   1.205   7.131 -1.2991 -1.3063  2.0141
   82CHL1    C1 8518   3.652   1.472   7.080 -0.5669  0.1284  0.1897
   82CHL1   H1A 8519   3.557   1.529   7.086 -1.2540 -0.8074 -1.0652
   82CHL1   H1B 8520   3.738   1.541   7.066 -2.0819  1.5986 -3.0920
   82CHL1    C2 8521   3.642   1.409   6.943 -0.0806  0.2827 -0.2171
   82CHL1   H2A 8522   3.651   1.483   6.860  1.1879  0.8888  0.4346
   82CHL1   H2B 8523   3.545   1.357   6.933  0.8321 -1.4416 -0.5972
   82CHL1   C20 8524   3.588   1.654   7.855 -1.2331  1.0009  0.9117
   82CHL1   H20 8525   3.564   1.553   7.894 -2.0073  1.1963  0.9549
   82CHL1   C21 8526   3.459   1.730   7.811  0.2060 -0.7722  0.3827
   82CHL1  H21A 8527   3.402   1.690   7.725 -0.1424 -0.9449  0.6940
   82CHL1  H21B 8528   3.465   1.835   7.775 -2.0716 -0.5389  0.5854
   82CHL1  H21C 8529   3.382   1.722   7.890  0.0602  0.0172  0.3279
   82CHL1   C22 8530   3.649   1.738   7.968 -0.4454  0.5775 -0.5176
   82CHL1  H22A 8531   3.723   1.667   8.010 -0.7672 -0.1828 -1.2246
   82CHL1  H22B 8532   3.699   1.831   7.932  0.3669  0.2521 -0.2656
   82CHL1   C23 8533   3.547   1.778   8.070  0.6537 -0.5673  0.0317
   82CHL1  H23A 8534   3.485   1.866   8.041  0.5281 -0.6662 -0.0013
   82CHL1  H23B 8535   3.482   1.689   8.083  0.8380 -0.8760 -1.0730
   82CHL1   C24 8536   3.616   1.815   8.205 -0.2884 -0.7468  0.9212
   82CHL1  H24A 8537   3.707   1.754   8.225  0.8559  0.2767 -0.9233
   82CHL1  H24B 8538   3.637   1.923   8.194  0.0573 -0.7614  1.4025
   82CHL1   C25 8539   3.525   1.789   8.325 -0.3511 -0.5494  0.2267
   82CHL1   H25 8540   3.428   1.840   8.309 -0.6189 -0.3669  2.2058
   82CHL1   C26 8541   3.495   1.641   8.354 -0.0513 -0.0713 -0.7813
   82CHL1  H26A 8542   3.592   1.588   8.366  0.6473  0.9953 -1.5504
   82CHL1  H26B 8543   3.432   1.620   8.442 -1.1386  2.9139 -0.7536
   82CHL1  H26C 8544   3.441   1.593   8.270 -1.8542  1.4009 -0.5163
   82CHL1   C27 8545   3.578   1.860   8.451 -0.3572  0.4647  0.4269
   82CHL1  H27A 8546   3.505   1.858   8.535  0.5969  3.0294  1.4361
   82CHL1  H27B 8547   3.679   1.825   8.482  0.2238  0.5498 -1.2571
   82CHL1  H27C 8548   3.585   1.969   8.429  1.4791  0.4398  0.7573
   83CHL1    C3 8549   2.674   2.393   6.797 -0.7561  0.5246  1.2658
   83CHL1    H3 8550   2.583   2.337   6.826 -0.5774  0.5069  1.8181
   83CHL1    O3 8551   2.702   2.378   6.660 -0.0865 -0.3924  0.6331
   83CHL1   H3' 8552   2.787   2.338   6.639 -0.4908 -0.6226 -0.5895
   83CHL1    C4 8553   2.646   2.541   6.818 -0.3803  0.1801 -0.2601
   83CHL1   H4A 8554   2.726   2.588   6.757  0.2484 -2.8996 -2.0100
   83CHL1   H4B 8555   2.550   2.543   6.762  0.1454 -1.9544 -1.3480
   83CHL1    C5 8556   2.635   2.570   6.967 -0.3059 -0.0952  1.0011
   83CHL1    C6 8557   2.529   2.636   7.014  0.3169 -0.4796  0.0846
   83CHL1    H6 8558   2.463   2.672   6.934  1.3652 -1.1088 -1.0945
   83CHL1    C7 8559   2.517   2.671   7.162  0.1542  0.0099  0.7863
   83CHL1   H7A 8560   2.490   2.776   7.188  0.6693  0.2474  0.3946
   83CHL1   H7B 8561   2.438   2.613   7.215 -0.3610 -0.5020 -0.4917
   83CHL1    C8 8562   2.641   2.652   7.250 -0.5455 -0.1769 -0.4310
   83CHL1    H8 8563   2.707   2.736   7.220 -0.1982 -0.5031 -0.5856
   83CHL1   C14 8564   2.607   2.669   7.396 -0.3940  0.5982  0.1906
   83CHL1   H14 8565   2.531   2.589   7.410  0.8707 -0.4190  1.6108
   83CHL1   C15 8566   2.529   2.796   7.446 -0.5880 -0.1114  0.2291
   83CHL1  H15A 8567   2.578   2.885   7.400  0.7896  0.6055  2.8747
   83CHL1  H15B 8568   2.421   2.793   7.423 -0.1628 -1.0408 -2.0279
   83CHL1   C16 8569   2.547   2.783   7.602 -0.3997 -0.3783 -0.1891
   83CHL1  H16A 8570   2.591   2.882   7.627 -0.0254 -0.8272  0.9928
   83CHL1  H16B 8571   2.451   2.772   7.657  0.2166 -2.4751  0.5635
   83CHL1   C17 8572   2.629   2.660   7.630  0.1465 -0.3352 -0.4570
   83CHL1   H17 8573   2.564   2.571   7.615 -0.1553  0.0926 -1.8254
   83CHL1   C13 8574   2.715   2.646   7.506 -0.8821 -0.8989 -0.1677
   83CHL1   C18 8575   2.820   2.753   7.507  0.2665  0.1026  0.4570
   83CHL1  H18A 8576   2.915   2.741   7.563 -0.3203 -3.2987  0.9694
   83CHL1  H18B 8577   2.856   2.767   7.402 -0.6771  0.3956  0.1585
   83CHL1  H18C 8578   2.769   2.847   7.534 -1.3495 -0.7819  0.5843
   83CHL1   C12 8579   2.775   2.508   7.463 -0.0405 -0.2003 -0.6461
   83CHL1  H12A 8580   2.868   2.489   7.521  0.8133  0.9379 -1.5894
   83CHL1  H12B 8581   2.701   2.430   7.489 -0.5905  0.0916 -1.3249
   83CHL1   C11 8582   2.808   2.493   7.313 -0.5152 -0.0022  0.0837
   83CHL1  H11A 8583   2.894   2.560   7.290 -0.3601 -0.1970  0.0938
   83CHL1  H11B 8584   2.840   2.388   7.295 -0.9834 -0.0547 -0.4831
   83CHL1    C9 8585   2.699   2.521   7.212  0.0818  0.0598 -0.0957
   83CHL1    H9 8586   2.627   2.438   7.228  0.2780 -0.0177  0.3940
   83CHL1   C10 8587   2.741   2.511   7.062 -0.4305  0.3154 -0.4902
   83CHL1   C19 8588   2.878   2.584   7.048  0.0357  0.0747 -0.7116
   83CHL1  H19A 8589   2.910   2.599   6.943  2.0339 -1.0197 -0.3010
   83CHL1  H19B 8590   2.868   2.682   7.100 -0.6897  2.0444 -4.2541
   83CHL1  H19C 8591   2.956   2.525   7.099 -0.8560  0.5565  1.3144
   83CHL1    C1 8592   2.766   2.363   7.030  0.3429  0.1880  0.0129
   83CHL1   H1A 8593   2.853   2.331   7.091 -0.3680 -0.7977  0.5445
   83CHL1   H1B 8594   2.669   2.317   7.058 -1.3271  2.4995 -1.6457
   83CHL1    C2 8595   2.785   2.330   6.881 -0.2525  0.0367 -0.3162
   83CHL1   H2A 8596   2.769   2.221   6.862  0.1635 -0.1751  0.4906
   83CHL1   H2B 8597   2.885   2.367   6.850  0.4404 -1.8802 -0.5617
   83CHL1   C20 8598   2.715   2.647   7.762  0.5113 -0.2873 -0.1974
   83CHL1   H20 8599   2.816   2.613   7.731  1.0803  0.8931  0.2628
   83CHL1   C21 8600   2.656   2.518   7.833 -0.3172  0.2604  0.0810
   83CHL1  H21A 8601   2.701   2.429   7.785  0.8735  0.5431  0.6323
   83CHL1  H21B 8602   2.545   2.515   7.825 -0.3427  0.6032  0.2908
   83CHL1  H21C 8603   2.684   2.527   7.940 -2.6269  0.3698  0.7291
   83CHL1   C22 8604   2.722   2.767   7.852 -0.2366  0.0529 -0.3276
   83CHL1  H22A 8605   2.771   2.845   7.790  2.1310 -1.7998 -0.9231
   83CHL1  H22B 8606   2.627   2.800   7.901 -0.6305 -2.2344  0.5758
   83CHL1   C23 8607   2.824   2.744   7.961 -0.2991  0.0720 -0.3189
   83CHL1  H23A 8608   2.798   2.666   8.035  1.8893 -0.2037  0.2359
   83CHL1  H23B 8609   2.917   2.712   7.909 -0.4017  0.3354 -0.6721
   83CHL1   C24 8610   2.863   2.876   8.034 -0.0078  0.6232 -0.4484
   83CHL1  H24A 8611   2.942   2.856   8.110  0.8453 -0.0616 -1.4863
   83CHL1  H24B 8612   2.896   2.949   7.957 -1.1153 -0.8628 -2.4319
   83CHL1   C25 8613   2.747   2.961   8.095  0.2328  0.6698  0.2828
   83CHL1   H25 8614   2.669   2.983   8.019  0.0090 -0.1235  0.2723
   83CHL1   C26 8615   2.673   2.889   8.206  0.4909  0.0228 -0.0535
   83CHL1  H26A 8616   2.739   2.866   8.293 -0.3153  0.6269  0.7381
   83CHL1  H26B 8617   2.584   2.945   8.242  1.5993  1.4937  0.4850
   83CHL1  H26C 8618   2.629   2.795   8.166  2.0338 -0.9749  0.4920
   83CHL1   C27 8619   2.807   3.094   8.142  0.6246 -0.0502  0.0288
   83CHL1  H27A 8620   2.869   3.086   8.233  1.3528 -0.1152 -0.4606
   83CHL1  H27B 8621   2.875   3.134   8.062  0.4077 -0.9916 -0.6375
   83CHL1  H27C 8622   2.721   3.158   8.172  1.0194  0.7978 -0.5816
   84CHL1    C3 8623   4.928   5.106   6.751  0.2702 -0.4762  0.2776
   84CHL1    H3 8624   4.881   5.005   6.749 -0.2957 -0.2249 -2.3579
   84CHL1    O3 8625   4.999   5.124   6.630  0.5663 -0.1294 -0.1397
   84CHL1   H3' 8626   4.933   5.139   6.562 -0.5505  1.6833  1.2344
   84CHL1    C4 8627   4.815   5.213   6.757 -0.6107  0.2884  0.5175
   84CHL1   H4A 8628   4.868   5.309   6.744 -1.0866  0.6422  1.1542
   84CHL1   H4B 8629   4.745   5.199   6.672 -0.9737 -0.0260  0.8595
   84CHL1    C5 8630   4.744   5.209   6.895 -0.4678  0.3668 -0.0524
   84CHL1    C6 8631   4.608   5.203   6.908 -0.5551  0.2401  0.0678
   84CHL1    H6 8632   4.540   5.200   6.822 -0.5656 -0.3287  0.0952
   84CHL1    C7 8633   4.531   5.207   7.039  0.1075  0.3627 -0.3673
   84CHL1   H7A 8634   4.439   5.267   7.026 -0.8291 -0.7809  0.7288
   84CHL1   H7B 8635   4.506   5.102   7.065 -0.5054  0.6674  0.3173
   84CHL1    C8 8636   4.623   5.253   7.159  0.1091  0.4825 -0.2567
   84CHL1    H8 8637   4.649   5.360   7.143  2.8708 -0.0971 -0.1562
   84CHL1   C14 8638   4.565   5.234   7.304  0.0253  0.1495 -0.3050
   84CHL1   H14 8639   4.541   5.126   7.311 -0.3141  0.2182 -0.3935
   84CHL1   C15 8640   4.433   5.315   7.339 -0.3848  0.4026 -0.0448
   84CHL1  H15A 8641   4.432   5.418   7.296 -3.1101 -0.3406 -1.9912
   84CHL1  H15B 8642   4.339   5.262   7.314 -0.1461 -0.7255  1.3634
   84CHL1   C16 8643   4.427   5.330   7.495 -0.0163 -0.4480  0.3448
   84CHL1  H16A 8644   4.410   5.435   7.530 -1.3387 -0.1936 -0.9326
   84CHL1  H16B 8645   4.349   5.268   7.545 -1.9831  0.7598 -1.0564
   84CHL1   C17 8646   4.561   5.260   7.535  0.0215  0.4846 -0.1997
   84CHL1   H17 8647   4.543   5.151   7.543 -1.2962  0.5429 -1.8170
   84CHL1   C13 8648   4.654   5.272   7.418  0.2413  1.2208 -0.5657
   84CHL1   C18 8649   4.706   5.414   7.407 -0.0004 -0.6366 -0.0439
   84CHL1  H18A 8650   4.740   5.440   7.305 -0.2140 -0.7264 -0.1386
   84CHL1  H18B 8651   4.625   5.481   7.444 -0.4250 -0.5913 -1.0351
   84CHL1  H18C 8652   4.793   5.422   7.476 -0.0156 -2.6472  0.2829
   84CHL1   C12 8653   4.771   5.176   7.410 -0.8095  0.3405 -0.0205
   84CHL1  H12A 8654   4.842   5.193   7.493 -0.4166 -2.3039  0.2916
   84CHL1  H12B 8655   4.733   5.071   7.420  1.4252 -0.5706 -0.6255
   84CHL1   C11 8656   4.849   5.192   7.283  0.4061  0.2616  0.0732
   84CHL1  H11A 8657   4.892   5.294   7.277 -1.1102  0.8800 -0.7423
   84CHL1  H11B 8658   4.936   5.124   7.272  1.3687  1.7946 -2.7402
   84CHL1    C9 8659   4.760   5.174   7.152 -0.6773  0.2598 -0.6367
   84CHL1    H9 8660   4.728   5.068   7.145 -0.1140  0.1253 -1.2446
   84CHL1   C10 8661   4.838   5.210   7.018 -0.5905 -0.2890  0.3014
   84CHL1   C19 8662   4.889   5.358   7.020  0.3539 -0.6911 -0.3327
   84CHL1  H19A 8663   4.964   5.383   7.098 -1.4457  2.3532  0.6117
   84CHL1  H19B 8664   4.944   5.392   6.929 -0.0769 -1.3602 -0.8576
   84CHL1  H19C 8665   4.805   5.426   7.046 -0.1804 -1.7931  0.9075
   84CHL1    C1 8666   4.957   5.116   7.005 -0.0072 -0.5616  0.0460
   84CHL1   H1A 8667   5.031   5.150   7.081  0.6686 -0.8514 -0.4773
   84CHL1   H1B 8668   4.929   5.011   7.030  1.8706 -1.6365 -2.0278
   84CHL1    C2 8669   5.026   5.120   6.865 -1.2424  0.4296 -0.4728
   84CHL1   H2A 8670   5.100   5.037   6.864  0.3121  1.6683  2.0136
   84CHL1   H2B 8671   5.081   5.216   6.862  0.4728 -0.5522 -1.4796
   84CHL1   C20 8672   4.607   5.296   7.674  0.0596  0.8668 -0.5459
   84CHL1   H20 8673   4.714   5.266   7.684  0.0450 -0.0212 -2.5509
   84CHL1   C21 8674   4.514   5.225   7.768 -0.0380  0.5891 -0.4672
   84CHL1  H21A 8675   4.424   5.290   7.778 -0.1461  0.1247  2.4306
   84CHL1  H21B 8676   4.569   5.224   7.864  1.1955 -0.5813 -1.1451
   84CHL1  H21C 8677   4.489   5.119   7.745 -1.2972  0.8006 -0.1617
   84CHL1   C22 8678   4.603   5.450   7.719 -0.0984  0.3984  0.0099
   84CHL1  H22A 8679   4.629   5.518   7.635  2.3974  1.3239  1.4191
   84CHL1  H22B 8680   4.504   5.488   7.751 -0.0466  0.1870  0.4429
   84CHL1   C23 8681   4.706   5.474   7.827  0.3824 -0.2487  0.2559
   84CHL1  H23A 8682   4.696   5.404   7.913  1.2906 -0.1053  0.4845
   84CHL1  H23B 8683   4.809   5.460   7.789  0.5072  1.4138 -0.0904
   84CHL1   C24 8684   4.690   5.616   7.882  0.5897  0.6367 -0.0197
   84CHL1  H24A 8685   4.670   5.680   7.794 -0.2004 -0.0156 -0.3261
   84CHL1  H24B 8686   4.596   5.617   7.942  0.0965 -1.5397 -0.6594
   84CHL1   C25 8687   4.804   5.678   7.966  0.0508 -0.0002  0.3450
   84CHL1   H25 8688   4.886   5.682   7.892 -0.1005 -3.9963 -0.2837
   84CHL1   C26 8689   4.779   5.820   8.024 -1.2207  0.3272  0.1050
   84CHL1  H26A 8690   4.857   5.834   8.103 -0.3556  0.6633 -0.7879
   84CHL1  H26B 8691   4.785   5.902   7.949  0.1308 -0.1219 -0.3148
   84CHL1  H26C 8692   4.678   5.808   8.069 -0.3968 -0.0751  1.9382
   84CHL1   C27 8693   4.849   5.588   8.074 -0.2060 -0.0425  0.1859
   84CHL1  H27A 8694   4.771   5.552   8.145 -1.4780  0.6973 -0.7793
   84CHL1  H27B 8695   4.890   5.494   8.031  1.9330  0.5492  0.8030
   84CHL1  H27C 8696   4.929   5.638   8.132  1.1978  0.9239 -2.4425
   85CHL1    C3 8697   2.260   3.113   6.904  0.0379 -0.0127 -0.3728
   85CHL1    H3 8698   2.358   3.087   6.949 -0.3966  0.7761  1.1102
   85CHL1    O3 8699   2.284   3.122   6.766  0.2963 -0.7049  0.0617
   85CHL1   H3' 8700   2.237   3.045   6.732  0.1502 -1.0071  0.9272
   85CHL1    C4 8701   2.167   2.997   6.947 -0.8747 -0.2891 -0.2140
   85CHL1   H4A 8702   2.074   3.022   6.892 -0.4553 -0.2969 -0.9525
   85CHL1   H4B 8703   2.214   2.903   6.911 -0.6512 -1.0374  1.9010
   85CHL1    C5 8704   2.148   2.998   7.097 -0.0664 -0.2777 -0.5561
   85CHL1    C6 8705   2.170   2.893   7.178  0.1727 -0.0734  0.1630
   85CHL1    H6 8706   2.195   2.796   7.134  0.1759 -0.2314  0.5040
   85CHL1    C7 8707   2.145   2.895   7.326 -0.1315 -0.5324 -0.0001
   85CHL1   H7A 8708   2.096   2.801   7.361 -1.1938  0.0534  0.1274
   85CHL1   H7B 8709   2.247   2.910   7.366 -0.4434 -1.3580  1.1573
   85CHL1    C8 8710   2.054   3.013   7.374  0.0473 -0.4108 -0.5266
   85CHL1    H8 8711   1.946   3.000   7.352  0.4166 -0.5717 -2.4235
   85CHL1   C14 8712   2.090   3.045   7.522  0.2150 -0.4426 -0.4742
   85CHL1   H14 8713   2.194   3.084   7.524  1.0396 -2.4297  1.9640
   85CHL1   C15 8714   2.092   2.921   7.621  0.4884  0.1237  1.2122
   85CHL1  H15A 8715   2.016   2.845   7.592  0.9127  0.0422  0.2522
   85CHL1  H15B 8716   2.196   2.883   7.624  0.5538  0.1798  0.2233
   85CHL1   C16 8717   2.067   2.991   7.760 -0.5843  0.7711 -0.1854
   85CHL1  H16A 8718   1.973   2.946   7.799 -0.3805  0.3898 -0.1227
   85CHL1  H16B 8719   2.150   2.965   7.829 -1.0298  2.4677  1.0525
   85CHL1   C17 8720   2.054   3.139   7.740  0.6667 -0.0080  0.5711
   85CHL1   H17 8721   2.154   3.187   7.734  0.6405  0.2580  1.9885
   85CHL1   C13 8722   2.008   3.152   7.591  0.5388  0.3660  1.2232
   85CHL1   C18 8723   1.860   3.119   7.590  0.0872 -0.0490  0.8515
   85CHL1  H18A 8724   1.804   3.198   7.644 -0.6234 -0.0067  0.0751
   85CHL1  H18B 8725   1.826   3.119   7.484 -1.1552 -3.5327  1.1284
   85CHL1  H18C 8726   1.839   3.018   7.630  0.9569 -1.6049 -2.3006
   85CHL1   C12 8727   2.032   3.282   7.511 -0.1949 -0.5492  0.1278
   85CHL1  H12A 8728   1.962   3.359   7.549  0.2247  0.5817 -1.3245
   85CHL1  H12B 8729   2.131   3.322   7.539  0.0259 -0.1634 -1.1800
   85CHL1   C11 8730   2.011   3.263   7.365 -0.2495  0.6742  0.5900
   85CHL1  H11A 8731   1.901   3.251   7.355 -0.2535 -0.5894  1.9519
   85CHL1  H11B 8732   2.052   3.353   7.313 -0.0962  1.0092  1.2882
   85CHL1    C9 8733   2.093   3.145   7.302 -0.1323  0.0023  0.5887
   85CHL1    H9 8734   2.199   3.161   7.330  0.2852 -1.3340 -0.1237
   85CHL1   C10 8735   2.096   3.138   7.149  0.3370 -0.2942  0.2964
   85CHL1   C19 8736   1.948   3.160   7.098 -0.5519 -0.6057  0.4156
   85CHL1  H19A 8737   1.907   3.255   7.139  0.5607  0.2898 -0.4998
   85CHL1  H19B 8738   1.951   3.168   6.987 -1.8542 -0.4052  0.3746
   85CHL1  H19C 8739   1.893   3.071   7.136  1.4532 -2.0289  0.1441
   85CHL1    C1 8740   2.186   3.252   7.089  0.0342  0.1157  0.6030
   85CHL1   H1A 8741   2.122   3.342   7.106 -0.6313 -0.2916  0.3122
   85CHL1   H1B 8742   2.280   3.246   7.147  0.0745  2.2645  0.8271
   85CHL1    C2 8743   2.203   3.248   6.936 -0.0249  0.4115  0.1888
   85CHL1   H2A 8744   2.284   3.324   6.925  0.3476 -0.0347 -0.1898
   85CHL1   H2B 8745   2.105   3.278   6.893 -0.1717  0.4978  0.5808
   85CHL1   C20 8746   1.979   3.214   7.850  0.0578  0.0556 -0.3730
   85CHL1   H20 8747   1.870   3.196   7.838  0.0477 -0.5286  0.4856
   85CHL1   C21 8748   1.995   3.365   7.836 -0.1333 -0.7529 -0.3501
   85CHL1  H21A 8749   2.100   3.379   7.803  0.4131 -2.0892  0.7257
   85CHL1  H21B 8750   1.974   3.417   7.932 -1.9841 -2.1528  0.0473
   85CHL1  H21C 8751   1.931   3.406   7.755 -0.3388 -0.0940  0.1387
   85CHL1   C22 8752   2.019   3.172   7.992  0.2044 -0.0173  0.2664
   85CHL1  H22A 8753   1.958   3.215   8.074  1.7352  2.5319  0.1754
   85CHL1  H22B 8754   2.005   3.062   7.996  2.6192 -0.4920 -2.0552
   85CHL1   C23 8755   2.169   3.212   8.041  0.0705 -0.1920 -0.5775
   85CHL1  H23A 8756   2.242   3.171   7.969  0.7170  2.5840 -1.6292
   85CHL1  H23B 8757   2.189   3.321   8.043  1.5063 -0.4083  2.1552
   85CHL1   C24 8758   2.195   3.156   8.180 -0.2099 -0.4821 -0.9616
   85CHL1  H24A 8759   2.096   3.161   8.230  0.5620  0.5265  0.5424
   85CHL1  H24B 8760   2.234   3.052   8.181 -0.9352 -0.7653  0.2707
   85CHL1   C25 8761   2.285   3.250   8.262  0.5936  0.2597  0.8247
   85CHL1   H25 8762   2.241   3.351   8.251 -1.9256 -0.9709 -1.6331
   85CHL1   C26 8763   2.288   3.193   8.405  0.2198 -0.5615 -0.4648
   85CHL1  H26A 8764   2.340   3.095   8.410 -0.7109 -1.0108  1.5489
   85CHL1  H26B 8765   2.345   3.262   8.470 -0.2205 -0.3721 -0.2710
   85CHL1  H26C 8766   2.186   3.184   8.448 -0.0119  2.0508 -0.3356
   85CHL1   C27 8767   2.421   3.230   8.202 -0.0446  0.3883  0.3696
   85CHL1  H27A 8768   2.493   3.284   8.268  0.1633 -1.0342  1.3527
   85CHL1  H27B 8769   2.462   3.127   8.201 -0.5237  0.0803  3.0824
   85CHL1  H27C 8770   2.430   3.281   8.104 -2.9264 -0.7053 -0.5685
   86CHL1    C3 8771   5.319   0.936   6.478 -0.4066 -0.0416  0.5570
   86CHL1    H3 8772   5.429   0.945   6.494 -0.3046 -0.8244  0.3354
   86CHL1    O3 8773   5.303   0.933   6.336  0.0793  0.1917 -0.2584
   86CHL1   H3' 8774   5.209   0.916   6.323  0.2206  0.4081 -1.8251
   86CHL1    C4 8775   5.278   0.800   6.546  0.0476  0.2392 -0.0324
   86CHL1   H4A 8776   5.173   0.775   6.518  0.0286 -0.7035  0.8052
   86CHL1   H4B 8777   5.332   0.714   6.501  0.6723 -0.2757  1.6230
   86CHL1    C5 8778   5.300   0.808   6.696  0.6641  0.0667 -0.2474
   86CHL1    C6 8779   5.383   0.731   6.764  0.0325 -0.0539 -0.0107
   86CHL1    H6 8780   5.443   0.657   6.709 -0.4369 -2.2229  2.2095
   86CHL1    C7 8781   5.402   0.723   6.907  0.5852 -0.2537  0.1408
   86CHL1   H7A 8782   5.397   0.616   6.940 -1.0035 -0.4252 -0.5643
   86CHL1   H7B 8783   5.502   0.758   6.940  0.5706 -0.1776  0.1043
   86CHL1    C8 8784   5.301   0.804   6.984  0.0187  0.9463  0.6317
   86CHL1    H8 8785   5.202   0.754   6.977  0.4332  0.2138 -0.0595
   86CHL1   C14 8786   5.351   0.819   7.125  0.5785  0.2261 -0.9504
   86CHL1   H14 8787   5.448   0.874   7.128  0.3617  0.6123 -0.8632
   86CHL1   C15 8788   5.382   0.693   7.215  0.4962  0.6245 -0.0500
   86CHL1  H15A 8789   5.294   0.625   7.206  1.6959 -0.8448 -1.1666
   86CHL1  H15B 8790   5.471   0.638   7.180 -0.4372 -0.4707 -0.7752
   86CHL1   C16 8791   5.397   0.748   7.356 -0.3962  0.5754 -0.0520
   86CHL1  H16A 8792   5.332   0.683   7.418  1.8955 -3.0022 -1.0855
   86CHL1  H16B 8793   5.504   0.744   7.387  0.5444  0.9909 -2.9289
   86CHL1   C17 8794   5.351   0.894   7.358  0.7238  0.0449  0.0287
   86CHL1   H17 8795   5.448   0.948   7.347  0.7727 -0.4178 -2.1804
   86CHL1   C13 8796   5.275   0.911   7.222  0.3673 -1.2017  0.4655
   86CHL1   C18 8797   5.134   0.853   7.231  0.1329  0.5612 -0.2526
   86CHL1  H18A 8798   5.123   0.762   7.295 -0.7947  1.1282  0.4106
   86CHL1  H18B 8799   5.052   0.916   7.273 -0.3545 -0.8238  0.9725
   86CHL1  H18C 8800   5.094   0.822   7.133 -1.9930  0.0067  0.7276
   86CHL1   C12 8801   5.255   1.050   7.165  0.5255 -0.1336  0.5549
   86CHL1  H12A 8802   5.183   1.110   7.224  0.0088  1.7848 -1.8775
   86CHL1  H12B 8803   5.351   1.104   7.162  0.6590 -0.4017 -1.4088
   86CHL1   C11 8804   5.200   1.039   7.021  0.4139  0.4648  0.8099
   86CHL1  H11A 8805   5.096   0.998   7.026  0.1234  0.6482 -2.0047
   86CHL1  H11B 8806   5.184   1.135   6.968  0.0398  0.2424  0.5148
   86CHL1    C9 8807   5.275   0.939   6.919  0.3298 -0.0098 -0.9610
   86CHL1    H9 8808   5.378   0.980   6.914 -0.1127  2.5103  4.1809
   86CHL1   C10 8809   5.227   0.924   6.767 -0.3834  0.4355 -0.3833
   86CHL1   C19 8810   5.078   0.889   6.769 -0.2054  0.1295  0.0665
   86CHL1  H19A 8811   5.038   0.929   6.674  1.7648 -2.0653 -1.7999
   86CHL1  H19B 8812   5.062   0.780   6.782 -0.8562  0.4345  2.3727
   86CHL1  H19C 8813   5.022   0.937   6.852  1.9642 -1.7538  2.8225
   86CHL1    C1 8814   5.247   1.053   6.692  0.5697 -0.6418  0.4501
   86CHL1   H1A 8815   5.178   1.134   6.724 -2.8725 -3.1316 -0.0952
   86CHL1   H1B 8816   5.349   1.087   6.721 -0.2593  0.6316  2.0368
   86CHL1    C2 8817   5.233   1.048   6.540 -0.5805  0.9681  0.4137
   86CHL1   H2A 8818   5.271   1.141   6.492 -1.3935  1.7876  1.3116
   86CHL1   H2B 8819   5.128   1.046   6.504 -0.7866  1.0650  1.0006
   86CHL1   C20 8820   5.282   0.924   7.494 -0.5587 -0.1006  0.2114
   86CHL1   H20 8821   5.173   0.908   7.479 -0.6126  0.8855 -0.5658
   86CHL1   C21 8822   5.300   1.075   7.515  0.1818 -0.2230 -0.1050
   86CHL1  H21A 8823   5.402   1.100   7.552 -0.1794  2.1432 -0.5191
   86CHL1  H21B 8824   5.227   1.120   7.586 -0.0948 -0.6227 -0.1367
   86CHL1  H21C 8825   5.289   1.137   7.424 -0.0211  0.7974  0.5889
   86CHL1   C22 8826   5.335   0.852   7.624  0.0326 -0.5230 -0.6254
   86CHL1  H22A 8827   5.268   0.763   7.630 -1.4008  0.4927 -0.9499
   86CHL1  H22B 8828   5.439   0.817   7.607 -0.2953 -1.3996 -0.8778
   86CHL1   C23 8829   5.300   0.919   7.764  0.2330  0.1609  0.7034
   86CHL1  H23A 8830   5.366   1.006   7.780  1.5359 -0.6317 -0.1675
   86CHL1  H23B 8831   5.194   0.950   7.752  0.5586  1.0525  0.0562
   86CHL1   C24 8832   5.320   0.816   7.880 -0.4852  0.3581  0.0133
   86CHL1  H24A 8833   5.250   0.731   7.863 -1.0144  0.0895  3.0547
   86CHL1  H24B 8834   5.427   0.786   7.880 -0.6465 -0.3650  2.3473
   86CHL1   C25 8835   5.277   0.873   8.012  0.0767 -0.2616  0.3532
   86CHL1   H25 8836   5.328   0.971   8.017 -2.1131  1.2254 -2.8694
   86CHL1   C26 8837   5.131   0.909   8.009 -0.0659 -0.5323 -0.4358
   86CHL1  H26A 8838   5.097   0.928   8.113  0.0693 -2.1580 -0.0670
   86CHL1  H26B 8839   5.113   0.999   7.948  2.8157 -0.3792 -1.2248
   86CHL1  H26C 8840   5.063   0.824   7.985 -1.8997 -0.2610  3.1365
   86CHL1   C27 8841   5.308   0.775   8.120 -0.1936 -0.0853 -0.3060
   86CHL1  H27A 8842   5.268   0.676   8.090  0.8545 -0.8224  0.6139
   86CHL1  H27B 8843   5.415   0.764   8.151 -0.3337 -1.8247 -0.3302
   86CHL1  H27C 8844   5.256   0.817   8.209  0.4031 -0.7110  0.3582
   87CHL1    C3 8845   1.085   4.323   7.035 -0.0218 -0.0269 -0.0729
   87CHL1    H3 8846   0.983   4.283   7.052 -0.4726  0.3369 -1.6973
   87CHL1    O3 8847   1.105   4.336   6.897  0.3576  0.1941 -0.1775
   87CHL1   H3' 8848   1.197   4.357   6.879 -0.0186  1.7487 -0.4706
   87CHL1    C4 8849   1.093   4.465   7.100  0.0516 -0.2215  0.3154
   87CHL1   H4A 8850   1.189   4.518   7.087  2.0709 -3.2241  1.8882
   87CHL1   H4B 8851   1.008   4.519   7.053 -0.4491 -0.1866  1.2318
   87CHL1    C5 8852   1.076   4.447   7.244  1.1751 -0.0848 -0.4997
   87CHL1    C6 8853   0.971   4.518   7.299  0.3805  1.0906 -0.3027
   87CHL1    H6 8854   0.909   4.574   7.228 -0.0785 -1.0876 -1.7159
   87CHL1    C7 8855   0.941   4.507   7.444 -0.0233  0.8197  0.3049
   87CHL1   H7A 8856   0.915   4.611   7.475 -3.2690  0.6756 -1.4515
   87CHL1   H7B 8857   0.845   4.454   7.460 -0.6955  1.6969 -0.6656
   87CHL1    C8 8858   1.054   4.455   7.533  0.0328  0.2122  0.8269
   87CHL1    H8 8859   1.141   4.524   7.541  0.5664 -0.6266  3.0566
   87CHL1   C14 8860   1.004   4.417   7.673 -0.2776 -0.2825  0.1174
   87CHL1   H14 8861   0.927   4.337   7.666 -2.1483  1.5277 -0.9560
   87CHL1   C15 8862   0.928   4.532   7.746  0.2701 -0.0706 -0.0100
   87CHL1  H15A 8863   0.984   4.625   7.723 -0.0323  0.2448  0.5076
   87CHL1  H15B 8864   0.825   4.534   7.705 -0.4534 -0.5020  1.7017
   87CHL1   C16 8865   0.932   4.484   7.899 -0.1462  0.2467  1.3053
   87CHL1  H16A 8866   0.971   4.576   7.948  1.1834  0.9955 -1.0308
   87CHL1  H16B 8867   0.834   4.454   7.941  0.5617 -4.4779  0.1912
   87CHL1   C17 8868   1.039   4.365   7.903  0.8652 -0.2416  0.0566
   87CHL1   H17 8869   0.979   4.272   7.892  0.8281 -0.0476 -1.6556
   87CHL1   C13 8870   1.122   4.369   7.767  0.0733 -0.0327 -0.5226
   87CHL1   C18 8871   1.234   4.470   7.788  0.1977  0.8776  0.3955
   87CHL1  H18A 8872   1.287   4.495   7.693 -0.6558 -0.1207 -0.3753
   87CHL1  H18B 8873   1.196   4.567   7.827  1.8941  1.5158  0.5561
   87CHL1  H18C 8874   1.311   4.439   7.862  0.1630  0.6708  0.3455
   87CHL1   C12 8875   1.176   4.234   7.720 -0.2396 -0.0630  0.2599
   87CHL1  H12A 8876   1.271   4.215   7.774  0.2505  1.0072 -0.1993
   87CHL1  H12B 8877   1.104   4.152   7.738 -0.3093  0.0908  0.7093
   87CHL1   C11 8878   1.216   4.239   7.566  0.2721 -0.2662 -0.7361
   87CHL1  H11A 8879   1.309   4.299   7.566 -0.9830  1.7482 -0.9805
   87CHL1  H11B 8880   1.233   4.139   7.519  2.1722  0.0284 -0.7628
   87CHL1    C9 8881   1.114   4.319   7.473  0.6289 -0.1762 -0.0734
   87CHL1    H9 8882   1.022   4.258   7.461 -0.5971  1.0071  2.6020
   87CHL1   C10 8883   1.162   4.343   7.324  0.2700  0.3394 -0.4814
   87CHL1   C19 8884   1.306   4.412   7.330 -0.0322  0.6920 -0.4691
   87CHL1  H19A 8885   1.386   4.336   7.339 -0.7981 -0.1482 -0.5498
   87CHL1  H19B 8886   1.321   4.476   7.241 -1.0356 -1.0351 -1.9467
   87CHL1  H19C 8887   1.321   4.478   7.419  1.2188  3.5058 -2.6081
   87CHL1    C1 8888   1.164   4.212   7.245 -0.0483 -0.4330  0.0150
   87CHL1   H1A 8889   1.239   4.151   7.298 -1.3694 -0.1876  2.3002
   87CHL1   H1B 8890   1.064   4.167   7.262  0.6108 -1.5419  1.0463
   87CHL1    C2 8891   1.190   4.229   7.092  0.1800 -0.4080 -0.2165
   87CHL1   H2A 8892   1.179   4.127   7.049 -1.8504 -1.1685  1.8554
   87CHL1   H2B 8893   1.293   4.268   7.078 -1.0368  2.7793 -1.2228
   87CHL1   C20 8894   1.107   4.361   8.039 -0.0997 -0.2665  0.1471
   87CHL1   H20 8895   1.182   4.443   8.043  0.2383 -0.6216  1.2252
   87CHL1   C21 8896   1.184   4.229   8.047 -0.4252  0.1017  0.1579
   87CHL1  H21A 8897   1.290   4.257   8.025 -0.9847 -0.3198 -3.8520
   87CHL1  H21B 8898   1.144   4.155   7.974  0.8655 -0.6160  0.1479
   87CHL1  H21C 8899   1.190   4.192   8.152  3.4334 -1.5075 -0.4593
   87CHL1   C22 8900   1.011   4.365   8.158 -0.6008 -0.4614  0.6673
   87CHL1  H22A 8901   0.946   4.455   8.161 -1.2828 -0.9551  1.4644
   87CHL1  H22B 8902   0.942   4.279   8.145 -2.4116  1.1841 -1.4912
   87CHL1   C23 8903   1.083   4.367   8.297 -0.1349  0.3202  0.0837
   87CHL1  H23A 8904   1.124   4.267   8.321 -0.9672 -0.5275 -1.8055
   87CHL1  H23B 8905   1.156   4.450   8.289 -0.2615  0.6359  1.8683
   87CHL1   C24 8906   0.979   4.388   8.410  0.7047 -0.0031  0.2538
   87CHL1  H24A 8907   0.911   4.471   8.383  1.7005  1.2616  1.5156
   87CHL1  H24B 8908   0.908   4.303   8.415 -1.3180  1.4882 -1.3230
   87CHL1   C25 8909   1.040   4.414   8.546  0.6485 -0.3013 -0.4205
   87CHL1   H25 8910   1.121   4.490   8.542  2.4125 -1.9832  1.2448
   87CHL1   C26 8911   0.939   4.460   8.647  0.4432  1.1734 -0.4216
   87CHL1  H26A 8912   0.882   4.546   8.605 -2.0557  0.1335  0.6310
   87CHL1  H26B 8913   0.861   4.382   8.655  0.0592  1.3399 -2.1039
   87CHL1  H26C 8914   0.976   4.483   8.749 -0.8228  1.9674 -0.1139
   87CHL1   C27 8915   1.112   4.291   8.614  0.1160  0.0881 -0.0563
   87CHL1  H27A 8916   1.177   4.332   8.695 -0.4159 -0.0342  0.4472
   87CHL1  H27B 8917   1.031   4.228   8.656  0.2904 -0.5934 -0.7334
   87CHL1  H27C 8918   1.177   4.239   8.541  1.3407  2.2163 -0.5701
   88CHL1    C3 8919   3.242   2.347   6.729 -0.0108  0.9558 -0.4244
   88CHL1    H3 8920   3.183   2.437   6.704 -0.7366  0.8045  0.6618
   88CHL1    O3 8921   3.263   2.263   6.623  0.4592 -0.4352  0.1046
   88CHL1   H3' 8922   3.311   2.188   6.658  0.1020 -0.4132  0.6477
   88CHL1    C4 8923   3.375   2.374   6.792 -0.3221 -0.5425 -0.3321
   88CHL1   H4A 8924   3.422   2.276   6.813 -2.4603 -1.6636 -0.5856
   88CHL1   H4B 8925   3.436   2.435   6.722  0.4406 -0.9834 -0.0625
   88CHL1    C5 8926   3.371   2.435   6.934  0.0241 -0.9765 -0.2087
   88CHL1    C6 8927   3.440   2.545   6.966 -0.5267 -0.1580  0.5398
   88CHL1    H6 8928   3.506   2.592   6.892 -0.0940 -0.4446  0.7366
   88CHL1    C7 8929   3.434   2.606   7.095 -0.2316 -0.2192 -0.2947
   88CHL1   H7A 8930   3.537   2.633   7.126 -0.3770 -1.4270  1.4207
   88CHL1   H7B 8931   3.366   2.692   7.078 -1.3850 -1.5301 -2.8374
   88CHL1    C8 8932   3.374   2.525   7.208  0.0957 -0.9759  0.9055
   88CHL1    H8 8933   3.459   2.463   7.241  0.7636 -0.5946 -0.0378
   88CHL1   C14 8934   3.332   2.615   7.321 -0.2682 -0.0236  0.0327
   88CHL1   H14 8935   3.242   2.676   7.295 -0.0616  0.2971  0.0704
   88CHL1   C15 8936   3.430   2.731   7.377 -0.5395 -0.2630 -0.1377
   88CHL1  H15A 8937   3.526   2.676   7.369 -0.6875 -0.3637 -1.4017
   88CHL1  H15B 8938   3.430   2.823   7.315  1.0989  0.4473  0.8650
   88CHL1   C16 8939   3.371   2.754   7.514 -0.2015  0.6004 -0.4912
   88CHL1  H16A 8940   3.451   2.769   7.590  2.8471 -1.6308 -3.0285
   88CHL1  H16B 8941   3.313   2.849   7.517 -2.3073 -0.6443  2.2510
   88CHL1   C17 8942   3.257   2.648   7.544  0.5877  0.4745 -0.4084
   88CHL1   H17 8943   3.163   2.701   7.519  0.0190 -0.7775 -1.0379
   88CHL1   C13 8944   3.283   2.533   7.437 -0.2727  0.1233 -0.6679
   88CHL1   C18 8945   3.403   2.451   7.492  0.0202  0.7961 -0.1725
   88CHL1  H18A 8946   3.378   2.404   7.590 -0.3980  0.1036 -0.6050
   88CHL1  H18B 8947   3.428   2.368   7.422 -1.5708  0.0998  0.0270
   88CHL1  H18C 8948   3.491   2.515   7.514  1.9112 -0.7463 -2.6501
   88CHL1   C12 8949   3.163   2.446   7.400  0.2317 -0.1608 -0.4260
   88CHL1  H12A 8950   3.118   2.392   7.486 -0.3875  0.5800 -0.2707
   88CHL1  H12B 8951   3.085   2.517   7.364  0.3829 -0.6093 -1.6698
   88CHL1   C11 8952   3.202   2.356   7.284 -0.2130  0.9299  0.3616
   88CHL1  H11A 8953   3.267   2.277   7.326 -1.8953 -0.7846 -0.0955
   88CHL1  H11B 8954   3.113   2.297   7.252  0.9248 -2.3869  2.7211
   88CHL1    C9 8955   3.259   2.429   7.169 -0.1818 -0.0389 -0.2918
   88CHL1    H9 8956   3.177   2.497   7.137  1.5990  1.3386 -2.1744
   88CHL1   C10 8957   3.284   2.356   7.032 -0.1641  0.7421  0.0614
   88CHL1   C19 8958   3.348   2.219   7.067  0.2752 -1.0585  0.7135
   88CHL1  H19A 8959   3.444   2.253   7.110  0.4862  1.8159 -1.7018
   88CHL1  H19B 8960   3.286   2.163   7.140  2.4639 -0.9862  2.7376
   88CHL1  H19C 8961   3.371   2.156   6.978  0.0762 -1.1349  0.7156
   88CHL1    C1 8962   3.150   2.341   6.962  0.6457  0.0004  0.0614
   88CHL1   H1A 8963   3.077   2.290   7.030 -1.2724  1.2099 -0.9978
   88CHL1   H1B 8964   3.104   2.440   6.940  0.0364  0.3885  2.7333
   88CHL1    C2 8965   3.159   2.267   6.831  0.2344  0.5352 -0.0816
   88CHL1   H2A 8966   3.063   2.240   6.782  0.7617  0.6765 -1.2336
   88CHL1   H2B 8967   3.201   2.165   6.842  0.1305  0.1177 -2.8560
   88CHL1   C20 8968   3.254   2.605   7.692 -0.2104 -0.4232 -0.3422
   88CHL1   H20 8969   3.357   2.575   7.717  0.4008  2.0002  0.3760
   88CHL1   C21 8970   3.151   2.496   7.726 -0.0775  0.3789  0.4418
   88CHL1  H21A 8971   3.183   2.398   7.685 -0.7457 -0.2017  1.2646
   88CHL1  H21B 8972   3.054   2.516   7.676  0.4669 -2.1833 -1.9013
   88CHL1  H21C 8973   3.145   2.490   7.837  1.8738  1.3821  0.6378
   88CHL1   C22 8974   3.232   2.728   7.787 -0.1575  0.2138 -0.1249
   88CHL1  H22A 8975   3.267   2.821   7.738  1.1723  0.4974  1.3115
   88CHL1  H22B 8976   3.125   2.757   7.798  0.0516  1.3516 -0.8730
   88CHL1   C23 8977   3.289   2.713   7.931  0.4089 -0.7174 -0.5277
   88CHL1  H23A 8978   3.241   2.627   7.982 -0.2808 -0.1968 -0.2715
   88CHL1  H23B 8979   3.396   2.686   7.944  0.0999 -0.7349  2.7582
   88CHL1   C24 8980   3.263   2.848   8.006  0.4390  0.5252 -0.2816
   88CHL1  H24A 8981   3.307   2.934   7.952 -0.1093  1.0838  0.1535
   88CHL1  H24B 8982   3.155   2.871   8.008  0.3388  0.1814  2.1738
   88CHL1   C25 8983   3.310   2.844   8.152 -0.1453  0.1518  0.2269
   88CHL1   H25 8984   3.416   2.812   8.146 -1.0700 -2.9678 -1.1591
   88CHL1   C26 8985   3.305   2.980   8.222  0.2535 -0.1582  0.1129
   88CHL1  H26A 8986   3.350   3.050   8.148 -0.6038  0.1602 -0.1273
   88CHL1  H26B 8987   3.208   3.022   8.256  0.5024  0.0154  0.6121
   88CHL1  H26C 8988   3.379   2.971   8.304 -1.2549  0.7528  1.6359
   88CHL1   C27 8989   3.234   2.731   8.237 -0.0606 -0.5262 -0.2042
   88CHL1  H27A 8990   3.239   2.743   8.347 -0.1595  1.6887 -0.4057
   88CHL1  H27B 8991   3.126   2.726   8.210 -0.2978  3.7484 -0.7250
   88CHL1  H27C 8992   3.279   2.632   8.211 -0.3306 -0.6113 -0.3521
   89CHL1    C3 8993   0.132   0.055   6.977  0.3819  0.1189 -0.7622
   89CHL1    H3 8994   0.240   0.054   7.004  0.0534  0.6421  0.6267
   89CHL1    O3 8995   0.121   0.064   6.834  0.3604  0.1437 -0.1094
   89CHL1   H3' 8996   0.042   0.118   6.827 -0.0009  0.0762  2.3405
   89CHL1    C4 8997   0.069  -0.067   7.036 -0.2332 -0.7212  0.3393
   89CHL1   H4A 8998  -0.041  -0.074   7.021 -0.1655 -2.6726  0.5234
   89CHL1   H4B 8999   0.116  -0.157   6.992 -1.0584 -0.4742 -1.0839
   89CHL1    C5 9000   0.080  -0.077   7.179 -0.3999  0.1950  0.3095
   89CHL1    C6 9001   0.142  -0.177   7.248  0.2310  0.7503  0.4179
   89CHL1    H6 9002   0.183  -0.255   7.182  0.9765  1.5562 -0.0893
   89CHL1    C7 9003   0.144  -0.190   7.399  0.0487 -0.7630  0.3979
   89CHL1   H7A 9004   0.126  -0.291   7.443 -0.3115  0.1197  2.4005
   89CHL1   H7B 9005   0.244  -0.162   7.437  0.4508 -2.5701  0.7898
   89CHL1    C8 9006   0.039  -0.097   7.469  0.3815 -0.2130 -0.2146
   89CHL1    H8 9007  -0.061  -0.146   7.463 -0.0328  0.8351 -3.1076
   89CHL1   C14 9008   0.075  -0.088   7.615 -0.0700  0.4770  0.0605
   89CHL1   H14 9009   0.181  -0.055   7.626  0.3661 -1.1390  0.9752
   89CHL1   C15 9010   0.070  -0.220   7.688  0.1774 -0.3585  0.5401
   89CHL1  H15A 9011  -0.020  -0.282   7.665 -3.1173  3.6276  1.5426
   89CHL1  H15B 9012   0.164  -0.278   7.672  0.1853 -0.1930 -0.0163
   89CHL1   C16 9013   0.066  -0.174   7.836 -0.2998  0.1305 -0.4405
   89CHL1  H16A 9014  -0.027  -0.210   7.883 -0.2247 -0.5074 -0.7752
   89CHL1  H16B 9015   0.157  -0.214   7.887 -1.1478 -2.5161 -0.8642
   89CHL1   C17 9016   0.049  -0.021   7.837 -0.1495 -0.8137 -0.5227
   89CHL1   H17 9017   0.151   0.022   7.839 -0.1668 -0.7895  0.9108
   89CHL1   C13 9018  -0.009   0.004   7.694  0.9798  0.2130 -0.0735
   89CHL1   C18 9019  -0.158  -0.036   7.696 -0.0026 -0.0055  0.7201
   89CHL1  H18A 9020  -0.198  -0.048   7.593 -2.0508 -2.5123  1.6943
   89CHL1  H18B 9021  -0.166  -0.124   7.763 -0.9799  0.0389  0.6726
   89CHL1  H18C 9022  -0.218   0.049   7.737 -0.3251  0.3569 -0.4657
   89CHL1   C12 9023   0.012   0.141   7.632 -0.2631 -0.1553  0.6238
   89CHL1  H12A 9024  -0.058   0.205   7.690 -1.4643 -0.5389 -0.3527
   89CHL1  H12B 9025   0.116   0.179   7.636 -0.3279  0.3719 -1.4987
   89CHL1   C11 9026  -0.034   0.156   7.487 -0.1830 -0.3398 -0.4329
   89CHL1  H11A 9027  -0.145   0.150   7.481 -0.3698 -0.0087  1.7403
   89CHL1  H11B 9028  -0.009   0.258   7.453 -3.4044  0.8238  0.3323
   89CHL1    C9 9029   0.043   0.046   7.405 -0.1338  0.1053  0.5858
   89CHL1    H9 9030   0.150   0.074   7.409  0.5219 -1.3177 -3.0752
   89CHL1   C10 9031   0.007   0.044   7.252  0.4501 -0.0580 -0.6637
   89CHL1   C19 9032  -0.145   0.029   7.235  0.8149 -0.6354  0.3331
   89CHL1  H19A 9033  -0.197   0.116   7.281 -2.4060 -1.7370 -0.8867
   89CHL1  H19B 9034  -0.177   0.040   7.130  1.6612  0.6343  0.1867
   89CHL1  H19C 9035  -0.193  -0.062   7.278 -1.6398 -0.5013 -1.8861
   89CHL1    C1 9036   0.074   0.168   7.189  0.2652  0.0473  0.5431
   89CHL1   H1A 9037   0.023   0.256   7.236  1.9659 -0.1123  2.8303
   89CHL1   H1B 9038   0.180   0.175   7.220  0.9509  0.4286 -1.7363
   89CHL1    C2 9039   0.068   0.178   7.039 -0.4271 -0.5111  0.8710
   89CHL1   H2A 9040   0.108   0.277   7.009 -0.2970  0.3241  3.5643
   89CHL1   H2B 9041  -0.039   0.183   7.007 -0.1588 -1.7094 -0.2910
   89CHL1   C20 9042  -0.027   0.039   7.960 -0.7543  0.0862 -0.5573
   89CHL1   H20 9043  -0.136   0.020   7.957 -1.0947  0.8403  2.5789
   89CHL1   C21 9044  -0.033   0.193   7.958  0.1626  0.2307 -0.0300
   89CHL1  H21A 9045  -0.076   0.238   8.050 -1.1671 -0.0123 -0.5117
   89CHL1  H21B 9046  -0.094   0.249   7.884 -1.0326  1.1421  1.5861
   89CHL1  H21C 9047   0.072   0.230   7.958 -0.0448  0.9241 -1.7906
   89CHL1   C22 9048   0.014  -0.034   8.093  0.2183  0.8093  0.0500
   89CHL1  H22A 9049  -0.045   0.007   8.178 -0.8829 -0.9042  0.1612
   89CHL1  H22B 9050  -0.016  -0.140   8.081  0.8205  0.4326  1.5826
   89CHL1   C23 9051   0.161  -0.041   8.133  0.6750 -0.3796 -0.1726
   89CHL1  H23A 9052   0.223  -0.112   8.074 -1.1526 -1.8165 -0.4690
   89CHL1  H23B 9053   0.203   0.060   8.112 -1.3223  0.2797 -1.2726
   89CHL1   C24 9054   0.173  -0.094   8.273 -0.2668  0.8898 -0.2250
   89CHL1  H24A 9055   0.089  -0.046   8.328  0.1582  0.2242  1.0473
   89CHL1  H24B 9056   0.165  -0.204   8.283  0.0016  1.1046  5.1543
   89CHL1   C25 9057   0.304  -0.049   8.344  0.3984 -0.5290  0.1402
   89CHL1   H25 9058   0.318   0.060   8.324 -1.4149 -0.3732 -0.4916
   89CHL1   C26 9059   0.284  -0.056   8.499  0.2832 -0.1549 -0.1116
   89CHL1  H26A 9060   0.263  -0.154   8.547 -1.5887 -1.4430 -3.2252
   89CHL1  H26B 9061   0.377  -0.012   8.539 -1.2615  3.4504 -0.0798
   89CHL1  H26C 9062   0.205   0.015   8.533  0.9278  0.1630  0.7637
   89CHL1   C27 9063   0.420  -0.141   8.308  0.0015  0.7186 -0.7346
   89CHL1  H27A 9064   0.380  -0.243   8.329 -4.8010  2.2334 -1.1964
   89CHL1  H27B 9065   0.443  -0.144   8.200  1.1405 -0.5826 -0.4832
   89CHL1  H27C 9066   0.509  -0.125   8.372  0.0594  1.8653 -1.0690
   90CHL1    C3 9067   2.219   1.921   6.861 -0.9465  0.1172  0.2617
   90CHL1    H3 9068   2.225   2.032   6.864 -1.5364  0.1628 -0.1071
   90CHL1    O3 9069   2.191   1.876   6.729 -0.0494  0.0427 -0.7234
   90CHL1   H3' 9070   2.254   1.925   6.675  1.3958 -0.7044  0.2531
   90CHL1    C4 9071   2.359   1.864   6.896  0.0870  0.2767 -0.4552
   90CHL1   H4A 9072   2.339   1.756   6.886  0.4234  0.0168  1.3748
   90CHL1   H4B 9073   2.438   1.889   6.822  1.1150 -0.4645  0.3691
   90CHL1    C5 9074   2.404   1.890   7.038 -1.5488 -0.4198 -1.0131
   90CHL1    C6 9075   2.520   1.967   7.063 -0.2163  0.9047  0.4006
   90CHL1    H6 9076   2.585   1.998   6.980  0.7807 -0.2152  0.7317
   90CHL1    C7 9077   2.581   1.996   7.195  0.6804  0.7124 -0.2101
   90CHL1   H7A 9078   2.689   1.973   7.201  0.2689 -1.0316  2.9911
   90CHL1   H7B 9079   2.560   2.102   7.219 -0.8186  0.4175 -0.0979
   90CHL1    C8 9080   2.498   1.918   7.310 -0.0959  0.4458 -0.3378
   90CHL1    H8 9081   2.540   1.816   7.311  1.7199  1.1542  0.3192
   90CHL1   C14 9082   2.523   1.988   7.450 -0.0768 -0.0870  0.4649
   90CHL1   H14 9083   2.494   2.093   7.428  0.7747 -0.2628 -1.8043
   90CHL1   C15 9084   2.666   2.003   7.493 -0.4738 -0.0710  0.2995
   90CHL1  H15A 9085   2.728   1.915   7.465  2.2490  1.4622  1.1743
   90CHL1  H15B 9086   2.718   2.093   7.455  0.8758 -1.6800 -1.8783
   90CHL1   C16 9087   2.658   2.023   7.648 -0.1426 -0.4476  0.2094
   90CHL1  H16A 9088   2.708   1.946   7.710 -1.2653  0.2948  2.1175
   90CHL1  H16B 9089   2.699   2.125   7.666 -0.6994 -0.0664 -0.6114
   90CHL1   C17 9090   2.504   2.016   7.677 -0.3265 -0.6737  0.2284
   90CHL1   H17 9091   2.472   2.120   7.653 -2.4546 -1.1552  0.7144
   90CHL1   C13 9092   2.452   1.927   7.570 -0.0617  0.1055  0.7260
   90CHL1   C18 9093   2.510   1.781   7.584  0.2601 -0.1897 -0.4665
   90CHL1  H18A 9094   2.444   1.732   7.658 -0.0313  0.3403 -0.3682
   90CHL1  H18B 9095   2.513   1.718   7.493  1.3712 -2.4434  1.0460
   90CHL1  H18C 9096   2.615   1.779   7.620  0.2137 -2.8839 -0.2555
   90CHL1   C12 9097   2.299   1.926   7.532  0.8650 -0.1365 -0.5246
   90CHL1  H12A 9098   2.241   1.871   7.610  1.9018  0.7715  0.9401
   90CHL1  H12B 9099   2.253   2.027   7.525  0.0590 -0.3182  1.3512
   90CHL1   C11 9100   2.263   1.860   7.400 -0.0717 -0.2574  0.2491
   90CHL1  H11A 9101   2.298   1.755   7.417  2.2142 -0.1511 -2.8776
   90CHL1  H11B 9102   2.154   1.847   7.383  0.2450 -3.8404  0.0206
   90CHL1    C9 9103   2.343   1.917   7.275 -0.1611 -0.1072 -0.4649
   90CHL1    H9 9104   2.329   2.027   7.265  3.0083  0.4224 -0.1164
   90CHL1   C10 9105   2.309   1.841   7.145  0.3895  0.3535  0.4743
   90CHL1   C19 9106   2.313   1.688   7.156  0.2362 -0.7548 -0.0135
   90CHL1  H19A 9107   2.406   1.627   7.148 -0.6265 -2.2068  0.6629
   90CHL1  H19B 9108   2.251   1.660   7.244 -0.5059  0.8089 -0.0003
   90CHL1  H19C 9109   2.262   1.644   7.068 -1.1457 -2.2213  1.4576
   90CHL1    C1 9110   2.162   1.879   7.113 -0.0174 -0.6867 -0.1221
   90CHL1   H1A 9111   2.093   1.827   7.183 -2.9910  0.7829 -1.7456
   90CHL1   H1B 9112   2.151   1.989   7.126 -0.0479 -0.6981 -0.0543
   90CHL1    C2 9113   2.116   1.856   6.965 -0.1046 -0.4470  0.6126
   90CHL1   H2A 9114   2.015   1.896   6.944  0.3953  0.5026 -0.0734
   90CHL1   H2B 9115   2.113   1.746   6.951 -0.7771 -0.4993  1.1069
   90CHL1   C20 9116   2.462   1.993   7.830  0.2839 -0.1727 -0.1145
   90CHL1   H20 9117   2.439   1.886   7.849 -0.4350 -0.2267 -1.1678
   90CHL1   C21 9118   2.332   2.069   7.861 -0.1416 -0.6577 -0.4231
   90CHL1  H21A 9119   2.245   2.022   7.812 -0.4264 -0.7608  0.1739
   90CHL1  H21B 9120   2.327   2.178   7.841  1.1193 -0.4217  0.4190
   90CHL1  H21C 9121   2.302   2.052   7.966 -1.4401 -0.5530 -0.7708
   90CHL1   C22 9122   2.578   2.031   7.929 -0.3934 -0.0710 -0.4190
   90CHL1  H22A 9123   2.673   1.977   7.911 -0.8371 -1.8277  1.9648
   90CHL1  H22B 9124   2.594   2.139   7.908  1.7920 -0.6580 -2.1682
   90CHL1   C23 9125   2.549   2.020   8.083 -0.3416  0.1339 -0.1294
   90CHL1  H23A 9126   2.633   2.079   8.126  0.6653 -1.4739  0.1866
   90CHL1  H23B 9127   2.465   2.080   8.122 -0.1084  0.4809 -0.1557
   90CHL1   C24 9128   2.550   1.885   8.134  0.1350 -0.5441 -0.1792
   90CHL1  H24A 9129   2.473   1.818   8.090  0.1688 -0.4429 -0.3947
   90CHL1  H24B 9130   2.642   1.824   8.118 -0.4802 -1.0901 -1.8650
   90CHL1   C25 9131   2.519   1.875   8.288  0.2425  0.6255  0.8068
   90CHL1   H25 9132   2.437   1.946   8.314 -1.9021 -1.8966  1.3952
   90CHL1   C26 9133   2.458   1.735   8.308  0.7500  0.3525 -0.1966
   90CHL1  H26A 9134   2.524   1.653   8.270  1.7656  1.4916 -0.9786
   90CHL1  H26B 9135   2.433   1.720   8.415  0.0474  0.2445 -0.3745
   90CHL1  H26C 9136   2.364   1.715   8.254 -0.3014 -0.4132  1.8314
   90CHL1   C27 9137   2.636   1.909   8.381  0.1188 -0.1748  0.2626
   90CHL1  H27A 9138   2.632   1.846   8.473  0.3645 -2.5631 -1.2860
   90CHL1  H27B 9139   2.731   1.869   8.341  0.0095 -1.4426  1.2245
   90CHL1  H27C 9140   2.640   2.019   8.401 -2.6939  0.3493 -1.5239
   91CHL1    C3 9141   1.795   3.660   7.004  0.4281  0.0177  0.7038
   91CHL1    H3 9142   1.767   3.767   7.015 -2.2268 -0.3740 -1.0855
   91CHL1    O3 9143   1.857   3.643   6.880  0.4464 -0.1793 -0.2178
   91CHL1   H3' 9144   1.948   3.669   6.893  1.5328 -3.1070 -1.3616
   91CHL1    C4 9145   1.887   3.596   7.103  0.2176  0.8297 -1.0282
   91CHL1   H4A 9146   1.898   3.490   7.074 -3.7045 -0.4123  1.3247
   91CHL1   H4B 9147   1.984   3.647   7.083  0.3041  0.5684 -1.2828
   91CHL1    C5 9148   1.829   3.607   7.241  0.7085 -0.0556  0.0324
   91CHL1    C6 9149   1.897   3.673   7.344 -0.6317 -0.4194  0.1207
   91CHL1    H6 9150   2.000   3.705   7.323 -0.0560 -1.4230  1.3047
   91CHL1    C7 9151   1.842   3.686   7.479  0.2593  0.7823  0.3895
   91CHL1   H7A 9152   1.924   3.656   7.549  0.8175 -1.4560 -1.1047
   91CHL1   H7B 9153   1.804   3.789   7.493  0.7949  1.1087 -0.4987
   91CHL1    C8 9154   1.721   3.589   7.507 -0.5879  0.0496 -0.0080
   91CHL1    H8 9155   1.763   3.487   7.521 -0.8432  0.1839  1.9181
   91CHL1   C14 9156   1.650   3.636   7.638 -0.0906 -0.2566  0.0144
   91CHL1   H14 9157   1.601   3.731   7.608  0.5849 -0.2782 -1.2126
   91CHL1   C15 9158   1.735   3.665   7.760  0.0770  0.2242  0.4715
   91CHL1  H15A 9159   1.800   3.574   7.765 -0.4302 -0.0788  2.7574
   91CHL1  H15B 9160   1.791   3.761   7.754  0.7013 -0.0966  0.9739
   91CHL1   C16 9161   1.628   3.663   7.879 -0.0481 -0.1006 -0.2687
   91CHL1  H16A 9162   1.683   3.599   7.951  0.9347 -0.0429 -0.9462
   91CHL1  H16B 9163   1.615   3.766   7.916  2.4660  0.5250 -0.9239
   91CHL1   C17 9164   1.491   3.604   7.821 -0.7076  0.4114 -0.6451
   91CHL1   H17 9165   1.424   3.683   7.781  0.3645  0.2198 -2.9988
   91CHL1   C13 9166   1.536   3.542   7.682 -0.5496  0.7363 -0.0003
   91CHL1   C18 9167   1.575   3.393   7.700  0.5332 -0.1598 -0.1823
   91CHL1  H18A 9168   1.499   3.340   7.760 -1.0619  1.3254 -0.7866
   91CHL1  H18B 9169   1.604   3.342   7.605  1.9346 -2.8846  1.5948
   91CHL1  H18C 9170   1.663   3.384   7.767  0.5982  0.8476 -0.1117
   91CHL1   C12 9171   1.427   3.556   7.567 -0.2677  0.2370  0.2308
   91CHL1  H12A 9172   1.345   3.484   7.587  1.0933 -2.4573 -2.9424
   91CHL1  H12B 9173   1.392   3.661   7.560  0.7711  0.5190 -1.4044
   91CHL1   C11 9174   1.484   3.524   7.426 -0.5831 -0.2294  0.1497
   91CHL1  H11A 9175   1.496   3.414   7.417  1.5185 -0.1461  1.3484
   91CHL1  H11B 9176   1.409   3.545   7.346  0.7020 -2.5591 -1.7829
   91CHL1    C9 9177   1.618   3.594   7.391  1.0928  0.5423 -0.2008
   91CHL1    H9 9178   1.594   3.701   7.378  0.2324  0.1468 -2.1679
   91CHL1   C10 9179   1.682   3.555   7.255  0.7211  0.0461  0.5515
   91CHL1   C19 9180   1.693   3.400   7.253 -0.6456 -0.0431  0.3718
   91CHL1  H19A 9181   1.753   3.355   7.171 -1.6471  0.7274 -0.8306
   91CHL1  H19B 9182   1.725   3.362   7.352 -1.7827 -2.0854  0.0258
   91CHL1  H19C 9183   1.596   3.351   7.231 -0.6449  0.2537 -0.3155
   91CHL1    C1 9184   1.592   3.582   7.127  0.1505  0.4631 -0.4703
   91CHL1   H1A 9185   1.508   3.510   7.124 -0.3076  0.8517 -4.9524
   91CHL1   H1B 9186   1.553   3.686   7.137 -0.6110  0.0056  1.7342
   91CHL1    C2 9187   1.663   3.579   6.998 -0.7759 -0.7057  0.2303
   91CHL1   H2A 9188   1.593   3.636   6.934 -1.0793 -0.5681  0.6805
   91CHL1   H2B 9189   1.683   3.483   6.945  0.3405 -0.0486 -0.5737
   91CHL1   C20 9190   1.423   3.521   7.930 -0.0722  0.0939 -0.8193
   91CHL1   H20 9191   1.477   3.427   7.958 -0.2455  0.8855  2.4866
   91CHL1   C21 9192   1.290   3.468   7.874  0.4303 -0.4606 -0.0929
   91CHL1  H21A 9193   1.310   3.404   7.785 -0.7838  1.2621 -1.6892
   91CHL1  H21B 9194   1.213   3.542   7.843 -0.3487 -0.3767  1.8742
   91CHL1  H21C 9195   1.238   3.396   7.941 -0.5841 -1.1815 -1.5965
   91CHL1   C22 9196   1.399   3.590   8.067  0.2880 -0.7455  0.0471
   91CHL1  H22A 9197   1.493   3.624   8.116 -0.3472  2.6970 -0.8229
   91CHL1  H22B 9198   1.343   3.684   8.045  1.5930 -0.5765 -3.0471
   91CHL1   C23 9199   1.314   3.502   8.156  0.7308 -0.5477 -0.3494
   91CHL1  H23A 9200   1.205   3.503   8.135  0.4499  0.9940  0.9183
   91CHL1  H23B 9201   1.346   3.397   8.141 -2.9023 -1.5130 -2.5523
   91CHL1   C24 9202   1.328   3.541   8.306  0.4084  0.0035 -0.7354
   91CHL1  H24A 9203   1.432   3.541   8.343  0.1554  0.9679  0.0245
   91CHL1  H24B 9204   1.284   3.643   8.310 -2.5159 -1.1009 -1.5887
   91CHL1   C25 9205   1.242   3.454   8.395 -0.1436 -0.1762  0.4714
   91CHL1   H25 9206   1.145   3.439   8.343  0.4764  0.4312 -0.9236
   91CHL1   C26 9207   1.312   3.327   8.422 -0.4502  0.2966 -0.4120
   91CHL1  H26A 9208   1.248   3.258   8.481  0.5328 -1.4955 -1.3466
   91CHL1  H26B 9209   1.350   3.272   8.333 -0.8157 -0.6665  0.0104
   91CHL1  H26C 9210   1.402   3.332   8.486  0.2061 -2.1060 -1.0031
   91CHL1   C27 9211   1.213   3.529   8.522  0.4822 -0.3206  0.0913
   91CHL1  H27A 9212   1.139   3.607   8.494  4.0146  2.5894 -1.9024
   91CHL1  H27B 9213   1.169   3.455   8.592 -1.2408 -1.7395 -2.3283
   91CHL1  H27C 9214   1.301   3.582   8.563  0.1094  0.1833  0.2473
   92CHL1    C3 9215   4.211   4.518   6.662  0.1673 -0.1943 -0.8634
   92CHL1    H3 9216   4.238   4.625   6.677 -2.6820  0.7320 -1.7079
   92CHL1    O3 9217   4.197   4.486   6.520  0.1684  0.1415 -0.3351
   92CHL1   H3' 9218   4.166   4.396   6.530  0.3137  0.2313  1.1521
   92CHL1    C4 9219   4.297   4.413   6.727 -0.0796 -0.4568  0.1902
   92CHL1   H4A 9220   4.277   4.308   6.698  1.6155 -0.5474 -0.8386
   92CHL1   H4B 9221   4.400   4.437   6.692  0.1432  0.0969  1.1821
   92CHL1    C5 9222   4.292   4.432   6.880 -0.1023  0.0006 -0.6820
   92CHL1    C6 9223   4.402   4.452   6.952  0.2216  0.1666  0.3908
   92CHL1    H6 9224   4.498   4.450   6.899 -0.6338  1.0624 -1.2748
   92CHL1    C7 9225   4.407   4.465   7.097  0.2214  0.1949  0.2924
   92CHL1   H7A 9226   4.489   4.407   7.144 -1.9625 -2.2647  1.3617
   92CHL1   H7B 9227   4.425   4.572   7.121 -0.2858  0.5862 -0.9972
   92CHL1    C8 9228   4.275   4.415   7.168  0.5440 -0.3768 -0.2865
   92CHL1    H8 9229   4.268   4.305   7.158 -3.5717 -0.2761 -0.2560
   92CHL1   C14 9230   4.277   4.452   7.320  0.1985 -0.2997 -1.0563
   92CHL1   H14 9231   4.295   4.561   7.316  0.7725 -0.3949 -1.1569
   92CHL1   C15 9232   4.396   4.407   7.415 -0.1087 -0.3886 -0.3381
   92CHL1  H15A 9233   4.412   4.298   7.401 -0.7697 -0.7104  1.2361
   92CHL1  H15B 9234   4.488   4.467   7.403  1.0709 -2.1543 -0.3980
   92CHL1   C16 9235   4.330   4.421   7.552  0.5582 -0.3394  0.0371
   92CHL1  H16A 9236   4.323   4.327   7.611 -2.8771 -0.8613 -0.9693
   92CHL1  H16B 9237   4.401   4.481   7.612 -1.5724  2.0177  0.3879
   92CHL1   C17 9238   4.186   4.483   7.538 -0.2227 -0.1275  0.6473
   92CHL1   H17 9239   4.181   4.593   7.525  0.4074 -0.3215 -1.7472
   92CHL1   C13 9240   4.146   4.432   7.392 -0.3363  0.1868 -0.3022
   92CHL1   C18 9241   4.118   4.278   7.402 -0.4500  0.8803  0.2200
   92CHL1  H18A 9242   4.033   4.254   7.470  0.9245 -1.6179  1.1736
   92CHL1  H18B 9243   4.106   4.221   7.308 -0.7452  0.0813  0.7319
   92CHL1  H18C 9244   4.208   4.229   7.443 -0.2758  1.2830  0.3258
   92CHL1   C12 9245   4.033   4.495   7.311  0.4360 -0.8058 -0.7146
   92CHL1  H12A 9246   3.938   4.466   7.359  1.8559 -0.2057  2.7549
   92CHL1  H12B 9247   4.043   4.606   7.312 -1.2770 -0.5921 -2.2767
   92CHL1   C11 9248   4.028   4.457   7.167  0.8027  1.2579  0.4850
   92CHL1  H11A 9249   4.000   4.350   7.177  0.8658  1.1576 -0.3190
   92CHL1  H11B 9250   3.950   4.508   7.107  1.9081 -0.1547 -2.3348
   92CHL1    C9 9251   4.159   4.484   7.094  0.1623 -0.3527  0.0554
   92CHL1    H9 9252   4.180   4.593   7.097 -0.9994 -0.1288  1.0103
   92CHL1   C10 9253   4.157   4.433   6.952  0.2838 -0.4220 -0.0264
   92CHL1   C19 9254   4.096   4.290   6.945  0.3213  0.1733  0.2416
   92CHL1  H19A 9255   3.992   4.288   6.984 -0.3505  1.4878 -1.4037
   92CHL1  H19B 9256   4.079   4.256   6.840  0.9635 -1.0387  0.5143
   92CHL1  H19C 9257   4.153   4.216   7.005 -1.0226 -0.6914  0.5174
   92CHL1    C1 9258   4.072   4.529   6.866 -0.2855  0.0899  0.1565
   92CHL1   H1A 9259   3.967   4.518   6.903  0.2351  0.4418  1.8450
   92CHL1   H1B 9260   4.086   4.639   6.874 -0.6538  0.2073 -0.6593
   92CHL1    C2 9261   4.073   4.513   6.711  0.2175  0.0066 -0.4621
   92CHL1   H2A 9262   4.008   4.591   6.665 -0.7980 -0.1922  0.5869
   92CHL1   H2B 9263   4.035   4.411   6.688  2.1161 -1.2085  1.4368
   92CHL1   C20 9264   4.091   4.445   7.655 -0.2377  0.1710 -0.1331
   92CHL1   H20 9265   4.067   4.336   7.654  0.2032  0.0604  0.5303
   92CHL1   C21 9266   3.956   4.529   7.656 -0.6977 -0.0256  0.3664
   92CHL1  H21A 9267   3.982   4.633   7.689 -0.1899 -0.4373  1.3237
   92CHL1  H21B 9268   3.881   4.478   7.719  1.3718 -2.3267  1.1326
   92CHL1  H21C 9269   3.910   4.550   7.558 -0.0609  0.3904  0.1459
   92CHL1   C22 9270   4.159   4.461   7.796 -0.3986  0.1580 -0.4815
   92CHL1  H22A 9271   4.224   4.372   7.810  0.8246  0.9274 -1.1029
   92CHL1  H22B 9272   4.222   4.553   7.794  0.0088 -0.0508  1.1927
   92CHL1   C23 9273   4.059   4.464   7.917 -0.6939  0.4510  0.4033
   92CHL1  H23A 9274   4.015   4.566   7.926 -1.8798 -0.0111  0.0356
   92CHL1  H23B 9275   3.994   4.375   7.912  1.9976 -1.5596 -1.0842
   92CHL1   C24 9276   4.139   4.446   8.056 -0.0085 -0.1326  0.2628
   92CHL1  H24A 9277   4.185   4.345   8.053 -0.6710 -0.4224 -0.6229
   92CHL1  H24B 9278   4.226   4.515   8.057  0.3884 -0.5922 -0.7178
   92CHL1   C25 9279   4.045   4.473   8.177 -0.1288  0.0449 -0.1981
   92CHL1   H25 9280   4.020   4.581   8.186  0.3949  0.1442  0.0897
   92CHL1   C26 9281   3.925   4.383   8.171  0.0815 -0.1014 -0.5177
   92CHL1  H26A 9282   3.856   4.413   8.089 -1.7372 -0.3576  0.8406
   92CHL1  H26B 9283   3.955   4.280   8.141  1.5213 -0.1187  0.8290
   92CHL1  H26C 9284   3.854   4.384   8.257 -0.8724  1.8426 -1.2693
   92CHL1   C27 9285   4.130   4.441   8.306 -0.0841 -0.3751  0.1451
   92CHL1  H27A 9286   4.164   4.335   8.306 -2.1502 -1.0878 -0.8318
   92CHL1  H27B 9287   4.208   4.519   8.321 -0.7915  0.2224  0.7702
   92CHL1  H27C 9288   4.068   4.446   8.398  1.5239  0.0842  1.2586
   93CHL1    C3 9289   3.607   4.381   6.701  0.1845 -0.8550 -0.6830
   93CHL1    H3 9290   3.531   4.459   6.681 -0.9811 -1.7378  0.1444
   93CHL1    O3 9291   3.674   4.350   6.582  0.2922  0.0347  0.3204
   93CHL1   H3' 9292   3.734   4.276   6.595  0.6372 -0.1406 -1.8891
   93CHL1    C4 9293   3.713   4.432   6.804 -0.3377 -0.6483  0.7011
   93CHL1   H4A 9294   3.798   4.360   6.796 -1.8753 -2.5033  0.3079
   93CHL1   H4B 9295   3.756   4.528   6.769 -0.3396 -0.9441 -0.1290
   93CHL1    C5 9296   3.661   4.453   6.949 -0.1483  0.1308  0.5173
   93CHL1    C6 9297   3.674   4.566   7.019  0.3069 -0.1569  0.2924
   93CHL1    H6 9298   3.726   4.647   6.965 -0.2126  0.2302  0.3667
   93CHL1    C7 9299   3.631   4.585   7.157  0.4160  0.2309  0.3119
   93CHL1   H7A 9300   3.697   4.656   7.212  0.2297  1.2752 -0.7545
   93CHL1   H7B 9301   3.534   4.637   7.145 -0.0557 -0.5359  0.7599
   93CHL1    C8 9302   3.623   4.448   7.226  0.8284  0.2030  0.7659
   93CHL1    H8 9303   3.729   4.417   7.238  1.4895  0.2734 -3.2507
   93CHL1   C14 9304   3.552   4.462   7.357  0.2584  0.8252 -0.2615
   93CHL1   H14 9305   3.446   4.493   7.340  0.1993  1.8883  1.7719
   93CHL1   C15 9306   3.607   4.560   7.457  0.4368  0.0632 -0.2725
   93CHL1  H15A 9307   3.718   4.556   7.469  0.4371  1.5985  0.4340
   93CHL1  H15B 9308   3.574   4.664   7.437 -2.0911 -0.5273  0.4442
   93CHL1   C16 9309   3.549   4.518   7.594  0.3351 -0.0739 -0.5623
   93CHL1  H16A 9310   3.632   4.506   7.667  1.3662  1.8278 -1.3529
   93CHL1  H16B 9311   3.485   4.603   7.628  1.1472  1.0937 -1.8428
   93CHL1   C17 9312   3.469   4.378   7.566  0.4563 -0.1267 -0.2321
   93CHL1   H17 9313   3.367   4.404   7.532  0.8830 -1.2977 -2.6150
   93CHL1   C13 9314   3.532   4.329   7.436 -0.8839 -0.3495  0.3666
   93CHL1   C18 9315   3.679   4.269   7.458 -0.3018  0.0661 -0.1740
   93CHL1  H18A 9316   3.657   4.181   7.523 -0.7317  0.5150  0.2934
   93CHL1  H18B 9317   3.736   4.245   7.365 -0.7624 -0.2104 -0.3885
   93CHL1  H18C 9318   3.741   4.336   7.520 -1.5651  0.3414  0.8368
   93CHL1   C12 9319   3.438   4.237   7.353  0.4435  0.8151 -0.2557
   93CHL1  H12A 9320   3.419   4.146   7.413  2.5252  1.0758  0.8696
   93CHL1  H12B 9321   3.341   4.285   7.326 -0.0604 -0.3469 -0.5936
   93CHL1   C11 9322   3.507   4.207   7.218  0.2588  0.4073  0.1116
   93CHL1  H11A 9323   3.585   4.130   7.230 -0.4400 -0.8198 -2.4911
   93CHL1  H11B 9324   3.443   4.147   7.150  0.8588 -0.8367  0.6216
   93CHL1    C9 9325   3.545   4.342   7.147  0.4135  0.9729 -0.3642
   93CHL1    H9 9326   3.448   4.390   7.122 -0.0696 -0.5552 -1.5729
   93CHL1   C10 9327   3.598   4.321   7.001 -0.9273  0.5933  0.1622
   93CHL1   C19 9328   3.712   4.211   7.014  0.3090 -0.4055  0.3102
   93CHL1  H19A 9329   3.765   4.186   6.920 -0.6581 -1.1025 -0.0663
   93CHL1  H19B 9330   3.778   4.235   7.100 -2.1092  0.8482  1.9489
   93CHL1  H19C 9331   3.659   4.116   7.037  0.8487 -0.5093  1.1497
   93CHL1    C1 9332   3.490   4.275   6.901 -0.1139  0.5262 -0.4125
   93CHL1   H1A 9333   3.448   4.180   6.941  3.2893 -1.2830 -0.7603
   93CHL1   H1B 9334   3.403   4.344   6.903 -1.0732 -0.6035 -1.0962
   93CHL1    C2 9335   3.534   4.257   6.761  0.1606 -0.0968  0.0477
   93CHL1   H2A 9336   3.448   4.230   6.695 -1.0083 -0.4522  1.6595
   93CHL1   H2B 9337   3.596   4.164   6.760 -0.3202 -0.4411  0.9669
   93CHL1   C20 9338   3.458   4.292   7.693 -0.1976  0.5900 -0.3044
   93CHL1   H20 9339   3.560   4.288   7.737 -0.7153  2.3188  1.1825
   93CHL1   C21 9340   3.411   4.149   7.665 -0.2535 -0.1519 -0.6100
   93CHL1  H21A 9341   3.402   4.083   7.755  1.6984 -1.0476 -1.0127
   93CHL1  H21B 9342   3.479   4.085   7.605  0.1944  0.5482 -0.8529
   93CHL1  H21C 9343   3.310   4.159   7.620 -0.7284 -1.6399  0.0518
   93CHL1   C22 9344   3.385   4.351   7.818  0.2502  0.4835  1.3223
   93CHL1  H22A 9345   3.412   4.459   7.811  3.0858 -0.2005  0.4820
   93CHL1  H22B 9346   3.274   4.337   7.821  0.0206  2.2386  2.3150
   93CHL1   C23 9347   3.437   4.288   7.955 -0.0817  0.2124 -0.8281
   93CHL1  H23A 9348   3.410   4.180   7.950  1.9229 -0.5134  1.7664
   93CHL1  H23B 9349   3.546   4.308   7.958 -0.6340  3.8315 -0.3170
   93CHL1   C24 9350   3.366   4.356   8.079 -1.0052 -0.8926  0.1515
   93CHL1  H24A 9351   3.400   4.460   8.099  2.7413 -1.7890 -0.8345
   93CHL1  H24B 9352   3.260   4.363   8.045 -0.7639  1.5640 -0.2924
   93CHL1   C25 9353   3.377   4.265   8.201 -0.5579 -0.4802  0.7062
   93CHL1   H25 9354   3.341   4.164   8.172  1.0773 -0.8264 -0.2506
   93CHL1   C26 9355   3.524   4.249   8.249  0.1422 -0.2710  0.4791
   93CHL1  H26A 9356   3.582   4.342   8.234  0.4547 -0.7677 -1.8399
   93CHL1  H26B 9357   3.527   4.222   8.356  2.0072  0.6919  0.7001
   93CHL1  H26C 9358   3.572   4.166   8.192  0.1360  0.4708 -0.6472
   93CHL1   C27 9359   3.282   4.325   8.309 -0.4322 -0.1665  0.0730
   93CHL1  H27A 9360   3.297   4.283   8.411 -0.0152  0.2754  0.1958
   93CHL1  H27B 9361   3.284   4.436   8.311 -2.9092  0.0462 -2.6614
   93CHL1  H27C 9362   3.177   4.292   8.290 -0.2559  0.3600 -2.0685
   94CHL1    C3 9363   5.606   4.910   6.872  0.0558  0.4311 -0.7218
   94CHL1    H3 9364   5.661   5.005   6.891 -0.2995  0.5977 -0.5190
   94CHL1    O3 9365   5.586   4.911   6.732  0.3064 -0.2754  0.4867
   94CHL1   H3' 9366   5.499   4.874   6.715 -0.6831  2.6798 -1.6330
   94CHL1    C4 9367   5.700   4.798   6.921 -0.4657 -0.4756  0.1204
   94CHL1   H4A 9368   5.666   4.697   6.890 -0.0344 -0.0426 -1.9208
   94CHL1   H4B 9369   5.793   4.824   6.866  0.0902 -1.6396  0.4795
   94CHL1    C5 9370   5.725   4.795   7.070 -0.5194 -1.2287 -0.4003
   94CHL1    C6 9371   5.847   4.776   7.131 -1.2569  0.1304 -0.2140
   94CHL1    H6 9372   5.935   4.759   7.066 -1.4165 -1.9642  0.0506
   94CHL1    C7 9373   5.865   4.756   7.280 -0.5415  0.3772 -0.5933
   94CHL1   H7A 9374   5.938   4.674   7.295 -0.9288 -0.0296 -0.9125
   94CHL1   H7B 9375   5.897   4.853   7.323 -0.3247 -0.8017  2.1341
   94CHL1    C8 9376   5.735   4.728   7.359 -0.6205 -0.4388  0.5151
   94CHL1    H8 9377   5.705   4.621   7.347 -2.2424  0.2179 -2.0278
   94CHL1   C14 9378   5.758   4.750   7.505 -0.8500  0.2891 -0.1253
   94CHL1   H14 9379   5.800   4.852   7.518 -0.6356  0.8384 -4.0454
   94CHL1   C15 9380   5.880   4.663   7.580  0.4374 -0.1042  0.3472
   94CHL1  H15A 9381   5.876   4.556   7.549  2.3686  0.1644 -1.0138
   94CHL1  H15B 9382   5.976   4.703   7.541  1.2492 -1.8315  0.5143
   94CHL1   C16 9383   5.856   4.682   7.727  0.0513  0.2576 -0.2307
   94CHL1  H16A 9384   5.854   4.579   7.768  0.1862 -0.2796 -1.5380
   94CHL1  H16B 9385   5.934   4.751   7.766 -1.2561  2.4737 -1.3500
   94CHL1   C17 9386   5.719   4.760   7.739  0.7179 -0.1998  0.1257
   94CHL1   H17 9387   5.750   4.867   7.739  1.4273 -0.4007  0.3836
   94CHL1   C13 9388   5.643   4.739   7.599 -0.0066 -0.7890  0.1089
   94CHL1   C18 9389   5.577   4.601   7.603 -0.5138  0.0273 -0.4905
   94CHL1  H18A 9390   5.646   4.522   7.638 -1.2774 -0.6950 -0.5706
   94CHL1  H18B 9391   5.483   4.601   7.662  0.0277  1.1701  0.4014
   94CHL1  H18C 9392   5.548   4.568   7.501  2.0943 -2.2418 -0.5940
   94CHL1   C12 9393   5.547   4.853   7.555  0.3074  0.1038 -0.1135
   94CHL1  H12A 9394   5.459   4.849   7.622  0.2925 -0.1665 -0.1464
   94CHL1  H12B 9395   5.591   4.955   7.553  2.5062 -0.7922 -0.9319
   94CHL1   C11 9396   5.507   4.831   7.407  0.1503  0.5604 -0.4935
   94CHL1  H11A 9397   5.446   4.738   7.398  0.3545  0.3853 -0.0628
   94CHL1  H11B 9398   5.445   4.920   7.380 -3.1454 -2.2723 -3.3931
   94CHL1    C9 9399   5.619   4.820   7.307 -0.4921  0.2610  0.5571
   94CHL1    H9 9400   5.661   4.921   7.326  1.2300 -0.3756  0.3269
   94CHL1   C10 9401   5.592   4.801   7.159 -0.0383 -0.1270 -0.5295
   94CHL1   C19 9402   5.530   4.660   7.138 -0.3002  0.1460  0.2812
   94CHL1  H19A 9403   5.605   4.585   7.170  0.1525  1.6273  3.0741
   94CHL1  H19B 9404   5.438   4.662   7.200  0.1608  4.0732  1.1480
   94CHL1  H19C 9405   5.503   4.643   7.032 -1.6131  1.1712  0.4234
   94CHL1    C1 9406   5.503   4.917   7.103  1.1416 -0.5825 -0.3298
   94CHL1   H1A 9407   5.414   4.943   7.164  0.3121 -2.4069 -0.6783
   94CHL1   H1B 9408   5.576   5.000   7.108  0.4051  0.1995 -1.8914
   94CHL1    C2 9409   5.474   4.916   6.951 -0.1527  0.2483  0.9559
   94CHL1   H2A 9410   5.417   5.006   6.921  1.5177  1.7722  2.1851
   94CHL1   H2B 9411   5.414   4.825   6.926  0.7758 -0.8474  2.5221
   94CHL1   C20 9412   5.647   4.741   7.877 -0.0585 -0.4931  0.3361
   94CHL1   H20 9413   5.556   4.680   7.862 -1.7570  1.8870  0.2796
   94CHL1   C21 9414   5.578   4.877   7.924  0.1262  0.0378 -0.0222
   94CHL1  H21A 9415   5.650   4.960   7.937 -0.1843  0.2072  0.6921
   94CHL1  H21B 9416   5.518   4.861   8.016  1.1482 -0.1883  0.6161
   94CHL1  H21C 9417   5.509   4.908   7.843 -0.6609 -1.4527  0.0395
   94CHL1   C22 9418   5.750   4.682   7.983  0.1713 -0.3703  0.3450
   94CHL1  H22A 9419   5.783   4.581   7.950  0.8172 -0.1892  0.4220
   94CHL1  H22B 9420   5.845   4.738   7.992 -1.1801  2.1351  0.0815
   94CHL1   C23 9421   5.688   4.672   8.118  0.1608  0.1997  0.1115
   94CHL1  H23A 9422   5.643   4.767   8.151 -1.0403  0.3661 -1.8080
   94CHL1  H23B 9423   5.598   4.606   8.111 -0.1244  0.4729  1.0211
   94CHL1   C24 9424   5.784   4.595   8.217  0.5612 -0.5209 -0.2512
   94CHL1  H24A 9425   5.833   4.505   8.172  0.1344 -0.5332 -0.6906
   94CHL1  H24B 9426   5.875   4.655   8.241  0.4265 -0.5659  0.3952
   94CHL1   C25 9427   5.730   4.526   8.351  0.3010 -0.3710  0.3140
   94CHL1   H25 9428   5.638   4.475   8.314  1.0012 -1.1332 -0.4145
   94CHL1   C26 9429   5.819   4.434   8.414  0.2335 -0.3713 -0.0654
   94CHL1  H26A 9430   5.775   4.402   8.511  1.5047  2.1123  1.4319
   94CHL1  H26B 9431   5.845   4.350   8.346 -1.6556 -0.7020 -0.4379
   94CHL1  H26C 9432   5.912   4.489   8.440  0.8972 -1.0846 -0.8756
   94CHL1   C27 9433   5.685   4.617   8.463 -0.1132 -0.0654  0.0295
   94CHL1  H27A 9434   5.635   4.565   8.547 -0.3380 -0.0306 -0.0802
   94CHL1  H27B 9435   5.766   4.680   8.505 -1.5979  0.9719  1.4821
   94CHL1  H27C 9436   5.605   4.685   8.423 -2.1405 -1.3165  1.7608
   95CHL1    C3 9437   3.895   2.872   6.676  0.4654 -0.6885 -0.2434
   95CHL1    H3 9438   4.002   2.903   6.688  0.3281  0.4907 -1.6884
   95CHL1    O3 9439   3.873   2.853   6.540  0.0101 -0.2389 -0.0940
   95CHL1   H3' 9440   3.815   2.924   6.513  1.3813  0.1770 -2.1822
   95CHL1    C4 9441   3.859   2.747   6.759  0.7545 -0.9822 -0.0717
   95CHL1   H4A 9442   3.749   2.728   6.756  0.4811  0.4507  0.1357
   95CHL1   H4B 9443   3.913   2.664   6.709  0.0618 -0.0330 -2.5656
   95CHL1    C5 9444   3.908   2.769   6.898 -0.4082 -0.0902 -0.3573
   95CHL1    C6 9445   4.011   2.696   6.941  0.5269  0.5054 -0.7583
   95CHL1    H6 9446   4.051   2.613   6.882 -0.5410  0.9720 -2.2013
   95CHL1    C7 9447   4.071   2.720   7.075 -0.2726 -0.4926  0.0395
   95CHL1   H7A 9448   4.097   2.622   7.119  1.9547 -0.7652 -1.7123
   95CHL1   H7B 9449   4.166   2.779   7.070  0.9209 -2.4103 -1.5544
   95CHL1    C8 9450   3.974   2.799   7.167 -0.4799  0.5291  0.9793
   95CHL1    H8 9451   3.896   2.728   7.202  0.2576 -0.3152  0.9708
   95CHL1   C14 9452   4.054   2.835   7.298 -0.2850 -0.1500  0.0178
   95CHL1   H14 9453   4.129   2.908   7.260 -2.8601  0.9808 -3.3789
   95CHL1   C15 9454   4.113   2.717   7.388 -0.3768 -0.0055 -0.3355
   95CHL1  H15A 9455   4.041   2.632   7.394 -0.7598  0.3933  1.2295
   95CHL1  H15B 9456   4.214   2.683   7.355  0.5909  0.8542  1.5485
   95CHL1   C16 9457   4.118   2.774   7.529 -0.2532  0.0562 -0.2699
   95CHL1  H16A 9458   4.055   2.727   7.607 -1.3057  3.2961  0.9759
   95CHL1  H16B 9459   4.225   2.782   7.557 -0.5496  1.5052  0.5320
   95CHL1   C17 9460   4.055   2.917   7.529  0.5748  0.6859  0.3318
   95CHL1   H17 9461   4.141   2.980   7.500  1.5427 -0.8598 -0.2820
   95CHL1   C13 9462   3.965   2.920   7.398  0.5556 -0.0345  0.4402
   95CHL1   C18 9463   3.831   2.853   7.433 -0.0923  0.7199  0.6335
   95CHL1  H18A 9464   3.768   2.924   7.491 -0.8469  0.9369 -0.4337
   95CHL1  H18B 9465   3.770   2.824   7.345  1.8059 -1.7399  0.0107
   95CHL1  H18C 9466   3.840   2.766   7.502 -0.9424 -0.6046 -0.8641
   95CHL1   C12 9467   3.937   3.051   7.324  0.5517 -0.9327 -0.2967
   95CHL1  H12A 9468   3.873   3.114   7.390 -0.2261 -0.6620 -1.2792
   95CHL1  H12B 9469   4.032   3.107   7.309  0.4677 -0.2545  1.4791
   95CHL1   C11 9470   3.872   3.031   7.187 -0.5333  0.2694 -0.1316
   95CHL1  H11A 9471   3.768   3.004   7.214  0.6546 -0.9683  3.9352
   95CHL1  H11B 9472   3.871   3.132   7.139 -1.9478 -0.2509 -1.2635
   95CHL1    C9 9473   3.934   2.921   7.097  0.4238  0.4863 -0.2880
   95CHL1    H9 9474   4.026   2.968   7.057  0.9232 -1.4918 -1.6335
   95CHL1   C10 9475   3.848   2.894   6.971 -0.9079  0.5073 -0.6637
   95CHL1   C19 9476   3.701   2.862   6.986  0.0609  0.8634  0.1168
   95CHL1  H19A 9477   3.640   2.923   7.057 -2.9438 -3.2861  1.4883
   95CHL1  H19B 9478   3.642   2.873   6.892 -0.8629 -2.4264  0.1932
   95CHL1  H19C 9479   3.683   2.763   7.034 -3.0437  0.5826 -1.3897
   95CHL1    C1 9480   3.864   3.019   6.879 -0.0195  0.2482 -0.1286
   95CHL1   H1A 9481   3.816   3.110   6.920  1.3592  0.7458  0.4467
   95CHL1   H1B 9482   3.974   3.024   6.867  0.3510 -2.8938  0.8073
   95CHL1    C2 9483   3.824   3.000   6.735  0.2322  0.5427  1.0428
   95CHL1   H2A 9484   3.853   3.083   6.668  0.6956 -0.4351 -0.0008
   95CHL1   H2B 9485   3.715   2.985   6.721  0.1351  0.5216  1.7637
   95CHL1   C20 9486   4.001   2.960   7.667  0.3931  0.8080 -0.4006
   95CHL1   H20 9487   3.911   2.902   7.696  0.6308  1.4155  1.6634
   95CHL1   C21 9488   3.971   3.112   7.671 -0.1655  0.0198  0.2980
   95CHL1  H21A 9489   3.930   3.149   7.768  0.0834 -0.4342  0.5776
   95CHL1  H21B 9490   3.892   3.142   7.598  0.8383 -2.0023 -1.7288
   95CHL1  H21C 9491   4.063   3.163   7.634  1.0248 -2.3025 -0.0844
   95CHL1   C22 9492   4.109   2.930   7.777 -0.0294  0.3057 -0.3777
   95CHL1  H22A 9493   4.137   2.823   7.767  1.0789  0.6689 -1.3189
   95CHL1  H22B 9494   4.206   2.973   7.746  0.3849  0.2692  0.7994
   95CHL1   C23 9495   4.067   2.942   7.920  0.2161  0.1485  0.4443
   95CHL1  H23A 9496   4.031   3.044   7.946 -2.4189 -1.0408  1.9097
   95CHL1  H23B 9497   3.977   2.879   7.933 -0.9981  1.3466 -1.5521
   95CHL1   C24 9498   4.170   2.905   8.027 -0.2857 -0.4319  0.8968
   95CHL1  H24A 9499   4.181   2.794   8.031  1.8228 -0.2745  0.6190
   95CHL1  H24B 9500   4.272   2.944   8.008 -2.1061  2.8813 -3.8890
   95CHL1   C25 9501   4.115   2.951   8.159  0.2247 -0.3141 -0.8031
   95CHL1   H25 9502   4.005   2.936   8.161  0.0836  0.6623 -0.7379
   95CHL1   C26 9503   4.175   2.867   8.272  0.7185 -0.5698 -0.1862
   95CHL1  H26A 9504   4.285   2.862   8.258  0.7519 -1.0166  0.2224
   95CHL1  H26B 9505   4.154   2.925   8.365  2.8890  0.5543 -0.3378
   95CHL1  H26C 9506   4.133   2.764   8.275 -0.8683  0.0233 -0.9341
   95CHL1   C27 9507   4.151   3.098   8.186  0.6053 -0.2549 -1.1577
   95CHL1  H27A 9508   4.258   3.118   8.207  0.6168 -1.0432 -0.4015
   95CHL1  H27B 9509   4.108   3.162   8.106 -0.5547  0.3926 -0.0669
   95CHL1  H27C 9510   4.089   3.128   8.274 -0.5913  0.9657 -2.3758
   96CHL1    C3 9511   4.212   3.130   6.686  0.0328 -1.1034  0.3123
   96CHL1    H3 9512   4.118   3.178   6.719  2.1485  3.1702  0.7755
   96CHL1    O3 9513   4.212   3.065   6.555  0.0889  0.1680  0.3122
   96CHL1   H3' 9514   4.262   3.124   6.499  1.5426 -1.5939 -0.3429
   96CHL1    C4 9515   4.306   3.250   6.701  0.1997  0.5489 -0.0247
   96CHL1   H4A 9516   4.407   3.217   6.670  0.2958  0.9462 -0.1488
   96CHL1   H4B 9517   4.281   3.334   6.632  1.3833  0.3477 -0.7184
   96CHL1    C5 9518   4.307   3.295   6.850  0.0750 -0.2527  0.2050
   96CHL1    C6 9519   4.275   3.421   6.886 -0.0433 -0.5028 -0.3704
   96CHL1    H6 9520   4.221   3.481   6.811  0.7532 -1.1272 -1.4831
   96CHL1    C7 9521   4.282   3.465   7.031 -0.7466  0.4019 -0.3698
   96CHL1   H7A 9522   4.302   3.573   7.050  1.1287  0.1141 -0.4727
   96CHL1   H7B 9523   4.179   3.447   7.069  0.6636 -4.1286  1.9984
   96CHL1    C8 9524   4.375   3.379   7.121  0.5588 -0.0887 -0.2154
   96CHL1    H8 9525   4.482   3.392   7.092  0.9857 -0.8766  0.9204
   96CHL1   C14 9526   4.342   3.413   7.271 -0.3383  0.0061  0.1752
   96CHL1   H14 9527   4.236   3.384   7.287 -0.5396  0.4366 -0.3830
   96CHL1   C15 9528   4.347   3.556   7.313 -0.0667 -0.4765  0.4499
   96CHL1  H15A 9529   4.442   3.593   7.269 -0.4116  1.3314  1.1414
   96CHL1  H15B 9530   4.256   3.605   7.272  0.1059 -0.3716  0.1900
   96CHL1   C16 9531   4.342   3.537   7.468 -0.3213  0.1452  0.2475
   96CHL1  H16A 9532   4.429   3.596   7.504 -1.3919  1.5629  0.5854
   96CHL1  H16B 9533   4.258   3.584   7.523  0.6233 -0.4324  2.2837
   96CHL1   C17 9534   4.359   3.387   7.505  0.5434 -0.2884 -0.3540
   96CHL1   H17 9535   4.259   3.346   7.531  0.0954  0.4804 -0.8300
   96CHL1   C13 9536   4.402   3.325   7.378 -0.0443  0.3851 -0.1630
   96CHL1   C18 9537   4.563   3.347   7.360 -0.0791  0.5792 -0.7868
   96CHL1  H18A 9538   4.594   3.450   7.387  0.1350  0.2898  0.1003
   96CHL1  H18B 9539   4.604   3.282   7.441  2.4546  2.0878 -0.7537
   96CHL1  H18C 9540   4.610   3.323   7.262 -0.3516  0.1925 -0.8232
   96CHL1   C12 9541   4.363   3.184   7.350  0.0155  0.2632  0.5276
   96CHL1  H12A 9542   4.432   3.127   7.416  0.3778 -0.6803 -0.6286
   96CHL1  H12B 9543   4.254   3.176   7.369 -0.4196  2.6463 -0.5119
   96CHL1   C11 9544   4.397   3.135   7.198  0.3735 -0.6691 -0.9462
   96CHL1  H11A 9545   4.507   3.138   7.178  0.7158 -0.8653  0.7162
   96CHL1  H11B 9546   4.365   3.031   7.174 -1.3625 -0.0963 -1.2064
   96CHL1    C9 9547   4.338   3.232   7.094  0.2067  0.0029  0.6646
   96CHL1    H9 9548   4.229   3.229   7.116 -0.0688  0.1721 -0.5875
   96CHL1   C10 9549   4.356   3.188   6.945 -0.0683  0.0152  0.5750
   96CHL1   C19 9550   4.501   3.149   6.918 -0.4457  0.3506  0.4134
   96CHL1  H19A 9551   4.522   3.137   6.809 -0.4542  0.9901  0.3395
   96CHL1  H19B 9552   4.574   3.229   6.941  0.5293 -0.9493  2.1148
   96CHL1  H19C 9553   4.531   3.058   6.975 -0.6978  0.5944  0.9403
   96CHL1    C1 9554   4.253   3.079   6.927  0.5523  0.4159  0.8715
   96CHL1   H1A 9555   4.255   2.986   6.988 -1.7797 -0.7115 -0.6166
   96CHL1   H1B 9556   4.155   3.123   6.953 -0.4644 -0.3427 -1.4311
   96CHL1    C2 9557   4.241   3.018   6.788 -0.7179 -0.1823  0.3400
   96CHL1   H2A 9558   4.155   2.948   6.792  0.6261 -1.9685 -0.5497
   96CHL1   H2B 9559   4.339   2.971   6.762 -1.2616 -1.4110  0.4297
   96CHL1   C20 9560   4.436   3.364   7.633 -0.1658 -0.0538 -0.7900
   96CHL1   H20 9561   4.540   3.403   7.626  0.8254 -2.5835 -1.0733
   96CHL1   C21 9562   4.435   3.214   7.662 -0.2334 -0.1107  0.4374
   96CHL1  H21A 9563   4.425   3.214   7.773 -1.7146  2.0262  0.3744
   96CHL1  H21B 9564   4.529   3.172   7.620  2.5966  4.5777  1.2086
   96CHL1  H21C 9565   4.342   3.163   7.629 -2.4505  1.7369  3.2763
   96CHL1   C22 9566   4.374   3.439   7.758  0.4748  0.7978  0.2785
   96CHL1  H22A 9567   4.360   3.546   7.729 -3.1713  0.4770  0.3265
   96CHL1  H22B 9568   4.275   3.393   7.781  0.3186  1.6825  1.4705
   96CHL1   C23 9569   4.464   3.449   7.881 -0.0448 -0.6349 -0.0479
   96CHL1  H23A 9570   4.486   3.355   7.935 -0.2150 -0.2426  0.7221
   96CHL1  H23B 9571   4.563   3.486   7.847  0.6064 -3.2302 -1.1861
   96CHL1   C24 9572   4.406   3.542   8.000 -0.4565  0.5571  0.2221
   96CHL1  H24A 9573   4.400   3.646   7.964 -1.6881  0.2252 -0.5827
   96CHL1  H24B 9574   4.305   3.506   8.030 -0.1022 -0.9854 -0.3484
   96CHL1   C25 9575   4.492   3.557   8.123  0.0056  0.7145  0.7035
   96CHL1   H25 9576   4.599   3.577   8.101 -0.2220  1.2216  0.0207
   96CHL1   C26 9577   4.446   3.674   8.213  0.0973 -0.1158 -0.3837
   96CHL1  H26A 9578   4.487   3.676   8.316  1.4148  1.9444 -0.8903
   96CHL1  H26B 9579   4.467   3.773   8.168 -0.9569  0.2721 -0.0593
   96CHL1  H26C 9580   4.336   3.669   8.230 -0.0105  1.2853 -0.5936
   96CHL1   C27 9581   4.477   3.429   8.203 -0.6233 -0.0834 -0.5974
   96CHL1  H27A 9582   4.539   3.349   8.158 -1.8071 -0.4801 -1.5987
   96CHL1  H27B 9583   4.508   3.447   8.308 -3.0668  0.2358  0.1303
   96CHL1  H27C 9584   4.372   3.391   8.202  0.1183 -2.2541 -0.7487
   97OSM      N 9585   3.687   3.218  11.253  0.7420 -0.0615  0.1463
   97OSM    C15 9586   3.694   3.104  11.153  0.4772 -0.1456 -0.1910
   97OSM   H15A 9587   3.722   3.007  11.192  0.1802 -0.1569  0.0009
   97OSM   H15B 9588   3.759   3.130  11.071  0.3317 -0.2338 -0.3342
   97OSM   H15C 9589   3.596   3.086  11.110 -0.2514  1.1351  0.8660
   97OSM    C14 9590   3.624   3.182  11.379 -0.9238  0.0347 -0.0332
   97OSM   H14A 9591   3.517   3.179  11.368 -1.1651  0.0770  1.9257
   97OSM   H14B 9592   3.621   3.264  11.449 -0.6867  0.1505 -0.1594
   97OSM   H14C 9593   3.664   3.094  11.429 -0.0538  0.8707  0.7924
   97OSM    C13 9594   3.830   3.254  11.275  0.7568  0.1871  0.5022
   97OSM   H13A 9595   3.874   3.302  11.189  0.5548  3.0405  1.8847
   97OSM   H13B 9596   3.884   3.164  11.303  0.0448 -0.7531 -0.9999
   97OSM   H13C 9597   3.841   3.320  11.359 -0.0146 -0.2537  0.9574
   97OSM    C12 9598   3.610   3.339  11.208 -0.3407  0.6516 -0.1232
   97OSM   H12A 9599   3.608   3.415  11.284 -0.6790 -0.4474  0.9893
   97OSM   H12B 9600   3.507   3.318  11.186  0.0659 -0.1028 -1.4259
   97OSM    C11 9601   3.675   3.403  11.091 -0.2177 -0.2778  0.1801
   97OSM   H11A 9602   3.687   3.329  11.009 -1.7949  1.1774 -1.4469
   97OSM   H11B 9603   3.774   3.446  11.118 -0.2103 -1.5420  2.3459
   97OSM      P 9604   3.573   3.649  11.102 -0.0077 -0.0160 -0.0122
   97OSM    O13 9605   3.437   3.698  11.079  0.8784 -0.2453 -0.0757
   97OSM    O14 9606   3.612   3.648  11.244  0.0487 -0.0976 -0.0527
   97OSM    O11 9607   3.679   3.735  11.021  0.8189 -0.1531 -0.3474
   97OSM    O12 9608   3.582   3.501  11.042 -0.2532 -0.4537  0.0550
   97OSM    C1S 9609   3.704   3.702  10.882 -0.3069  0.8053  0.0347
   97OSM    H1S 9610   3.709   3.593  10.863 -1.6235  0.9725 -1.4528
   97OSM    H1T 9611   3.801   3.737  10.840 -0.2753  0.3836 -0.2560
   97OSM     NF 9612   3.632   3.720  10.642 -0.2863 -0.3135  0.3122
   97OSM    HNF 9613   3.676   3.792  10.589 -0.7427  1.3740  2.1047
   97OSM    C2S 9614   3.600   3.765  10.779 -0.6530  0.5890 -0.3332
   97OSM    H2S 9615   3.497   3.733  10.806 -1.1610  1.2554 -1.4223
   97OSM    C3S 9616   3.593   3.914  10.794  0.3056  0.5338 -0.3292
   97OSM    H3S 9617   3.695   3.958  10.794  0.4566  0.3970  2.6850
   97OSM     O3 9618   3.535   3.954  10.923 -0.9689  0.2338  0.1239
   97OSM    HO3 9619   3.580   3.884  10.971  0.2620  0.1291 -1.1322
   97OSM    C4S 9620   3.504   3.975  10.685  0.5815  0.7970  0.6260
   97OSM    H4S 9621   3.396   3.961  10.700  0.7508  0.1040  1.2732
   97OSM    C5S 9622   3.547   4.056  10.585 -0.5878 -0.5135  0.2131
   97OSM    H5S 9623   3.657   4.063  10.575 -0.2232  0.2421  3.5576
   97OSM    C6S 9624   3.465   4.113  10.469 -0.6457 -0.0691 -0.2805
   97OSM    H6S 9625   3.524   4.094  10.377 -1.1503 -0.7237 -0.4781
   97OSM    H6T 9626   3.460   4.222  10.489  3.7226 -0.1922  3.0732
   97OSM    C7S 9627   3.322   4.058  10.453 -0.3152  0.4898  0.6025
   97OSM    H7S 9628   3.267   4.132  10.391 -0.2105 -0.1353 -0.2415
   97OSM    H7T 9629   3.272   4.064  10.552 -0.8262 -0.6742  0.4208
   97OSM    C8S 9630   3.311   3.916  10.396  0.2246  0.2928  0.8326
   97OSM    H8S 9631   3.200   3.908  10.398  0.2021 -1.0384 -1.4058
   97OSM    H8T 9632   3.359   3.834  10.454  1.7415 -0.9685 -1.9336
   97OSM    C9S 9633   3.369   3.904  10.251  0.0615 -0.1159  0.2616
   97OSM    H9S 9634   3.480   3.902  10.249  0.0500 -0.7495  0.0019
   97OSM    H9T 9635   3.331   3.993  10.196  0.1239 -0.7272 -0.8063
   97OSM   C10S 9636   3.321   3.779  10.170  0.2522 -0.3067 -0.0249
   97OSM   H10S 9637   3.211   3.774  10.178  0.2578 -0.2702  0.0718
   97OSM   H10T 9638   3.363   3.685  10.209 -1.6863 -1.3730 -0.3984
   97OSM   C11S 9639   3.357   3.789  10.021  0.4611 -0.0081 -0.2727
   97OSM   H11S 9640   3.466   3.808  10.021  0.3803  0.4658 -0.2328
   97OSM   H11T 9641   3.301   3.876   9.980  2.7566  1.0984 -1.2478
   97OSM   C12S 9642   3.338   3.667   9.930 -0.5342  0.0404 -0.6825
   97OSM   H12S 9643   3.237   3.630   9.959  0.0327  0.4041  2.1004
   97OSM   H12T 9644   3.408   3.584   9.954 -0.9009  0.2699  1.4316
   97OSM   C13S 9645   3.368   3.694   9.784 -0.0664  0.3096  0.2642
   97OSM   H13S 9646   3.475   3.720   9.773  0.0693  0.6409  2.0933
   97OSM   H13T 9647   3.316   3.785   9.747 -1.6536 -0.8654 -0.5144
   97OSM   C14S 9648   3.336   3.571   9.700  0.2737  0.1651 -0.4073
   97OSM   H14S 9649   3.227   3.562   9.715  0.4740 -1.1196  0.4089
   97OSM   H14T 9650   3.380   3.476   9.739  0.2037  0.3304  0.0848
   97OSM   C15S 9651   3.378   3.591   9.555  0.3607 -0.4142  0.0633
   97OSM   H15S 9652   3.488   3.580   9.540  0.2714 -1.5823  0.2449
   97OSM   H15T 9653   3.349   3.691   9.514 -2.4964 -1.8901 -1.8479
   97OSM   C16S 9654   3.317   3.496   9.458 -0.3501 -0.3265 -0.2095
   97OSM   H16S 9655   3.207   3.491   9.470 -0.3497  2.3642  1.5787
   97OSM   H16T 9656   3.361   3.402   9.498  1.8249  1.6983  2.5882
   97OSM   C17S 9657   3.376   3.501   9.317  0.3031  0.1555  1.5991
   97OSM   H17S 9658   3.354   3.408   9.259  2.0472  0.2690  0.6931
   97OSM   H17T 9659   3.487   3.500   9.308  0.2305  0.5255  0.3885
   97OSM   C18S 9660   3.328   3.624   9.230 -0.5943 -0.2196 -0.8304
   97OSM   H18S 9661   3.217   3.625   9.222 -0.7357 -0.7632  0.6505
   97OSM   H18T 9662   3.373   3.622   9.129  0.2746 -2.2167 -0.4576
   97OSM   H18U 9663   3.361   3.723   9.268 -0.9471  0.3174 -1.8871
   97OSM    C1F 9664   3.628   3.603  10.591  0.5144 -0.2198  0.4045
   97OSM     OF 9665   3.571   3.515  10.652  0.0781  0.3989  0.1386
   97OSM    C2F 9666   3.687   3.573  10.447  0.2868 -0.0961 -0.3888
   97OSM    H2F 9667   3.762   3.493  10.463  1.9800  1.1171 -1.8476
   97OSM    H2G 9668   3.732   3.669  10.414 -1.3021  0.0719 -2.3006
   97OSM    C3F 9669   3.573   3.529  10.354 -0.0924 -0.2013  0.5579
   97OSM    H3F 9670   3.501   3.613  10.349  1.0963  0.7493 -1.6556
   97OSM    H3G 9671   3.514   3.444  10.394  1.2224 -1.0936  0.6489
   97OSM    C4F 9672   3.620   3.490  10.219  0.3441  0.1136  0.4021
   97OSM    H4F 9673   3.720   3.445  10.237  0.3647  0.3965  1.0313
   97OSM    H4G 9674   3.632   3.570  10.143  2.2363 -2.0492 -1.7701
   97OSM    C5F 9675   3.526   3.389  10.152 -0.0316  0.6631 -0.3079
   97OSM    H5F 9676   3.425   3.435  10.152 -0.5738 -0.4646 -1.4463
   97OSM    H5G 9677   3.537   3.294  10.209 -0.2578  0.0988 -1.1911
   97OSM    C6F 9678   3.572   3.348  10.019 -0.6560 -0.5127 -0.0669
   97OSM    H6F 9679   3.656   3.276  10.026 -0.7470 -0.5297  0.8747
   97OSM    H6G 9680   3.599   3.438   9.959  2.1743 -1.4287 -0.3288
   97OSM    C7F 9681   3.455   3.285   9.932 -1.2875  0.3099 -0.3545
   97OSM    H7F 9682   3.369   3.355   9.928 -0.6887  1.1538  0.6461
   97OSM    H7G 9683   3.423   3.197   9.992  0.3302 -0.4493 -0.5449
   97OSM    C8F 9684   3.485   3.234   9.789 -0.4564 -0.7350  0.0100
   97OSM    H8F 9685   3.524   3.314   9.722 -0.2796 -2.6662 -2.3173
   97OSM    H8G 9686   3.383   3.202   9.762 -1.1033 -0.4438  1.9416
   97OSM    C9F 9687   3.579   3.116   9.780 -0.4862  0.0561  0.4504
   97OSM    H9F 9688   3.662   3.104   9.852  1.4378 -0.1840 -1.6797
   97OSM   C10F 9689   3.578   3.022   9.680 -0.3161 -0.8508  0.3000
   97OSM   H10F 9690   3.635   2.928   9.677 -0.0678 -0.6621 -1.5386
   97OSM   C11F 9691   3.494   3.025   9.558  0.1688  0.1782  0.4496
   97OSM   H11F 9692   3.413   3.100   9.559 -1.7227 -1.7674 -0.3662
   97OSM   H11G 9693   3.451   2.923   9.565  0.1228  0.2174  0.7407
   97OSM   C12F 9694   3.566   3.041   9.425 -0.0164  0.2978  0.4378
   97OSM   H12F 9695   3.617   2.943   9.416  0.3513  0.5597 -0.5647
   97OSM   H12G 9696   3.640   3.123   9.436 -0.4731  1.0009 -1.3146
   97OSM   C13F 9697   3.476   3.068   9.308 -0.4043 -0.0376 -0.0462
   97OSM   H13F 9698   3.456   3.177   9.309  2.6215  0.6127 -0.6481
   97OSM   H13G 9699   3.379   3.015   9.323 -0.2486  0.4579  3.6573
   97OSM   C14F 9700   3.546   3.020   9.179  0.8561 -0.4739 -0.1413
   97OSM   H14F 9701   3.551   2.909   9.173  0.7093 -0.7287  3.0297
   97OSM   H14G 9702   3.652   3.053   9.172  0.3829  1.5948  1.5537
   97OSM   C15F 9703   3.465   3.065   9.061  0.0198 -0.9100 -0.0610
   97OSM   H15F 9704   3.356   3.069   9.082 -0.1144 -1.9270 -0.5530
   97OSM   H15G 9705   3.485   2.993   8.979  0.6947 -0.0920 -0.6471
   97OSM   C16F 9706   3.499   3.202   8.998 -1.0900 -0.6376  0.0912
   97OSM   H16F 9707   3.603   3.229   9.028 -2.2291  2.0387  2.1272
   97OSM   H16G 9708   3.437   3.282   9.044 -1.3036 -0.4743 -0.4775
   97OSM   C17F 9709   3.476   3.212   8.848 -1.0810 -0.4001 -0.1768
   97OSM   H17F 9710   3.541   3.136   8.799 -0.7546 -1.3270  1.5858
   97OSM   H17G 9711   3.496   3.313   8.809 -0.0224 -1.1938 -1.8058
   97OSM   C18F 9712   3.335   3.190   8.810  0.7767 -0.2635  0.1191
   97OSM   H18F 9713   3.311   3.188   8.702 -0.3562  0.6079  0.3286
   97OSM   H18G 9714   3.269   3.272   8.848 -0.4900  0.0434 -2.5099
   97OSM   H18H 9715   3.305   3.098   8.864 -0.2544  0.9004  1.6385
   98OSM      N 9716   3.910   4.343  11.025  0.1612 -0.3426  0.2563
   98OSM    C15 9717   3.819   4.461  11.034 -0.7224 -0.0252  0.5205
   98OSM   H15A 9718   3.845   4.525  11.117  1.8563  0.8598 -0.8672
   98OSM   H15B 9719   3.721   4.416  11.030 -0.2676 -0.9894 -0.3318
   98OSM   H15C 9720   3.830   4.526  10.948 -0.9429  0.5469  0.9201
   98OSM    C14 9721   3.900   4.266  11.154  0.0520 -0.4494  0.6002
   98OSM   H14A 9722   3.960   4.178  11.139 -0.0201 -0.3097 -0.5914
   98OSM   H14B 9723   3.799   4.234  11.178 -0.2665  0.1430  0.0927
   98OSM   H14C 9724   3.949   4.317  11.236  3.1780 -2.6940  0.3145
   98OSM    C13 9725   3.869   4.243  10.924  0.4251 -0.2044  0.3252
   98OSM   H13A 9726   3.956   4.183  10.899  0.1323 -0.5195  0.0405
   98OSM   H13B 9727   3.853   4.289  10.828 -1.7052 -0.8285  0.3329
   98OSM   H13C 9728   3.785   4.183  10.956 -0.2217  0.4940 -0.0478
   98OSM    C12 9729   4.054   4.393  10.993  0.0718 -0.3684  0.7253
   98OSM   H12A 9730   4.076   4.480  11.054  0.5973 -0.1496  0.2278
   98OSM   H12B 9731   4.060   4.424  10.890  0.4911 -0.3641  0.7472
   98OSM    C11 9732   4.179   4.302  10.999 -0.4988 -0.5242 -0.3573
   98OSM   H11A 9733   4.214   4.274  11.101  0.8821  0.3702 -0.5564
   98OSM   H11B 9734   4.269   4.363  10.977 -0.8899  0.5148  0.8476
   98OSM      P 9735   4.201   4.178  10.766 -0.0581  0.0339 -0.1396
   98OSM    O13 9736   4.353   4.202  10.750 -0.1993 -0.3834  0.0891
   98OSM    O14 9737   4.140   4.059  10.702 -0.0360 -0.2560  0.0938
   98OSM    O11 9738   4.125   4.312  10.728  1.0001 -0.7027  0.0877
   98OSM    O12 9739   4.165   4.181  10.921 -0.0068 -0.1754  0.8564
   98OSM    C1S 9740   4.163   4.389  10.614  0.2235 -0.4150  0.3421
   98OSM    H1S 9741   4.273   4.393  10.600  0.1727 -0.2478 -0.0341
   98OSM    H1T 9742   4.117   4.490  10.614  0.2949 -0.3789  1.3253
   98OSM     NF 9743   4.172   4.430  10.378  0.2459 -0.8011 -0.4595
   98OSM    HNF 9744   4.114   4.501  10.338  0.9012 -1.0815 -1.9813
   98OSM    C2S 9745   4.112   4.340  10.474  0.4767  0.3585 -0.0150
   98OSM    H2S 9746   4.154   4.238  10.458  2.1058  1.0087 -0.1393
   98OSM    C3S 9747   3.957   4.329  10.473 -0.4199  0.7645  0.2324
   98OSM    H3S 9748   3.916   4.431  10.459  1.3872  1.5400  0.2631
   98OSM     O3 9749   3.894   4.268  10.583  0.4029 -0.1908 -0.1066
   98OSM    HO3 9750   3.955   4.269  10.657 -2.1675  1.8404  2.2548
   98OSM    C4S 9751   3.914   4.248  10.340  0.2524 -1.1383  0.1198
   98OSM    H4S 9752   3.943   4.142  10.341 -0.4134 -1.3411 -0.8719
   98OSM    C5S 9753   3.839   4.292  10.233 -0.7020  0.2927  0.7350
   98OSM    H5S 9754   3.810   4.397  10.224  2.6042  1.2080 -0.7603
   98OSM    C6S 9755   3.804   4.202  10.113 -0.2997 -0.8491 -0.0751
   98OSM    H6S 9756   3.880   4.123  10.096  0.5996  0.3869 -2.1016
   98OSM    H6T 9757   3.804   4.269  10.025  0.9503 -1.0362 -0.2378
   98OSM    C7S 9758   3.669   4.130  10.137  0.1872  0.6417 -0.0227
   98OSM    H7S 9759   3.584   4.199  10.159 -2.8151 -2.4260 -1.1450
   98OSM    H7T 9760   3.680   4.065  10.227 -0.2216 -0.4530 -0.7411
   98OSM    C8S 9761   3.629   4.050  10.008  0.1181 -0.1019 -0.2260
   98OSM    H8S 9762   3.528   4.011  10.032  1.2913 -2.9873  0.4132
   98OSM    H8T 9763   3.689   3.957  10.003 -0.4045 -0.3890 -2.1541
   98OSM    C9S 9764   3.633   4.125   9.875 -0.0586 -0.2960  0.3071
   98OSM    H9S 9765   3.737   4.129   9.838  0.4507 -2.1057  1.3610
   98OSM    H9T 9766   3.596   4.229   9.886  0.9521 -0.0323  1.3776
   98OSM   C10S 9767   3.527   4.071   9.781  0.6935 -0.0857 -0.1782
   98OSM   H10S 9768   3.428   4.102   9.821  1.5885 -0.6055  2.7123
   98OSM   H10T 9769   3.530   3.961   9.796  0.0236  0.0744  1.3490
   98OSM   C11S 9770   3.548   4.124   9.637 -0.6043  0.1176 -0.8236
   98OSM   H11S 9771   3.655   4.108   9.616 -0.5380 -0.7887  0.1293
   98OSM   H11T 9772   3.523   4.232   9.643 -1.4238 -0.1170  2.9262
   98OSM   C12S 9773   3.469   4.046   9.537 -0.2674 -0.0869 -0.3230
   98OSM   H12S 9774   3.360   4.068   9.540 -0.0919  0.7591  0.2881
   98OSM   H12T 9775   3.489   3.938   9.547 -0.8519  0.0206  3.2386
   98OSM   C13S 9776   3.528   4.085   9.402  0.9822  0.6060 -0.2664
   98OSM   H13S 9777   3.638   4.071   9.400  0.9827 -0.0219  1.6959
   98OSM   H13T 9778   3.506   4.194   9.390  1.1607  0.5092 -1.6334
   98OSM   C14S 9779   3.467   3.998   9.282 -0.4731  0.4334 -0.0680
   98OSM   H14S 9780   3.365   4.033   9.256  0.0583  0.7735 -1.8227
   98OSM   H14T 9781   3.455   3.892   9.314 -0.1842 -0.0896 -1.5991
   98OSM   C15S 9782   3.558   3.992   9.160 -0.0359  0.0099  0.4079
   98OSM   H15S 9783   3.643   3.932   9.198 -0.5945 -1.9041 -1.2382
   98OSM   H15T 9784   3.592   4.096   9.140  1.1202 -0.6634 -1.3302
   98OSM   C16S 9785   3.503   3.919   9.040 -0.0564 -0.4168  0.4689
   98OSM   H16S 9786   3.443   3.982   8.971  0.0675  1.0109  1.6140
   98OSM   H16T 9787   3.453   3.827   9.076  0.2900 -0.0748  1.9042
   98OSM   C17S 9788   3.612   3.858   8.948  0.0517 -0.2278 -0.1687
   98OSM   H17S 9789   3.621   3.756   8.991  0.4924  1.0690  3.1147
   98OSM   H17T 9790   3.708   3.913   8.940 -0.3240  0.3025 -1.4176
   98OSM   C18S 9791   3.560   3.836   8.802  0.8384  0.6706  0.3482
   98OSM   H18S 9792   3.537   3.933   8.752  1.8843  0.3188 -0.8819
   98OSM   H18T 9793   3.458   3.794   8.816  0.5970  0.8910 -0.6209
   98OSM   H18U 9794   3.626   3.776   8.736 -0.0466  0.1426 -0.0664
   98OSM    C1F 9795   4.300   4.427  10.341  0.8153  0.1659  0.3785
   98OSM     OF 9796   4.364   4.323  10.362 -0.0049 -0.7903  0.1476
   98OSM    C2F 9797   4.356   4.550  10.269  0.2741  0.1896 -0.3754
   98OSM    H2F 9798   4.301   4.638  10.307 -1.7566 -1.7330  1.4400
   98OSM    H2G 9799   4.329   4.533  10.163 -0.3865  0.0035 -0.1851
   98OSM    C3F 9800   4.504   4.554  10.268 -0.2406  0.2416  0.0645
   98OSM    H3F 9801   4.540   4.461  10.219  0.7563  0.1496  0.9287
   98OSM    H3G 9802   4.550   4.553  10.369  0.4416 -0.8995 -0.2403
   98OSM    C4F 9803   4.563   4.677  10.192  0.4794  0.2191 -0.0738
   98OSM    H4F 9804   4.512   4.766  10.233 -2.5111 -1.9775  1.3429
   98OSM    H4G 9805   4.527   4.671  10.087  0.6988 -1.8464 -0.0720
   98OSM    C5F 9806   4.720   4.686  10.203 -0.0584  0.6465  0.3834
   98OSM    H5F 9807   4.760   4.650  10.300 -2.4371 -1.2442  0.7690
   98OSM    H5G 9808   4.750   4.792  10.191  0.3872  0.3414 -1.6395
   98OSM    C6F 9809   4.791   4.611  10.084  0.5646 -0.1526  0.0993
   98OSM    H6F 9810   4.723   4.634  10.000  0.9854  1.1408  0.0923
   98OSM    H6G 9811   4.784   4.507  10.123  1.3377  0.6367  2.5314
   98OSM    C7F 9812   4.929   4.661  10.060 -0.2508 -0.2998  0.4273
   98OSM    H7F 9813   4.987   4.628  10.150 -1.4421  1.0071  1.7300
   98OSM    H7G 9814   4.941   4.771  10.057 -0.0974 -0.2853 -3.9639
   98OSM    C8F 9815   5.000   4.602   9.939  0.9384 -0.3548  0.3773
   98OSM    H8F 9816   4.981   4.493   9.948 -1.5821  0.1729  2.3492
   98OSM    H8G 9817   5.106   4.620   9.969  1.5407 -0.7516 -1.3825
   98OSM    C9F 9818   4.945   4.666   9.812  0.6995  0.2087 -0.2474
   98OSM    H9F 9819   4.939   4.776   9.807  2.8762  0.4954  1.6299
   98OSM   C10F 9820   4.890   4.594   9.717  0.6231 -0.1617  0.4256
   98OSM   H10F 9821   4.840   4.653   9.640 -0.5278 -0.7936  0.6589
   98OSM   C11F 9822   4.882   4.444   9.709 -0.0407  0.7968  0.2760
   98OSM   H11F 9823   4.777   4.419   9.737  0.2461  3.7406  5.3557
   98OSM   H11G 9824   4.960   4.398   9.774  0.5106  1.6024  0.2122
   98OSM   C12F 9825   4.906   4.381   9.573 -0.1497 -0.2907 -0.0739
   98OSM   H12F 9826   4.938   4.278   9.598  0.3146  0.0787  0.9091
   98OSM   H12G 9827   4.993   4.428   9.523 -0.6254 -0.6957 -1.3391
   98OSM   C13F 9828   4.779   4.377   9.483 -0.1532 -0.2369 -0.0194
   98OSM   H13F 9829   4.794   4.454   9.404 -1.9433  1.1201  0.8860
   98OSM   H13G 9830   4.684   4.399   9.536 -1.2395 -0.0344 -1.9825
   98OSM   C14F 9831   4.756   4.232   9.430  0.7317 -0.5256  0.1257
   98OSM   H14F 9832   4.734   4.176   9.523 -0.3451  0.8180  0.7258
   98OSM   H14G 9833   4.845   4.188   9.380  0.8306 -1.3870  1.0297
   98OSM   C15F 9834   4.623   4.223   9.340  0.4029 -0.1523 -0.1604
   98OSM   H15F 9835   4.554   4.274   9.410  0.3685 -0.4233  0.0031
   98OSM   H15G 9836   4.589   4.118   9.345  2.3047 -0.7948  0.0954
   98OSM   C16F 9837   4.629   4.287   9.202  0.2280 -0.1833  0.8883
   98OSM   H16F 9838   4.714   4.245   9.144 -0.9938  2.7451 -3.5312
   98OSM   H16G 9839   4.671   4.389   9.209  4.4199 -1.7463  1.4238
   98OSM   C17F 9840   4.503   4.273   9.122 -0.6391  0.5924 -0.0687
   98OSM   H17F 9841   4.430   4.319   9.192  0.6399 -0.6862  2.2251
   98OSM   H17G 9842   4.470   4.168   9.130 -0.9928  0.8648  3.0395
   98OSM   C18F 9843   4.497   4.316   8.975  0.4120 -0.5062  1.4824
   98OSM   H18F 9844   4.512   4.426   8.971  0.1275 -0.4991  0.3586
   98OSM   H18G 9845   4.406   4.286   8.919  2.1953  2.0086 -3.3357
   98OSM   H18H 9846   4.577   4.272   8.912  1.7751  5.1639 -1.4394
   99OSM      N 9847   6.304   5.820  10.745 -0.5977  0.7142 -0.3327
   99OSM    C15 9848   6.239   5.754  10.865 -0.0628  0.0167  0.5462
   99OSM   H15A 9849   6.212   5.652  10.843  0.5144  0.2244 -1.2741
   99OSM   H15B 9850   6.148   5.807  10.890 -0.1024 -1.3994  3.9018
   99OSM   H15C 9851   6.301   5.762  10.953 -0.3098 -2.6755  1.0474
   99OSM    C14 9852   6.279   5.974  10.754  0.2610  0.3745 -0.4222
   99OSM   H14A 9853   6.315   6.007  10.850  0.2946  0.4046 -0.4455
   99OSM   H14B 9854   6.173   5.992  10.753  0.4582  1.6395 -0.1616
   99OSM   H14C 9855   6.320   6.020  10.665  2.3327 -2.8446 -1.3357
   99OSM    C13 9856   6.450   5.789  10.747  0.1565 -0.9871 -0.2954
   99OSM   H13A 9857   6.470   5.685  10.766 -0.1603 -1.7067 -3.4226
   99OSM   H13B 9858   6.493   5.858  10.818 -1.3364 -0.5629  0.2307
   99OSM   H13C 9859   6.491   5.824  10.654 -0.3757  0.9342  0.1291
   99OSM    C12 9860   6.241   5.770  10.615 -0.0360  0.0468  0.5664
   99OSM   H12A 9861   6.268   5.836  10.534  1.1086 -0.3683  0.5919
   99OSM   H12B 9862   6.134   5.774  10.629 -0.5464 -3.7942 -1.1247
   99OSM    C11 9863   6.269   5.630  10.564 -0.6282 -0.8073 -0.3039
   99OSM   H11A 9864   6.374   5.594  10.570 -0.0031  0.8149 -0.9669
   99OSM   H11B 9865   6.245   5.637  10.456 -3.3357  0.6035  0.2911
   99OSM      P 9866   6.198   5.400  10.669 -0.2510 -0.0175 -0.1145
   99OSM    O13 9867   6.323   5.374  10.746  0.3942 -0.1933 -0.4169
   99OSM    O14 9868   6.075   5.362  10.737 -0.3112  0.4929 -0.6111
   99OSM    O11 9869   6.195   5.336  10.520  0.1871  0.4262 -0.7465
   99OSM    O12 9870   6.187   5.550  10.646  0.0210 -0.1531 -0.2463
   99OSM    C1S 9871   6.078   5.349  10.440  0.4218 -0.3304  0.5220
   99OSM    H1S 9872   6.016   5.436  10.471  0.1058  0.4318 -2.0266
   99OSM    H1T 9873   6.025   5.252  10.437  1.4120 -0.8914 -2.4140
   99OSM     NF 9874   5.999   5.416  10.221  0.1949 -0.1406  0.9050
   99OSM    HNF 9875   5.950   5.347  10.169  1.0723 -0.7284  0.8298
   99OSM    C2S 9876   6.117   5.371  10.293 -1.6269 -0.3318  0.3629
   99OSM    H2S 9877   6.186   5.458  10.289 -1.5568 -0.4223 -2.7881
   99OSM    C3S 9878   6.185   5.243  10.236  0.4255  0.3250  0.1883
   99OSM    H3S 9879   6.121   5.154  10.253  0.6490  0.1831  0.2805
   99OSM     O3 9880   6.310   5.222  10.306 -0.3266  0.6651 -0.0948
   99OSM    HO3 9881   6.309   5.271  10.388  0.8598  0.4227  0.0864
   99OSM    C4S 9882   6.220   5.235  10.092  0.2754 -0.5656 -0.1232
   99OSM    H4S 9883   6.284   5.320  10.063  0.4196  0.1418  2.0500
   99OSM    C5S 9884   6.167   5.149  10.006  0.2328  1.1253  0.2113
   99OSM    H5S 9885   6.091   5.077  10.038 -0.5090  0.9638 -1.7642
   99OSM    C6S 9886   6.211   5.143   9.861 -0.5341  0.0895  0.3163
   99OSM    H6S 9887   6.244   5.040   9.834  1.3815  0.4236  1.1984
   99OSM    H6T 9888   6.298   5.209   9.842  0.1435 -1.1649 -1.2251
   99OSM    C7S 9889   6.101   5.172   9.767  0.1831 -0.2022 -0.0549
   99OSM    H7S 9890   6.081   5.280   9.779 -0.9694 -0.5175  1.1233
   99OSM    H7T 9891   5.999   5.129   9.784  1.1459 -2.0818  1.2944
   99OSM    C8S 9892   6.133   5.127   9.627 -0.1166 -0.2612  0.1073
   99OSM    H8S 9893   6.100   5.025   9.596 -0.5710  0.8347 -3.5100
   99OSM    H8T 9894   6.243   5.131   9.610 -0.5574  1.2732 -3.2810
   99OSM    C9S 9895   6.067   5.222   9.526  0.3474 -0.7023 -0.0530
   99OSM    H9S 9896   6.091   5.324   9.565 -0.5860 -0.3025 -0.4972
   99OSM    H9T 9897   5.957   5.223   9.535 -0.0262 -0.7445 -3.5073
   99OSM   C10S 9898   6.113   5.190   9.384 -0.0578 -0.1092  0.6172
   99OSM   H10S 9899   6.083   5.085   9.362  3.2158 -1.3348  1.3571
   99OSM   H10T 9900   6.224   5.187   9.382 -0.0500  0.3690 -0.5275
   99OSM   C11S 9901   6.064   5.300   9.292  0.3822  0.0496 -0.5652
   99OSM   H11S 9902   6.140   5.380   9.280  1.7098 -1.4216 -2.5851
   99OSM   H11T 9903   5.964   5.336   9.325  0.7628  0.5163  0.0917
   99OSM   C12S 9904   6.036   5.252   9.146 -0.1263 -0.0623 -0.3162
   99OSM   H12S 9905   5.969   5.164   9.156  0.3127 -0.4425 -0.6380
   99OSM   H12T 9906   5.985   5.330   9.086  1.8668  1.5077 -0.0704
   99OSM   C13S 9907   6.168   5.206   9.069 -0.1596 -0.0321  0.4995
   99OSM   H13S 9908   6.226   5.119   9.106 -0.2137 -0.4526 -0.3844
   99OSM   H13T 9909   6.247   5.283   9.084  0.9300 -1.1843  0.8358
   99OSM   C14S 9910   6.128   5.195   8.926 -0.5098  0.6308  0.1143
   99OSM   H14S 9911   6.214   5.217   8.860  0.4437  2.7480  1.9264
   99OSM   H14T 9912   6.052   5.273   8.903 -1.1304 -0.5235 -1.8820
   99OSM   C15S 9913   6.064   5.060   8.877  0.1281  0.3040  0.0110
   99OSM   H15S 9914   5.980   5.022   8.938 -0.5446 -1.6238 -2.0098
   99OSM   H15T 9915   6.146   4.988   8.899  2.9100  3.4969  1.0730
   99OSM   C16S 9916   6.021   5.044   8.731  0.1516  0.1458  0.1099
   99OSM   H16S 9917   6.102   5.079   8.664 -1.2715 -1.0456 -2.3663
   99OSM   H16T 9918   5.926   5.094   8.703 -0.7117 -1.0911  0.7112
   99OSM   C17S 9919   6.017   4.898   8.693 -0.1715  0.9784  0.1225
   99OSM   H17S 9920   5.947   4.830   8.747 -1.2552  1.6009 -0.4478
   99OSM   H17T 9921   6.114   4.852   8.722 -0.7176 -1.6532 -1.7937
   99OSM   C18S 9922   6.008   4.871   8.543 -0.4772 -0.4412 -0.1561
   99OSM   H18S 9923   6.114   4.867   8.511 -0.7428 -1.7819 -0.9747
   99OSM   H18T 9924   5.947   4.946   8.488 -0.6854  0.5430  1.3478
   99OSM   H18U 9925   5.959   4.774   8.520  0.6473 -0.6904 -1.6673
   99OSM    C1F 9926   5.937   5.537  10.245 -0.3224  0.6976 -0.4955
   99OSM     OF 9927   6.006   5.622  10.293  0.0522 -0.3227  0.1281
   99OSM    C2F 9928   5.794   5.554  10.215 -0.5067 -0.1912  0.0271
   99OSM    H2F 9929   5.735   5.565  10.309  2.5001  0.4699  1.9804
   99OSM    H2G 9930   5.750   5.473  10.154 -0.9315 -0.3229  0.4967
   99OSM    C3F 9931   5.772   5.689  10.144 -0.2706 -0.8130 -0.6945
   99OSM    H3F 9932   5.663   5.710  10.148 -0.4592 -1.9248  1.3130
   99OSM    H3G 9933   5.818   5.772  10.201  2.5153 -1.9970 -1.0787
   99OSM    C4F 9934   5.835   5.710  10.004  0.4878 -0.5234  0.7603
   99OSM    H4F 9935   5.945   5.692  10.010  0.5110 -0.5031  0.3999
   99OSM    H4G 9936   5.817   5.818   9.985  0.4747 -0.6195  0.2264
   99OSM    C5F 9937   5.778   5.635   9.882 -0.3742 -0.2633 -0.0054
   99OSM    H5F 9938   5.672   5.654   9.856 -0.0405 -1.4976 -2.5615
   99OSM    H5G 9939   5.782   5.528   9.910  1.1490 -0.1797  0.2116
   99OSM    C6F 9940   5.863   5.669   9.755  0.4000  1.0539 -0.4352
   99OSM    H6F 9941   5.972   5.652   9.767  0.2757 -0.3702 -1.0349
   99OSM    H6G 9942   5.855   5.777   9.734  0.6579  2.1018  3.8956
   99OSM    C7F 9943   5.822   5.589   9.624  0.3099 -0.0351 -0.2601
   99OSM    H7F 9944   5.721   5.609   9.584  0.0941 -1.0241 -0.2457
   99OSM    H7G 9945   5.819   5.485   9.664  1.8832  0.4951  1.4107
   99OSM    C8F 9946   5.931   5.599   9.519 -0.1235 -0.2540 -0.0588
   99OSM    H8F 9947   5.890   5.547   9.430 -0.6892 -3.9486  2.1587
   99OSM    H8G 9948   6.031   5.560   9.549 -0.3388 -1.7742 -1.1835
   99OSM    C9F 9949   5.962   5.739   9.482  0.3943  0.0629  0.3738
   99OSM    H9F 9950   5.999   5.808   9.559 -0.6098  0.5961  0.3860
   99OSM   C10F 9951   5.946   5.799   9.362  0.8587  0.4296 -0.1732
   99OSM   H10F 9952   5.972   5.905   9.352 -1.2100  0.9537 -0.4952
   99OSM   C11F 9953   5.884   5.727   9.247 -0.1838 -0.1035  0.7939
   99OSM   H11F 9954   5.832   5.805   9.187 -0.2801 -0.5839  0.2539
   99OSM   H11G 9955   5.799   5.663   9.278 -0.5330  0.1928  0.4615
   99OSM   C12F 9956   5.981   5.641   9.164  0.5365  0.0954 -0.3951
   99OSM   H12F 9957   5.922   5.563   9.111  1.5568 -2.1529  1.5591
   99OSM   H12G 9958   6.038   5.580   9.238 -1.1631 -0.3886  0.5654
   99OSM   C13F 9959   6.074   5.716   9.072  0.0090  0.4041 -0.7608
   99OSM   H13F 9960   6.164   5.651   9.071 -0.3222 -0.1831  1.5492
   99OSM   H13G 9961   6.104   5.813   9.115 -1.2878  1.1176 -1.4004
   99OSM   C14F 9962   6.032   5.744   8.924 -0.0692 -0.6779  0.4094
   99OSM   H14F 9963   5.943   5.809   8.941  1.0353  0.6569  1.3442
   99OSM   H14G 9964   5.995   5.652   8.874 -1.5629  0.7414 -1.2794
   99OSM   C15F 9965   6.137   5.834   8.852  0.6977  0.3769 -0.0849
   99OSM   H15F 9966   6.217   5.765   8.818  0.8539  1.1682 -1.3994
   99OSM   H15G 9967   6.171   5.919   8.914  0.2251 -0.3055  1.1545
   99OSM   C16F 9968   6.066   5.884   8.721 -0.4768 -0.6878  0.2950
   99OSM   H16F 9969   5.979   5.947   8.751 -0.1438 -1.0623  2.2113
   99OSM   H16G 9970   6.033   5.796   8.663  0.5305 -1.2935  0.6201
   99OSM   C17F 9971   6.141   5.954   8.616 -0.4905  0.0987  0.2825
   99OSM   H17F 9972   6.228   5.892   8.584  0.8360  0.9994  2.0291
   99OSM   H17G 9973   6.203   6.039   8.650  0.2510  0.1012 -0.9877
   99OSM   C18F 9974   6.055   5.988   8.491 -0.3777 -0.0872 -0.1743
   99OSM   H18F 9975   6.074   5.909   8.415  0.7220  2.6936 -2.9789
   99OSM   H18G 9976   6.073   6.091   8.455 -1.2168 -0.0638 -0.5536
   99OSM   H18H 9977   5.948   5.972   8.519  0.0442 -0.5582  1.2499
  100OSM      N 9978   5.307   1.279  10.657  0.5718  0.3468  0.2517
  100OSM    C15 9979   5.230   1.145  10.676 -0.1080 -0.1438 -0.7443
  100OSM   H15A 9980   5.132   1.155  10.719  0.3165  1.6342 -0.0674
  100OSM   H15B 9981   5.280   1.085  10.751 -1.2138 -0.4549 -0.2285
  100OSM   H15C 9982   5.220   1.095  10.581  0.4683  0.1010 -0.9386
  100OSM    C14 9983   5.239   1.355  10.547  0.1918  0.0385 -0.0565
  100OSM   H14A 9984   5.241   1.308  10.450 -1.3649 -0.9160  0.3361
  100OSM   H14B 9985   5.277   1.455  10.533  0.2124  0.0047 -0.2506
  100OSM   H14C 9986   5.138   1.376  10.579 -0.2129 -0.3654 -1.0159
  100OSM    C13 9987   5.285   1.354  10.787  0.4423 -0.5490  0.5838
  100OSM   H13A 9988   5.338   1.290  10.855  1.7417 -2.8795 -2.4128
  100OSM   H13B 9989   5.178   1.353  10.803  0.5018 -0.1063  1.0167
  100OSM   H13C 9990   5.325   1.454  10.789 -0.2878 -0.2104 -0.5896
  100OSM    C12 9991   5.451   1.249  10.622 -0.2290  0.2669 -0.2526
  100OSM   H12A 9992   5.496   1.339  10.581  1.3376 -0.5657 -0.4463
  100OSM   H12B 9993   5.449   1.181  10.538 -3.5005  2.6938 -2.4008
  100OSM    C11 9994   5.538   1.199  10.741  0.6701 -0.2954  0.3390
  100OSM   H11A 9995   5.538   1.281  10.816 -2.3774 -0.8523  1.0609
  100OSM   H11B 9996   5.643   1.187  10.706  1.4537  2.3432  1.5294
  100OSM      P 9997   5.507   0.935  10.724  0.0456  0.3056  0.4940
  100OSM    O13 9998   5.634   0.879  10.767  0.3262  0.2813  0.3659
  100OSM    O14 9999   5.394   0.843  10.737  0.0493 -0.1659  0.7897
  100OSM    O1110000   5.520   0.967  10.573  0.2582  0.5445 -0.3081
  100OSM    O1210001   5.489   1.075  10.795  0.2530  0.4302 -0.4012
  100OSM    C1S10002   5.536   0.849  10.482  0.2832  0.0064  0.6674
  100OSM    H1S10003   5.437   0.799  10.479  0.4363 -0.3072  0.7816
  100OSM    H1T10004   5.620   0.784  10.517 -0.2203 -0.3658  1.2126
  100OSM     NF10005   5.544   0.768  10.248 -0.2903  0.3088 -0.4258
  100OSM    HNF10006   5.629   0.741  10.203 -0.1969 -0.5380  0.2510
  100OSM    C2S10007   5.551   0.889  10.338 -0.3833 -0.1602  0.7978
  100OSM    H2S10008   5.464   0.950  10.306 -0.0645  0.9265  1.9278
  100OSM    C3S10009   5.671   0.977  10.317  0.4156 -0.0778  0.8653
  100OSM    H3S10010   5.765   0.919  10.317 -0.6165 -1.8062  0.6200
  100OSM     O310011   5.687   1.086  10.413  0.2084 -0.1060  0.1111
  100OSM    HO310012   5.634   1.052  10.485  0.2776  0.8796  0.6489
  100OSM    C4S10013   5.658   1.030  10.175  0.5318 -0.1788  1.0726
  100OSM    H4S10014   5.702   0.974  10.091 -2.3065  0.8796 -1.2961
  100OSM    C5S10015   5.577   1.137  10.137 -0.2789  0.6069 -0.4649
  100OSM    H5S10016   5.529   1.195  10.218  0.5121  2.1936 -1.1019
  100OSM    C6S10017   5.559   1.193   9.997 -0.8394  0.5776  0.2413
  100OSM    H6S10018   5.615   1.289   9.995  0.8082 -0.3487  0.0948
  100OSM    H6T10019   5.450   1.211   9.985 -0.8005 -0.0149 -1.1344
  100OSM    C7S10020   5.587   1.114   9.869  1.2453 -0.0087  0.1892
  100OSM    H7S10021   5.533   1.016   9.869 -1.3877  1.3486  1.0492
  100OSM    H7T10022   5.689   1.069   9.871  1.7034  0.9933  2.4459
  100OSM    C8S10023   5.557   1.206   9.751  0.5436  0.6052  0.3807
  100OSM    H8S10024   5.619   1.297   9.765 -0.3293  1.0845  1.3157
  100OSM    H8T10025   5.451   1.238   9.763  0.7482  0.8428  1.7688
  100OSM    C9S10026   5.570   1.138   9.613  0.2164  0.1755 -0.2365
  100OSM    H9S10027   5.485   1.068   9.598  2.4192 -2.1122 -3.2830
  100OSM    H9T10028   5.672   1.094   9.612  1.1335  2.1553 -0.3881
  100OSM   C10S10029   5.560   1.253   9.506  0.5676 -0.1896 -0.6298
  100OSM   H10S10030   5.658   1.306   9.506  0.0873  0.7289 -0.3048
  100OSM   H10T10031   5.484   1.333   9.524 -0.2252 -0.8232 -1.0944
  100OSM   C11S10032   5.531   1.199   9.361  0.6291 -0.1462 -0.4877
  100OSM   H11S10033   5.432   1.151   9.350 -0.6834  2.4176 -0.5356
  100OSM   H11T10034   5.608   1.120   9.344  1.5784  0.4590  0.7663
  100OSM   C12S10035   5.526   1.316   9.259 -0.0846  0.2762 -0.6938
  100OSM   H12S10036   5.627   1.361   9.243  0.2666  0.4088  1.5729
  100OSM   H12T10037   5.458   1.396   9.294 -2.2629 -1.7301 -0.0216
  100OSM   C13S10038   5.468   1.274   9.121  0.6393 -0.8346  0.3126
  100OSM   H13S10039   5.358   1.266   9.137  0.2898  1.3306 -0.6899
  100OSM   H13T10040   5.503   1.171   9.099 -0.1498 -1.2061  0.7625
  100OSM   C14S10041   5.491   1.385   9.018 -0.4229 -0.2488 -0.7016
  100OSM   H14S10042   5.599   1.406   9.010 -0.9774  3.0207 -0.8870
  100OSM   H14T10043   5.436   1.474   9.055 -1.1636 -0.2002 -1.8342
  100OSM   C15S10044   5.430   1.352   8.880  0.0457  0.8222 -0.5059
  100OSM   H15S10045   5.323   1.323   8.892  0.3827 -0.9417 -1.4606
  100OSM   H15T10046   5.480   1.254   8.861 -2.5697 -0.4485 -1.4148
  100OSM   C16S10047   5.442   1.454   8.773 -0.6331  0.3117 -0.0875
  100OSM   H16S10048   5.545   1.472   8.736  0.9946 -3.5650  2.0148
  100OSM   H16T10049   5.405   1.553   8.807  0.0092  0.8656 -0.9704
  100OSM   C17S10050   5.354   1.424   8.648 -0.0709  0.2368 -0.2406
  100OSM   H17S10051   5.252   1.394   8.680 -0.0067 -0.1431 -0.3840
  100OSM   H17T10052   5.392   1.333   8.598 -0.1535  0.3398 -0.4954
  100OSM   C18S10053   5.343   1.544   8.550  0.5224 -0.1478 -0.1767
  100OSM   H18S10054   5.316   1.507   8.449  0.3346  2.2581 -1.0740
  100OSM   H18T10055   5.437   1.601   8.540  0.1090  0.1750 -2.8676
  100OSM   H18U10056   5.273   1.616   8.598 -2.5886  1.3171 -5.9783
  100OSM    C1F10057   5.432   0.693  10.244 -0.2916  0.1723 -0.0190
  100OSM     OF10058   5.321   0.742  10.271 -0.0097  0.0008 -0.3997
  100OSM    C2F10059   5.451   0.548  10.204  0.7258 -0.2269 -0.0921
  100OSM    H2F10060   5.470   0.502  10.304  2.2987  0.0782 -0.2224
  100OSM    H2G10061   5.533   0.548  10.129  0.0542 -1.6733 -0.8662
  100OSM    C3F10062   5.333   0.491  10.120 -0.0604  0.0803 -0.6837
  100OSM    H3F10063   5.311   0.557  10.033  1.1876  0.8510 -0.4353
  100OSM    H3G10064   5.247   0.488  10.191 -0.4608  0.9066 -1.1250
  100OSM    C4F10065   5.360   0.355  10.062  0.1620  0.5348  0.1829
  100OSM    H4F10066   5.363   0.274  10.139  2.5873 -0.9465 -1.3463
  100OSM    H4G10067   5.459   0.354  10.012 -0.8655  1.9505 -2.0303
  100OSM    C5F10068   5.261   0.304   9.963 -0.5642  0.7850 -0.6201
  100OSM    H5F10069   5.156   0.303  10.001  0.9541  1.0887  4.2389
  100OSM    H5G10070   5.284   0.207   9.914 -1.6604  0.8820 -1.3788
  100OSM    C6F10071   5.249   0.392   9.832 -0.4021 -0.4261 -0.0039
  100OSM    H6F10072   5.191   0.487   9.843  0.8456  0.2911  0.6504
  100OSM    H6G10073   5.201   0.317   9.765  1.1466 -1.3102 -0.1694
  100OSM    C7F10074   5.378   0.427   9.760  0.8355  0.0696 -0.0945
  100OSM    H7F10075   5.433   0.331   9.753 -2.5672 -2.1248  0.6267
  100OSM    H7G10076   5.434   0.514   9.802 -1.8907  0.6472  2.7210
  100OSM    C8F10077   5.341   0.470   9.611 -0.2922 -0.0730  0.6374
  100OSM    H8F10078   5.278   0.562   9.609 -0.1787  0.0426 -2.4700
  100OSM    H8G10079   5.280   0.385   9.576 -0.1854 -0.5605  1.6170
  100OSM    C9F10080   5.460   0.492   9.530  0.8661  0.5543 -0.1239
  100OSM    H9F10081   5.536   0.555   9.577 -0.9394  1.9006  1.1000
  100OSM   C10F10082   5.466   0.464   9.404 -0.2487 -0.1705 -0.6307
  100OSM   H10F10083   5.560   0.490   9.355  2.3473 -1.5691  3.1126
  100OSM   C11F10084   5.346   0.412   9.327 -0.4472  0.1605  0.3291
  100OSM   H11F10085   5.254   0.472   9.338 -0.8251 -0.6723  2.2355
  100OSM   H11G10086   5.314   0.315   9.372  1.1275  0.6315  2.6677
  100OSM   C12F10087   5.373   0.397   9.179  0.1095 -0.1288  0.1966
  100OSM   H12F10088   5.447   0.316   9.160 -0.9416 -0.7511 -1.4326
  100OSM   H12G10089   5.433   0.484   9.146  2.2249 -1.2836  0.7955
  100OSM   C13F10090   5.249   0.381   9.103  0.9430  0.5948  0.5678
  100OSM   H13F10091   5.206   0.483   9.111 -0.3529  0.0950  0.2182
  100OSM   H13G10092   5.182   0.311   9.157  1.8594 -2.0812 -1.5412
  100OSM   C14F10093   5.266   0.331   8.956  0.1896  0.3243 -0.3165
  100OSM   H14F10094   5.278   0.221   8.962  0.4989  0.4041  0.8472
  100OSM   H14G10095   5.364   0.375   8.928  0.0343  0.0242 -1.3782
  100OSM   C15F10096   5.158   0.377   8.860  1.1106  0.7925 -0.4361
  100OSM   H15F10097   5.132   0.485   8.861 -2.3219  0.0840  0.1551
  100OSM   H15G10098   5.065   0.324   8.888  2.5263 -0.4905  2.2243
  100OSM   C16F10099   5.196   0.333   8.716 -0.6558 -0.8041  0.5869
  100OSM   H16F10100   5.215   0.225   8.698 -2.0593 -0.9620 -0.0941
  100OSM   H16G10101   5.288   0.382   8.676 -2.1515  0.2658 -1.7631
  100OSM   C17F10102   5.083   0.380   8.625  0.2672  0.1783 -0.3182
  100OSM   H17F10103   5.063   0.489   8.632  0.7347  0.5388 -3.3152
  100OSM   H17G10104   4.983   0.341   8.655  0.8696 -1.7206 -0.6454
  100OSM   C18F10105   5.101   0.338   8.475 -0.7164  0.1158 -0.4185
  100OSM   H18F10106   5.026   0.381   8.404 -2.1585 -1.1545  0.2881
  100OSM   H18G10107   5.087   0.230   8.456 -1.8846  0.4496 -1.6105
  100OSM   H18H10108   5.201   0.372   8.441 -0.6211  1.6391  1.2277
  101OSM      N10109   4.213   5.009  10.991  0.4769 -0.0847  0.1045
  101OSM    C1510110   4.110   4.923  11.053  0.0410  0.4541  0.3956
  101OSM   H15A10111   4.036   4.898  10.978  0.7344 -2.7773  0.6199
  101OSM   H15B10112   4.070   4.961  11.146 -0.0917 -0.3231  0.6661
  101OSM   H15C10113   4.147   4.822  11.066  0.2290  0.3344 -0.9274
  101OSM    C1410114   4.168   5.155  11.001  0.8491  0.2628 -0.7821
  101OSM   H14A10115   4.155   5.193  11.101  0.1501  2.9935 -1.8254
  101OSM   H14B10116   4.070   5.158  10.954  0.8144  0.8712 -0.6752
  101OSM   H14C10117   4.235   5.212  10.939  0.0572  2.0147 -0.0850
  101OSM    C1310118   4.336   4.992  11.079 -0.2210 -0.5781  0.5918
  101OSM   H13A10119   4.372   4.891  11.061 -2.9417 -1.1899 -2.0935
  101OSM   H13B10120   4.312   5.003  11.184  0.6278 -1.8778  0.9564
  101OSM   H13C10121   4.403   5.070  11.047  0.0496 -0.5952  1.0959
  101OSM    C1210122   4.246   4.970  10.844  0.0974  0.4968 -0.5982
  101OSM   H12A10123   4.275   4.866  10.836 -0.3369  0.2718  0.4714
  101OSM   H12B10124   4.333   5.025  10.813  0.2913  0.7763  0.3995
  101OSM    C1110125   4.133   4.983  10.739  0.3729 -0.6016  0.0912
  101OSM   H11A10126   4.178   4.961  10.640 -0.0964 -0.4702 -0.1581
  101OSM   H11B10127   4.097   5.088  10.730  2.0855 -0.0419 -0.6992
  101OSM      P10128   4.012   4.752  10.704 -0.0598 -0.0086 -0.1296
  101OSM    O1310129   4.141   4.678  10.734 -0.3661  0.1322  0.5811
  101OSM    O1410130   3.888   4.689  10.758 -0.3490 -0.5641  0.6378
  101OSM    O1110131   3.999   4.777  10.545 -0.1527  0.2361 -0.2784
  101OSM    O1210132   4.021   4.903  10.764  0.2446 -0.1959  0.2730
  101OSM    C1S10133   3.873   4.842  10.495 -0.0488 -0.6714 -0.4682
  101OSM    H1S10134   3.860   4.944  10.536 -0.5832 -1.0078  0.2168
  101OSM    H1T10135   3.782   4.779  10.504 -1.7600  1.4350 -1.8231
  101OSM     NF10136   3.770   4.950  10.293 -0.1109 -0.1343  0.0439
  101OSM    HNF10137   3.680   4.913  10.268 -0.8214  2.1082 -0.9251
  101OSM    C2S10138   3.874   4.859  10.342 -0.0820 -0.2929 -1.0151
  101OSM    H2S10139   3.970   4.901  10.303 -0.3576  1.1609 -0.2334
  101OSM    C3S10140   3.864   4.711  10.289  0.6074 -0.7292  0.2239
  101OSM    H3S10141   3.776   4.658  10.330 -0.8598 -0.6789 -2.5728
  101OSM     O310142   3.978   4.641  10.331  0.2725  0.3273 -0.1094
  101OSM    HO310143   4.012   4.690  10.406  0.1927 -1.7947  1.4184
  101OSM    C4S10144   3.860   4.711  10.137  0.3282 -0.1007  0.1157
  101OSM    H4S10145   3.954   4.720  10.079 -1.0999 -0.7567 -2.4792
  101OSM    C5S10146   3.756   4.681  10.057 -0.1025 -0.7730  1.1495
  101OSM    H5S10147   3.667   4.639  10.106  0.0270 -0.8341  1.3359
  101OSM    C6S10148   3.765   4.668   9.903 -0.2791  0.3601 -0.3419
  101OSM    H6S10149   3.832   4.751   9.872 -1.1568  0.6167 -1.6210
  101OSM    H6T10150   3.662   4.683   9.863  0.1424  0.3016 -1.4654
  101OSM    C7S10151   3.810   4.534   9.860 -0.4835  0.0125 -0.0981
  101OSM    H7S10152   3.746   4.449   9.891 -0.7191  0.5099  0.8172
  101OSM    H7T10153   3.907   4.515   9.911 -0.1525 -0.1101 -0.7539
  101OSM    C8S10154   3.829   4.533   9.706  0.8425 -0.0863 -0.6300
  101OSM    H8S10155   3.916   4.596   9.678  1.4623  0.1097  1.5158
  101OSM    H8T10156   3.731   4.570   9.671 -0.8377 -1.3907  2.3429
  101OSM    C9S10157   3.851   4.398   9.640  0.0677 -0.4297  0.0901
  101OSM    H9S10158   3.775   4.317   9.652 -0.0425 -0.3920 -0.3312
  101OSM    H9T10159   3.937   4.353   9.694 -0.7963 -0.5055  1.4401
  101OSM   C10S10160   3.884   4.389   9.487 -0.0937  0.7040  0.5645
  101OSM   H10S10161   3.902   4.280   9.476 -3.1322  0.3347 -2.3588
  101OSM   H10T10162   3.968   4.451   9.448 -0.1881 -0.6921 -2.0574
  101OSM   C11S10163   3.760   4.412   9.411 -0.3242 -0.5479 -0.2497
  101OSM   H11S10164   3.725   4.517   9.416 -1.6572 -0.9655 -0.5708
  101OSM   H11T10165   3.682   4.346   9.455  1.4200 -2.5655 -0.0021
  101OSM   C12S10166   3.778   4.376   9.255  0.2588 -0.5493 -0.4922
  101OSM   H12S10167   3.684   4.413   9.207 -0.1986 -1.1467 -0.0735
  101OSM   H12T10168   3.763   4.267   9.241 -2.1877 -0.2654 -0.5854
  101OSM   C13S10169   3.888   4.454   9.187 -0.1830 -0.0370 -0.8568
  101OSM   H13S10170   3.989   4.409   9.194  0.0151 -0.0940 -3.2096
  101OSM   H13T10171   3.891   4.549   9.245  0.1290 -0.0671 -0.8208
  101OSM   C14S10172   3.860   4.500   9.041  0.6485 -0.3060 -0.6181
  101OSM   H14S10173   3.904   4.600   9.022 -0.2711  0.0485 -0.9260
  101OSM   H14T10174   3.750   4.505   9.029  0.4968 -0.0179  0.7511
  101OSM   C15S10175   3.923   4.405   8.939  0.1755  0.1431  0.3668
  101OSM   H15S10176   4.030   4.390   8.965  0.4117  0.7376 -0.2230
  101OSM   H15T10177   3.902   4.457   8.842 -2.6640  1.1205  1.3811
  101OSM   C16S10178   3.840   4.277   8.926 -0.0894 -0.3337 -0.0508
  101OSM   H16S10179   3.755   4.301   8.859  0.1809  1.1589  0.1047
  101OSM   H16T10180   3.794   4.236   9.018 -0.1592 -1.1972 -0.4623
  101OSM   C17S10181   3.929   4.161   8.882 -0.6018  1.3431  0.9437
  101OSM   H17S10182   3.988   4.208   8.800 -1.6890  0.0284 -0.6456
  101OSM   H17T10183   3.880   4.068   8.846  1.5758  0.4007  0.2518
  101OSM   C18S10184   4.044   4.126   8.981 -0.2943 -0.5774 -0.1245
  101OSM   H18S10185   3.999   4.099   9.079 -2.4544  0.8190 -0.6449
  101OSM   H18T10186   4.113   4.210   9.002 -1.5869  0.0359  1.9869
  101OSM   H18U10187   4.116   4.046   8.956 -0.0159  0.4051 -2.7387
  101OSM    C1F10188   3.774   5.078  10.311  0.3112  0.1763 -1.4395
  101OSM     OF10189   3.881   5.124  10.356 -0.2901  0.0534  0.0009
  101OSM    C2F10190   3.650   5.159  10.302  0.6019 -0.2863  0.6492
  101OSM    H2F10191   3.632   5.212  10.398  3.2989 -0.2556  1.2212
  101OSM    H2G10192   3.569   5.087  10.280  0.1027  0.6639 -0.7734
  101OSM    C3F10193   3.654   5.277  10.196  0.2083  0.2320  0.0196
  101OSM    H3F10194   3.748   5.334  10.213  2.2458 -2.9123 -0.0872
  101OSM    H3G10195   3.564   5.342  10.197  0.7248  1.0388 -1.6518
  101OSM    C4F10196   3.663   5.230  10.051  0.0616 -0.6166  0.2617
  101OSM    H4F10197   3.562   5.189  10.029  0.0323 -2.0073  2.6854
  101OSM    H4G10198   3.737   5.147  10.041  3.0237  1.5398  2.4658
  101OSM    C5F10199   3.711   5.351   9.968 -0.1778 -0.2429 -0.0935
  101OSM    H5F10200   3.821   5.350   9.982 -0.1546 -2.4755  0.0061
  101OSM    H5G10201   3.646   5.434  10.004  0.6394  0.8152 -0.9755
  101OSM    C6F10202   3.680   5.325   9.825 -0.1323 -0.1975  0.3384
  101OSM    H6F10203   3.753   5.244   9.802  0.5784 -0.3412  2.8413
  101OSM    H6G10204   3.579   5.283   9.808 -0.2625  0.2293  0.0299
  101OSM    C7F10205   3.703   5.446   9.739 -0.5468  0.1142 -0.9979
  101OSM    H7F10206   3.782   5.506   9.788  0.3990 -1.0042 -1.1204
  101OSM    H7G10207   3.610   5.506   9.746 -0.7130 -0.2010 -0.3810
  101OSM    C8F10208   3.725   5.422   9.588  0.1256  0.1758  0.1523
  101OSM    H8F10209   3.717   5.524   9.545  0.3012 -0.2584 -0.9348
  101OSM    H8G10210   3.637   5.362   9.557  1.1045 -1.7519  0.9436
  101OSM    C9F10211   3.841   5.345   9.553 -0.1468  0.0589 -0.1089
  101OSM    H9F10212   3.920   5.343   9.629 -0.5272 -1.6853  0.2797
  101OSM   C10F10213   3.859   5.284   9.437  0.3658 -0.6764 -0.0396
  101OSM   H10F10214   3.941   5.211   9.427  0.4114 -0.4261 -1.7361
  101OSM   C11F10215   3.771   5.279   9.313 -1.2072  0.8859  0.4618
  101OSM   H11F10216   3.688   5.353   9.310 -2.2847 -0.3109 -0.5800
  101OSM   H11G10217   3.708   5.188   9.310  0.5422 -0.3737  0.4265
  101OSM   C12F10218   3.838   5.261   9.173 -0.5060 -0.2489 -0.1456
  101OSM   H12F10219   3.883   5.160   9.175  3.0736  1.1814 -0.2933
  101OSM   H12G10220   3.927   5.328   9.168  0.8341 -1.9729 -0.5448
  101OSM   C13F10221   3.744   5.292   9.055  0.3180 -0.6041 -0.4093
  101OSM   H13F10222   3.695   5.388   9.085 -0.9063 -1.3708  0.1259
  101OSM   H13G10223   3.661   5.220   9.040 -0.8111  0.3233  0.9868
  101OSM   C14F10224   3.822   5.308   8.923  0.1047  0.1152 -0.1728
  101OSM   H14F10225   3.863   5.206   8.908 -1.3678 -0.3884 -0.9344
  101OSM   H14G10226   3.899   5.387   8.927  0.4153 -0.1449 -0.9168
  101OSM   C15F10227   3.719   5.339   8.816 -0.1721  0.2320 -0.6460
  101OSM   H15F10228   3.675   5.437   8.843  0.3515  0.0126  1.0960
  101OSM   H15G10229   3.641   5.260   8.805  1.0856 -1.5188  2.0610
  101OSM   C16F10230   3.793   5.349   8.684 -0.1726  0.4348 -0.2164
  101OSM   H16F10231   3.851   5.256   8.668 -0.8509 -0.2111  0.9083
  101OSM   H16G10232   3.864   5.435   8.684  0.0491  0.2714  1.0086
  101OSM   C17F10233   3.696   5.369   8.557 -0.0920  0.4594  0.5487
  101OSM   H17F10234   3.612   5.441   8.571  0.2579  1.5044 -2.2001
  101OSM   H17G10235   3.640   5.277   8.531  0.6896  0.2355 -0.3608
  101OSM   C18F10236   3.771   5.400   8.423  0.1981 -0.0977 -0.7815
  101OSM   H18F10237   3.690   5.420   8.350 -2.5702  0.9598  2.3525
  101OSM   H18G10238   3.846   5.320   8.403  1.0992  0.5702 -0.1517
  101OSM   H18H10239   3.832   5.493   8.431 -1.4752  0.9933 -0.1369
  102OSM      N10240   5.207   2.409  10.724  0.1478 -0.4428  0.1093
  102OSM    C1510241   5.211   2.428  10.864 -0.0718 -0.2032  0.3265
  102OSM   H15A10242   5.265   2.350  10.915  0.8836  0.4485  0.3397
  102OSM   H15B10243   5.115   2.436  10.913  0.0879  1.8905  0.3761
  102OSM   H15C10244   5.276   2.513  10.875  0.3173  0.0188 -2.8141
  102OSM    C1410245   5.161   2.522  10.642 -0.5355 -0.4447  0.1970
  102OSM   H14A10246   5.227   2.603  10.668 -2.0118  0.3482  1.7517
  102OSM   H14B10247   5.063   2.558  10.673 -0.9158 -0.3110 -1.1051
  102OSM   H14C10248   5.149   2.513  10.535 -1.8395 -0.8554  0.3604
  102OSM    C1310249   5.356   2.393  10.689 -0.4871 -0.1918  0.3807
  102OSM   H13A10250   5.408   2.484  10.715  1.0195 -0.5288 -1.3187
  102OSM   H13B10251   5.376   2.371  10.585 -0.6794 -2.8199  0.8206
  102OSM   H13C10252   5.394   2.307  10.743  0.7647  0.3938  0.4577
  102OSM    C1210253   5.128   2.287  10.682 -0.5455  0.1176  0.6269
  102OSM   H12A10254   5.022   2.305  10.694 -0.7225 -1.0226  0.9007
  102OSM   H12B10255   5.156   2.204  10.745  0.8279  0.3031  0.2809
  102OSM    C1110256   5.147   2.230  10.538  0.4099  0.4713 -0.7480
  102OSM   H11A10257   5.131   2.320  10.475  1.2557  2.3463  1.5267
  102OSM   H11B10258   5.073   2.151  10.514  0.2914  0.7472 -1.2880
  102OSM      P10259   5.351   2.176  10.378  0.3064  0.2256  0.8102
  102OSM    O1310260   5.435   2.299  10.390  0.2409  0.8942  0.5926
  102OSM    O1410261   5.423   2.048  10.359  0.2405 -0.0928 -0.2106
  102OSM    O1110262   5.234   2.184  10.276  0.6576 -0.3790 -0.2420
  102OSM    O1210263   5.273   2.165  10.518  0.3119  0.1627  0.6010
  102OSM    C1S10264   5.164   2.066  10.229  0.1672 -0.6698 -0.6644
  102OSM    H1S10265   5.066   2.074  10.280  0.8081 -1.2220  0.7157
  102OSM    H1T10266   5.212   1.970  10.256 -0.9789 -0.1589  4.0220
  102OSM     NF10267   5.061   1.960  10.030  0.7337  0.4711 -0.0695
  102OSM    HNF10268   5.106   1.880   9.990 -0.9878  0.3492 -1.8957
  102OSM    C2S10269   5.145   2.070  10.075 -0.2683 -0.4814  0.0852
  102OSM    H2S10270   5.090   2.167  10.066  2.5475  1.2379  0.0589
  102OSM    C3S10271   5.295   2.072  10.009 -0.3115 -0.5446 -0.1751
  102OSM    H3S10272   5.359   1.987  10.041 -0.0994  0.0654  1.0771
  102OSM     O310273   5.367   2.191  10.042 -0.3559  0.0873  0.1865
  102OSM    HO310274   5.318   2.234  10.112  1.0781 -0.7516  1.7712
  102OSM    C4S10275   5.280   2.059   9.861 -0.1235  0.5629  0.0467
  102OSM    H4S10276   5.211   1.976   9.838  1.0999 -0.2708 -0.7164
  102OSM    C5S10277   5.337   2.134   9.761  0.3344 -0.9350  0.1921
  102OSM    H5S10278   5.391   2.226   9.789 -1.2710  0.6791 -1.7127
  102OSM    C6S10279   5.318   2.118   9.612  0.9114  0.1588 -0.2312
  102OSM    H6S10280   5.420   2.090   9.578  1.2312  0.9721  0.0401
  102OSM    H6T10281   5.288   2.214   9.563 -3.2647 -1.3088 -1.0265
  102OSM    C7S10282   5.220   2.014   9.551 -0.3942  0.4190 -0.1353
  102OSM    H7S10283   5.117   2.022   9.592  0.6758  0.8194  2.7154
  102OSM    H7T10284   5.251   1.909   9.571 -1.4507  0.5846  2.7273
  102OSM    C8S10285   5.211   2.039   9.400  0.3117 -0.4530  0.7581
  102OSM    H8S10286   5.127   2.110   9.385 -0.7210 -1.7062  0.3879
  102OSM    H8T10287   5.180   1.939   9.362 -1.7508  0.2622  0.4329
  102OSM    C9S10288   5.340   2.079   9.326 -0.6743  0.0400  0.3145
  102OSM    H9S10289   5.411   1.995   9.342 -2.1213 -1.8928 -2.4746
  102OSM    H9T10290   5.384   2.174   9.363 -0.4100  0.2010 -0.4015
  102OSM   C10S10291   5.334   2.102   9.175  0.6934  0.0200 -0.3201
  102OSM   H10S10292   5.265   2.025   9.136 -2.9965  2.2681  1.3029
  102OSM   H10T10293   5.437   2.097   9.132  1.4056  3.3496  0.6594
  102OSM   C11S10294   5.292   2.243   9.124 -0.6049 -0.1855 -0.5831
  102OSM   H11S10295   5.363   2.311   9.175 -1.1341  2.1757 -2.7994
  102OSM   H11T10296   5.189   2.261   9.160 -0.7359 -2.4661  0.3517
  102OSM   C12S10297   5.319   2.265   8.975 -0.3214 -0.2589 -0.2711
  102OSM   H12S10298   5.251   2.186   8.937 -0.4215 -0.3585  0.1136
  102OSM   H12T10299   5.427   2.249   8.950 -0.5837 -0.5552 -1.2543
  102OSM   C13S10300   5.280   2.399   8.914 -0.0427  0.6835 -0.0115
  102OSM   H13S10301   5.334   2.479   8.969 -0.6112  0.2746  1.1740
  102OSM   H13T10302   5.172   2.422   8.925 -0.1358  0.1040  0.3216
  102OSM   C14S10303   5.335   2.410   8.775 -0.1607 -0.0085  0.4461
  102OSM   H14S10304   5.280   2.331   8.719 -0.3394 -0.4358  1.2165
  102OSM   H14T10305   5.443   2.385   8.770 -0.2395 -0.4096 -4.3973
  102OSM   C15S10306   5.301   2.548   8.710  0.3364 -0.2446 -0.5505
  102OSM   H15S10307   5.369   2.622   8.757  0.8131  0.6198 -2.4902
  102OSM   H15T10308   5.192   2.568   8.717 -0.2002 -1.4697 -3.5986
  102OSM   C16S10309   5.342   2.551   8.557 -0.2318  0.1132 -0.5069
  102OSM   H16S10310   5.309   2.648   8.515 -1.4863  0.3022  0.8210
  102OSM   H16T10311   5.280   2.470   8.512  2.4005 -3.3842  1.5947
  102OSM   C17S10312   5.494   2.536   8.522  0.2684  0.0073 -0.7695
  102OSM   H17S10313   5.507   2.548   8.412  1.7139  0.0848 -0.6112
  102OSM   H17T10314   5.506   2.428   8.542 -0.4842  0.4495  2.5883
  102OSM   C18S10315   5.593   2.619   8.591 -0.3369 -0.1126 -0.9272
  102OSM   H18S10316   5.696   2.584   8.570 -1.3641 -3.5522 -0.9560
  102OSM   H18T10317   5.586   2.622   8.702 -2.3280  2.8195 -0.9997
  102OSM   H18U10318   5.575   2.724   8.560  0.1940  0.2049 -0.1667
  102OSM    C1F10319   4.931   1.958  10.068  0.0872 -0.0495  0.2555
  102OSM     OF10320   4.889   2.054  10.136 -0.4703 -0.1082  0.3698
  102OSM    C2F10321   4.846   1.832  10.040 -0.3080 -1.0918  0.3989
  102OSM    H2F10322   4.833   1.789  10.142  1.6748 -1.4158  0.5716
  102OSM    H2G10323   4.903   1.750   9.990 -0.1282 -0.6229 -0.1805
  102OSM    C3F10324   4.706   1.863   9.974 -0.1419  0.4105 -0.0466
  102OSM    H3F10325   4.662   1.949  10.030 -0.3125  1.0257 -1.0983
  102OSM    H3G10326   4.628   1.783   9.972 -1.7607  1.9042  0.4263
  102OSM    C4F10327   4.716   1.907   9.825  0.2701 -0.1752 -0.6238
  102OSM    H4F10328   4.771   2.004   9.830 -0.5782  0.2699  1.8371
  102OSM    H4G10329   4.609   1.921   9.796  0.1947  0.6005 -0.0261
  102OSM    C5F10330   4.780   1.807   9.724 -0.3166  0.3324  0.2518
  102OSM    H5F10331   4.746   1.704   9.749  0.1801 -0.3285 -1.6202
  102OSM    H5G10332   4.890   1.810   9.738 -0.3918 -0.5309  1.1191
  102OSM    C6F10333   4.743   1.833   9.579 -0.2563 -0.3202 -0.1283
  102OSM    H6F10334   4.633   1.821   9.563  0.0233 -0.3712 -2.2040
  102OSM    H6G10335   4.793   1.758   9.514  0.0751 -0.6147  0.4601
  102OSM    C7F10336   4.791   1.969   9.540 -0.4606 -0.3990  0.2739
  102OSM    H7F10337   4.900   1.989   9.551 -0.7174  0.7854  0.6899
  102OSM    H7G10338   4.752   2.042   9.613  1.1303  1.4505 -0.6461
  102OSM    C8F10339   4.753   1.996   9.391 -0.2392  0.2737 -0.2446
  102OSM    H8F10340   4.643   1.999   9.373 -0.2430 -0.0111 -0.2719
  102OSM    H8G10341   4.791   1.906   9.337 -0.1824  1.0827 -1.6143
  102OSM    C9F10342   4.816   2.128   9.351 -0.2412  0.2933  0.2840
  102OSM    H9F10343   4.813   2.203   9.431  1.8606  1.3884 -0.5618
  102OSM   C10F10344   4.875   2.155   9.235  0.5883 -0.1805  0.8914
  102OSM   H10F10345   4.924   2.252   9.215  0.4057 -0.5942 -1.9262
  102OSM   C11F10346   4.885   2.054   9.120  0.1793  0.5208  0.8393
  102OSM   H11F10347   4.883   1.947   9.150 -0.7126 -0.0863 -1.2400
  102OSM   H11G10348   4.982   2.071   9.068 -0.1867 -1.1731 -0.4638
  102OSM   C12F10349   4.772   2.053   9.004  0.5953 -0.7198  0.3349
  102OSM   H12F10350   4.681   2.030   9.064  1.5852 -0.5056  1.9900
  102OSM   H12G10351   4.781   1.975   8.926 -2.6147  0.7082 -1.6914
  102OSM   C13F10352   4.767   2.195   8.943 -0.3326 -0.0997  0.0068
  102OSM   H13F10353   4.840   2.257   8.998 -0.9708  0.4202  0.2874
  102OSM   H13G10354   4.666   2.242   8.946 -0.0462  0.4927  1.8492
  102OSM   C14F10355   4.822   2.200   8.799 -0.1014  0.3009  0.0012
  102OSM   H14F10356   4.750   2.154   8.728 -1.0159  1.1368  0.3646
  102OSM   H14G10357   4.919   2.146   8.803 -0.0480  0.2237 -1.6801
  102OSM   C15F10358   4.830   2.350   8.752  0.0351 -0.2245 -0.1328
  102OSM   H15F10359   4.890   2.415   8.819 -0.4357 -1.2903  1.3798
  102OSM   H15G10360   4.726   2.390   8.752  0.4164  0.8283 -1.3580
  102OSM   C16F10361   4.891   2.361   8.606  0.3268  0.0397 -0.0417
  102OSM   H16F10362   4.818   2.324   8.531 -1.6208  2.1898  0.6583
  102OSM   H16G10363   4.982   2.298   8.599 -0.2793 -1.2951  2.8063
  102OSM   C17F10364   4.923   2.499   8.549 -0.8997  0.2925  0.2395
  102OSM   H17F10365   4.982   2.480   8.457 -1.0466  1.5507 -0.1239
  102OSM   H17G10366   4.984   2.563   8.617 -0.0532  0.2571 -0.4721
  102OSM   C18F10367   4.796   2.576   8.506  0.4189  0.3225 -0.2486
  102OSM   H18F10368   4.740   2.522   8.426 -1.0547  0.8057  0.4177
  102OSM   H18G10369   4.832   2.674   8.468 -1.1248  1.1311  0.2951
  102OSM   H18H10370   4.720   2.581   8.587 -0.5164 -1.9823 -0.8890
  103OSM      N10371   3.466   6.468  10.953  0.3679  0.9675 -1.3171
  103OSM    C1510372   3.431   6.314  10.985 -0.4298  0.0949  0.5587
  103OSM   H15A10373   3.460   6.287  11.085 -2.8610 -0.7007  1.1020
  103OSM   H15B10374   3.502   6.268  10.918  0.4065  1.5900  0.3588
  103OSM   H15C10375   3.326   6.296  10.965  0.1864 -1.4652 -1.6531
  103OSM    C1410376   3.368   6.555  11.024  0.7953 -0.2592 -0.7907
  103OSM   H14A10377   3.397   6.656  10.998  1.6739 -0.3955 -0.3941
  103OSM   H14B10378   3.368   6.535  11.130 -2.3506 -1.5581 -0.9402
  103OSM   H14C10379   3.269   6.529  10.989  1.1697 -2.5834 -0.3039
  103OSM    C1310380   3.601   6.487  11.009 -0.6179  1.1904 -0.7138
  103OSM   H13A10381   3.670   6.411  10.975 -2.0492 -0.8007  0.5437
  103OSM   H13B10382   3.595   6.471  11.116 -3.3962 -0.9401 -1.0501
  103OSM   H13C10383   3.637   6.587  10.990 -1.5945  1.6337 -0.3196
  103OSM    C1210384   3.460   6.489  10.804 -0.1552 -0.6037  0.3527
  103OSM   H12A10385   3.470   6.595  10.784  0.3376 -0.8987 -1.0792
  103OSM   H12B10386   3.358   6.483  10.769 -0.4173  2.2606  0.3694
  103OSM    C1110387   3.549   6.401  10.709  0.1243 -0.0546  0.1118
  103OSM   H11A10388   3.658   6.418  10.723 -0.0059  1.7100 -0.7332
  103OSM   H11B10389   3.541   6.441  10.606  3.5764 -0.8295 -0.5894
  103OSM      P10390   3.383   6.220  10.638  0.1128  0.1209  0.1321
  103OSM    O1310391   3.339   6.089  10.696  0.4601  0.1810  0.1500
  103OSM    O1410392   3.279   6.326  10.630  0.7773 -0.3942  0.2536
  103OSM    O1110393   3.426   6.188  10.495  0.1422  0.5043  0.7513
  103OSM    O1210394   3.517   6.263  10.707 -0.0947  0.0292  0.0258
  103OSM    C1S10395   3.539   6.124  10.455  0.0563  0.3642  0.4617
  103OSM    H1S10396   3.521   6.019  10.487 -0.2602  0.6036  1.0931
  103OSM    H1T10397   3.631   6.167  10.499  0.1367 -0.3819  1.0482
  103OSM     NF10398   3.626   6.024  10.251 -0.8470 -0.2682 -0.5023
  103OSM    HNF10399   3.713   6.054  10.212 -0.3099 -0.6753  0.3445
  103OSM    C2S10400   3.536   6.120  10.298  0.5405 -0.8512 -0.4260
  103OSM    H2S10401   3.437   6.078  10.269  0.1177 -0.1327 -0.0578
  103OSM    C3S10402   3.547   6.265  10.244 -0.5270  0.2228  0.1585
  103OSM    H3S10403   3.651   6.304  10.254 -1.2160  2.1475  0.2062
  103OSM     O310404   3.464   6.366  10.291  0.6631 -0.0862  0.0488
  103OSM    HO310405   3.421   6.332  10.370 -1.2800  1.7015 -0.1451
  103OSM    C4S10406   3.535   6.253  10.090  0.5796  0.2692 -0.3996
  103OSM    H4S10407   3.624   6.226  10.031  1.0992  0.3107  0.3477
  103OSM    C5S10408   3.431   6.283  10.011  0.1700 -0.7270 -0.4882
  103OSM    H5S10409   3.333   6.311  10.052  0.3389 -0.7965 -0.0240
  103OSM    C6S10410   3.438   6.281   9.860 -0.7710  0.1901  0.5272
  103OSM    H6S10411   3.362   6.213   9.816 -0.8423 -0.9425  2.3260
  103OSM    H6T10412   3.533   6.260   9.806 -1.5182  3.1011 -2.2420
  103OSM    C7S10413   3.398   6.424   9.813  0.2470 -0.3704 -0.1858
  103OSM    H7S10414   3.460   6.502   9.863  0.9799 -1.6838  1.0373
  103OSM    H7T10415   3.290   6.440   9.832  0.4690  1.1287 -0.0904
  103OSM    C8S10416   3.414   6.443   9.660  0.5718 -0.1022  0.0802
  103OSM    H8S10417   3.328   6.509   9.634  0.3363 -1.2799 -2.5085
  103OSM    H8T10418   3.396   6.347   9.605  0.9613 -0.6068  0.8197
  103OSM    C9S10419   3.548   6.499   9.606 -0.1537 -0.2046 -0.6128
  103OSM    H9S10420   3.637   6.439   9.634  0.9223  0.6107 -2.1458
  103OSM    H9T10421   3.558   6.600   9.651 -0.4025  0.0605 -1.1450
  103OSM   C10S10422   3.537   6.516   9.454  0.2839  0.1905 -0.2502
  103OSM   H10S10423   3.440   6.565   9.429 -1.3100 -1.8864  1.5304
  103OSM   H10T10424   3.551   6.415   9.409 -1.2163  0.5613 -1.6431
  103OSM   C11S10425   3.665   6.600   9.407  0.4761  0.1659 -0.0054
  103OSM   H11S10426   3.741   6.527   9.443 -0.3102  0.1499  1.7487
  103OSM   H11T10427   3.699   6.691   9.460  0.1221 -0.3724  1.2018
  103OSM   C12S10428   3.669   6.617   9.253 -0.0708 -0.4258 -0.5359
  103OSM   H12S10429   3.586   6.681   9.216 -0.0643 -0.1934 -0.1589
  103OSM   H12T10430   3.654   6.516   9.209 -0.2271 -0.8799  0.5314
  103OSM   C13S10431   3.801   6.690   9.202 -0.1311  0.3041 -0.3371
  103OSM   H13S10432   3.889   6.640   9.248  0.3574  1.0074 -0.4883
  103OSM   H13T10433   3.797   6.789   9.253  0.3039  0.3971 -0.4825
  103OSM   C14S10434   3.795   6.707   9.052 -0.1804 -0.9966 -0.4663
  103OSM   H14S10435   3.688   6.734   9.038 -0.2356  0.3836  2.0565
  103OSM   H14T10436   3.790   6.604   9.011  0.2281 -0.6951 -1.2900
  103OSM   C15S10437   3.900   6.798   8.983  0.4619  0.1672  0.3355
  103OSM   H15S10438   3.988   6.731   8.977  0.5825  0.3610 -0.1016
  103OSM   H15T10439   3.938   6.876   9.052  1.8472  0.5984 -0.8579
  103OSM   C16S10440   3.845   6.876   8.859 -0.5414 -0.4243 -1.2269
  103OSM   H16S10441   3.931   6.911   8.797  0.4673 -1.5127 -0.4800
  103OSM   H16T10442   3.793   6.965   8.901 -3.1114 -2.5574  0.3653
  103OSM   C17S10443   3.776   6.784   8.759 -0.1319  0.8699 -0.6190
  103OSM   H17S10444   3.687   6.746   8.813  2.0308  1.6464  4.0583
  103OSM   H17T10445   3.839   6.697   8.733 -0.7526  0.2065  0.0531
  103OSM   C18S10446   3.728   6.855   8.637 -0.4079 -0.1254  0.8753
  103OSM   H18S10447   3.638   6.801   8.600  0.1635  0.5864 -1.7840
  103OSM   H18T10448   3.812   6.858   8.564 -0.7304 -0.9440  0.4566
  103OSM   H18U10449   3.705   6.961   8.659 -0.5045  0.3886 -1.4495
  103OSM    C1F10450   3.623   5.893  10.282 -0.3688  0.2461 -0.4348
  103OSM     OF10451   3.528   5.838  10.341  0.3385  0.0178 -0.1465
  103OSM    C2F10452   3.733   5.805  10.237  0.1740  0.3506  0.3775
  103OSM    H2F10453   3.761   5.759  10.334 -1.3145 -0.0458  0.6388
  103OSM    H2G10454   3.817   5.860  10.188 -1.2557 -0.4783 -3.3641
  103OSM    C3F10455   3.683   5.697  10.129  0.0360 -0.2120 -0.4945
  103OSM    H3F10456   3.614   5.632  10.187 -0.5638  0.7759 -0.0808
  103OSM    H3G10457   3.769   5.629  10.114  0.0557 -0.0214 -1.3364
  103OSM    C4F10458   3.632   5.746   9.994  0.3251  0.0953  0.6031
  103OSM    H4F10459   3.539   5.804  10.012  1.0605  1.9960 -1.2591
  103OSM    H4G10460   3.613   5.657   9.930  1.0531  0.4720 -0.1717
  103OSM    C5F10461   3.710   5.853   9.913 -1.0181  0.2853  0.0863
  103OSM    H5F10462   3.813   5.813   9.898 -0.6541  0.7535  1.2238
  103OSM    H5G10463   3.710   5.952   9.963  0.8145  0.1248  0.4765
  103OSM    C6F10464   3.654   5.875   9.770  0.6039  0.3639 -0.3007
  103OSM    H6F10465   3.545   5.863   9.780  0.5144  0.3666 -1.1494
  103OSM    H6G10466   3.683   5.793   9.701  1.9194  0.3152  0.2671
  103OSM    C7F10467   3.681   6.010   9.714 -0.6410 -0.3650 -0.2892
  103OSM    H7F10468   3.790   6.013   9.690 -0.8447  0.6277 -1.2152
  103OSM    H7G10469   3.650   6.075   9.799  0.3512  0.6427 -0.6642
  103OSM    C8F10470   3.602   6.046   9.584  0.2809  0.4256 -0.9307
  103OSM    H8F10471   3.611   6.156   9.572 -2.0739  1.1196  2.3578
  103OSM    H8G10472   3.496   6.019   9.603  0.6026  0.5515  1.3079
  103OSM    C9F10473   3.658   5.963   9.468  0.0963  0.0204  0.3439
  103OSM    H9F10474   3.652   5.854   9.486  0.7997 -0.0914 -0.0694
  103OSM   C10F10475   3.741   6.013   9.373 -0.8938  0.2546  1.0046
  103OSM   H10F10476   3.777   5.942   9.296 -3.1973  0.9955 -0.8918
  103OSM   C11F10477   3.802   6.148   9.351  0.3132  0.0853 -0.7663
  103OSM   H11F10478   3.910   6.150   9.375 -0.3303  0.9422  2.6179
  103OSM   H11G10479   3.759   6.210   9.433  0.3870 -0.6741 -0.1365
  103OSM   C12F10480   3.763   6.212   9.220  0.1852  0.3601  0.6043
  103OSM   H12F10481   3.776   6.321   9.237 -1.9851  0.6812  0.4890
  103OSM   H12G10482   3.657   6.198   9.192 -0.4707 -1.5695  3.5417
  103OSM   C13F10483   3.856   6.176   9.095 -0.4965 -0.6199 -0.1629
  103OSM   H13F10484   3.819   6.080   9.055 -0.0263 -0.3626 -1.2403
  103OSM   H13G10485   3.962   6.172   9.129 -0.1923  1.1287 -0.7868
  103OSM   C14F10486   3.844   6.283   8.987  0.3228 -0.0599  0.6777
  103OSM   H14F10487   3.852   6.380   9.041  1.6642 -0.0710  0.5304
  103OSM   H14G10488   3.748   6.271   8.932  0.6909 -0.5297  0.1240
  103OSM   C15F10489   3.965   6.293   8.890 -0.1467  0.0624  0.2084
  103OSM   H15F10490   3.991   6.187   8.869 -3.2273 -0.3460 -2.2941
  103OSM   H15G10491   4.043   6.344   8.950 -0.3372 -0.2346  0.7165
  103OSM   C16F10492   3.943   6.375   8.763 -0.3810 -0.4269 -0.0037
  103OSM   H16F10493   3.905   6.477   8.787  0.6615  0.0269 -0.2264
  103OSM   H16G10494   3.880   6.319   8.691 -3.0063  0.5303  1.4027
  103OSM   C17F10495   4.080   6.391   8.702  0.2000 -0.5517  0.4045
  103OSM   H17F10496   4.110   6.287   8.676  2.3469  0.4440 -1.3775
  103OSM   H17G10497   4.157   6.432   8.772 -2.0112  1.6761  1.7045
  103OSM   C18F10498   4.081   6.471   8.573 -0.4274  0.6738  0.4739
  103OSM   H18F10499   4.023   6.563   8.592  0.2922  1.5650 -1.4166
  103OSM   H18G10500   4.033   6.416   8.488  2.7923 -2.6245  0.5559
  103OSM   H18H10501   4.183   6.508   8.551 -0.5609 -0.2568 -2.1022
  104OSM      N10502   6.791   4.326  10.804  0.0708  0.4532 -0.4810
  104OSM    C1510503   6.696   4.394  10.900 -0.1753 -0.2186 -0.3482
  104OSM   H15A10504   6.703   4.500  10.884  2.1110 -0.4653 -1.5695
  104OSM   H15B10505   6.704   4.370  11.005  0.9389  1.5683  0.0218
  104OSM   H15C10506   6.598   4.374  10.860 -0.1571  2.0843 -1.6871
  104OSM    C1410507   6.738   4.355  10.666 -0.3346  0.1669 -0.2876
  104OSM   H14A10508   6.647   4.298  10.650  0.5108 -0.6932 -2.4713
  104OSM   H14B10509   6.812   4.317  10.597  0.6917  0.7364  0.4828
  104OSM   H14C10510   6.736   4.460  10.641 -1.4860  0.3697  0.5824
  104OSM    C1310511   6.916   4.404  10.810 -1.0011  0.5276 -0.4067
  104OSM   H13A10512   6.899   4.503  10.769 -0.3823  0.6031 -0.4957
  104OSM   H13B10513   7.004   4.368  10.759 -0.5385  1.1712 -0.0724
  104OSM   H13C10514   6.959   4.399  10.909  1.3670 -2.7447 -1.4102
  104OSM    C1210515   6.799   4.180  10.820  0.1710 -0.8795 -1.0246
  104OSM   H12A10516   6.699   4.142  10.805 -0.5626  0.3089  0.5616
  104OSM   H12B10517   6.803   4.158  10.926 -0.2544  1.9040 -0.3602
  104OSM    C1110518   6.900   4.100  10.737 -0.2943 -0.3464  0.3185
  104OSM   H11A10519   7.007   4.132  10.743 -0.5901  0.7455  0.0466
  104OSM   H11B10520   6.884   4.114  10.628  2.0353  1.4487  0.1260
  104OSM      P10521   6.795   3.863  10.728 -0.4805  0.3520 -0.1319
  104OSM    O1310522   6.832   3.732  10.781  0.1694 -0.2138 -0.3971
  104OSM    O1410523   6.656   3.899  10.755 -0.2023 -0.2534  0.9080
  104OSM    O1110524   6.819   3.872  10.578 -0.0925  0.0328  0.6916
  104OSM    O1210525   6.901   3.969  10.789  0.1728  1.0364  0.5877
  104OSM    C1S10526   6.708   3.847  10.486  0.1363 -0.2440 -0.2464
  104OSM    H1S10527   6.640   3.935  10.481 -0.3154 -0.5841 -0.2322
  104OSM    H1T10528   6.640   3.769  10.528 -0.8541  1.6233  1.8542
  104OSM     NF10529   6.631   3.798  10.258 -1.2227  0.0871  0.3105
  104OSM    HNF10530   6.578   3.714  10.247 -3.0478  1.1905  0.2932
  104OSM    C2S10531   6.749   3.799  10.344  0.9792  0.5366  0.0515
  104OSM    H2S10532   6.823   3.875  10.310  0.7153  0.7373 -0.0722
  104OSM    C3S10533   6.819   3.660  10.354  0.2321 -1.1428 -0.1417
  104OSM    H3S10534   6.746   3.586  10.392 -0.9110  1.0137  2.1711
  104OSM     O310535   6.935   3.662  10.438  0.5863  0.2682 -0.5886
  104OSM    HO310536   6.925   3.748  10.479  1.7283 -0.1622  0.6570
  104OSM    C4S10537   6.861   3.614  10.212 -0.6479 -0.3111  0.0967
  104OSM    H4S10538   6.938   3.681  10.173 -0.6076 -0.9113 -0.8788
  104OSM    C5S10539   6.819   3.504  10.137 -0.0481 -0.2237  0.1252
  104OSM    H5S10540   6.721   3.460  10.158 -1.9743  2.5782 -2.0669
  104OSM    C6S10541   6.873   3.460  10.003  0.6252  0.4479  0.4687
  104OSM    H6S10542   6.791   3.430   9.935  1.2829  0.4743 -0.3564
  104OSM    H6T10543   6.934   3.368  10.017  1.3940  0.8829  0.0340
  104OSM    C7S10544   6.948   3.573   9.923 -0.9818  0.1255 -0.2611
  104OSM    H7S10545   6.985   3.511   9.838  1.3905  0.6039  0.3428
  104OSM    H7T10546   7.033   3.602   9.988 -1.1966  1.0972 -0.4035
  104OSM    C8S10547   6.873   3.693   9.875 -0.2057 -0.0691 -0.1973
  104OSM    H8S10548   6.939   3.759   9.814 -1.0325  1.5003  0.5558
  104OSM    H8T10549   6.837   3.739   9.969 -1.8449  1.5302 -1.5085
  104OSM    C9S10550   6.749   3.660   9.787  0.3552  0.0176  0.3360
  104OSM    H9S10551   6.680   3.595   9.845  1.0535 -0.6452  0.4522
  104OSM    H9T10552   6.798   3.600   9.707 -1.1476 -0.8758  0.0528
  104OSM   C10S10553   6.679   3.786   9.736 -0.5622 -0.3559 -0.0095
  104OSM   H10S10554   6.759   3.861   9.720  0.6114 -1.1398  1.8989
  104OSM   H10T10555   6.603   3.817   9.812  0.6248  1.7266  0.4058
  104OSM   C11S10556   6.607   3.761   9.602 -0.7400  0.5572 -0.1200
  104OSM   H11S10557   6.533   3.842   9.590 -0.7349  1.2757  3.6138
  104OSM   H11T10558   6.550   3.665   9.606 -0.4863  0.3903 -0.4202
  104OSM   C12S10559   6.709   3.744   9.485  0.3366  0.6244 -0.4282
  104OSM   H12S10560   6.783   3.664   9.504  2.2662  2.3974 -0.0550
  104OSM   H12T10561   6.778   3.831   9.484  0.4116  0.7191  2.4998
  104OSM   C13S10562   6.635   3.721   9.349 -0.7817  0.6464 -0.4892
  104OSM   H13S10563   6.588   3.818   9.320  0.7325  1.8519  0.9088
  104OSM   H13T10564   6.560   3.641   9.368  0.1639 -0.2387 -0.3961
  104OSM   C14S10565   6.732   3.680   9.239 -0.3380 -0.6283 -0.4809
  104OSM   H14S10566   6.783   3.586   9.270 -0.2405 -1.3328 -2.6691
  104OSM   H14T10567   6.808   3.760   9.220  0.8075 -1.9051 -1.5068
  104OSM   C15S10568   6.662   3.652   9.105 -0.2005 -0.4186 -0.3710
  104OSM   H15S10569   6.592   3.737   9.088 -1.3809 -0.8666  1.8546
  104OSM   H15T10570   6.606   3.562   9.136  0.1598 -0.4758  0.1055
  104OSM   C16S10571   6.748   3.619   8.987 -0.3755  0.8331 -0.8047
  104OSM   H16S10572   6.819   3.538   9.013 -0.6678  0.2818 -1.6901
  104OSM   H16T10573   6.800   3.714   8.961 -0.7525  1.0145 -0.9031
  104OSM   C17S10574   6.671   3.598   8.859 -0.2954 -0.0312 -0.1855
  104OSM   H17S10575   6.599   3.681   8.847  1.0313  1.4104  1.3688
  104OSM   H17T10576   6.602   3.511   8.869 -1.4072  0.8969  0.4461
  104OSM   C18S10577   6.756   3.583   8.731  0.6152 -0.3035  0.8969
  104OSM   H18S10578   6.823   3.498   8.752 -2.0313 -2.6530  0.3702
  104OSM   H18T10579   6.813   3.676   8.708 -2.0739  1.5383  1.2271
  104OSM   H18U10580   6.684   3.558   8.650  1.0835 -0.5314  0.5498
  104OSM    C1F10581   6.584   3.918  10.222  0.0231  0.3829 -0.5502
  104OSM     OF10582   6.616   4.024  10.281 -0.0842  0.4130  0.3731
  104OSM    C2F10583   6.487   3.926  10.105  0.0714  0.0953 -0.3589
  104OSM    H2F10584   6.383   3.919  10.142  0.4970  0.5906  0.9874
  104OSM    H2G10585   6.510   3.837  10.042  1.0943 -1.1012  1.6217
  104OSM    C3F10586   6.481   4.061  10.028  0.3880  0.2239  0.1766
  104OSM    H3F10587   6.586   4.096  10.024  0.6083 -0.3198  0.9745
  104OSM    H3G10588   6.439   4.138  10.096 -1.0010 -1.0984  0.8576
  104OSM    C4F10589   6.401   4.067   9.893 -0.2764 -0.4124  0.2818
  104OSM    H4F10590   6.298   4.027   9.903 -0.9082  0.3863 -2.3333
  104OSM    H4G10591   6.455   4.010   9.814  1.4602 -0.2575  1.3080
  104OSM    C5F10592   6.375   4.211   9.849 -0.0022 -0.3536  0.1292
  104OSM    H5F10593   6.440   4.290   9.892 -1.8975  2.1370 -1.3023
  104OSM    H5G10594   6.274   4.226   9.894 -0.0370  0.2832 -0.1414
  104OSM    C6F10595   6.367   4.229   9.693  0.2579  0.2457  0.3865
  104OSM    H6F10596   6.344   4.337   9.682 -0.7537  0.0759  0.7875
  104OSM    H6G10597   6.281   4.172   9.653  1.4327 -2.2826  1.2022
  104OSM    C7F10598   6.488   4.189   9.610 -0.3081 -0.0668 -0.8543
  104OSM    H7F10599   6.530   4.099   9.659  0.7274  1.2792  0.8353
  104OSM    H7G10600   6.566   4.268   9.614  0.6193 -1.0007  1.7119
  104OSM    C8F10601   6.456   4.145   9.467  0.2638 -0.0932 -0.0070
  104OSM    H8F10602   6.379   4.065   9.477  1.6784 -1.6530 -1.1192
  104OSM    H8G10603   6.551   4.101   9.430  0.0199 -0.1310 -0.5932
  104OSM    C9F10604   6.400   4.242   9.370  0.0407 -0.2956 -0.6616
  104OSM    H9F10605   6.314   4.304   9.401 -1.2086 -2.3454  0.2213
  104OSM   C10F10606   6.441   4.263   9.243 -1.1908 -0.5291  0.1925
  104OSM   H10F10607   6.410   4.352   9.188  0.0328 -0.8006 -0.9898
  104OSM   C11F10608   6.544   4.191   9.162 -0.1224 -0.5634  0.2270
  104OSM   H11F10609   6.593   4.110   9.220  0.0451 -0.1004  0.7442
  104OSM   H11G10610   6.623   4.256   9.117 -0.8643 -0.5420 -1.0876
  104OSM   C12F10611   6.457   4.128   9.053  0.3158  0.2406 -0.0781
  104OSM   H12F10612   6.431   4.208   8.980 -1.7970 -0.9286 -0.7010
  104OSM   H12G10613   6.360   4.080   9.078  1.0843 -0.9818  0.6825
  104OSM   C13F10614   6.531   4.017   8.982 -0.4622  0.4045  0.3322
  104OSM   H13F10615   6.572   3.939   9.050 -1.1291  1.2266  1.7269
  104OSM   H13G10616   6.624   4.067   8.947 -1.1140  1.8747  0.6074
  104OSM   C14F10617   6.477   3.960   8.848  0.5834  0.3014 -0.1804
  104OSM   H14F10618   6.552   3.898   8.794 -0.0820 -0.3900 -0.3278
  104OSM   H14G10619   6.460   4.043   8.776 -0.9687  1.5610  1.5385
  104OSM   C15F10620   6.344   3.875   8.860 -0.6641  0.0820 -0.0818
  104OSM   H15F10621   6.270   3.933   8.920 -0.1317 -1.5692  2.2958
  104OSM   H15G10622   6.349   3.789   8.930  2.9088  2.0981  2.4775
  104OSM   C16F10623   6.279   3.830   8.732 -0.2848 -0.0208  0.2878
  104OSM   H16F10624   6.184   3.775   8.747 -0.1824 -0.2795 -0.0134
  104OSM   H16G10625   6.352   3.759   8.689  0.4637  0.5784  0.5391
  104OSM   C17F10626   6.280   3.932   8.620  0.0735  0.4934 -0.1071
  104OSM   H17F10627   6.388   3.949   8.601  0.1408 -1.6921 -2.2895
  104OSM   H17G10628   6.236   4.030   8.649  1.6428  0.7535  1.5575
  104OSM   C18F10629   6.205   3.870   8.496 -0.0827 -0.1552 -0.3425
  104OSM   H18F10630   6.250   3.773   8.468  0.0968 -0.2860  0.3841
  104OSM   H18G10631   6.205   3.944   8.412 -3.8393 -1.8157 -2.0050
  104OSM   H18H10632   6.099   3.856   8.525  0.0124 -2.4771 -0.9313
  105OSM      N10633   1.289   4.432  10.477 -0.5200  0.1936 -0.1365
  105OSM    C1510634   1.156   4.366  10.439 -0.4639 -0.2287  0.0504
  105OSM   H15A10635   1.100   4.341  10.528 -0.7996 -2.1082 -0.6221
  105OSM   H15B10636   1.163   4.280  10.373 -0.7203  0.4791 -0.9224
  105OSM   H15C10637   1.089   4.436  10.392  1.4503  1.5963 -0.1017
  105OSM    C1410638   1.372   4.323  10.547 -0.3730 -0.5853  0.2007
  105OSM   H14A10639   1.389   4.242  10.478  2.9475 -0.0509  0.2365
  105OSM   H14B10640   1.328   4.283  10.637  2.4486 -1.2280  1.4080
  105OSM   H14C10641   1.473   4.356  10.569  0.5613 -3.2282  0.1815
  105OSM    C1310642   1.359   4.483  10.364  0.5055  0.8684  0.1444
  105OSM   H13A10643   1.318   4.572  10.318 -0.9863 -0.1382 -0.5562
  105OSM   H13B10644   1.375   4.414  10.282 -1.3878 -0.5672  0.9296
  105OSM   H13C10645   1.462   4.502  10.389  0.3578  1.3954  0.3535
  105OSM    C1210646   1.255   4.540  10.576 -0.0555  0.1527 -1.0617
  105OSM   H12A10647   1.348   4.577  10.616 -0.5380 -0.1102  0.3662
  105OSM   H12B10648   1.203   4.498  10.661  0.0277  2.8961  0.4546
  105OSM    C1110649   1.177   4.665  10.531  0.1162 -0.3083  0.4010
  105OSM   H11A10650   1.073   4.640  10.502  0.1148  1.9570 -1.9151
  105OSM   H11B10651   1.238   4.710  10.449 -0.6242  2.3287  1.1872
  105OSM      P10652   1.146   4.909  10.627 -0.0250 -0.1534 -0.0834
  105OSM    O1310653   1.112   4.969  10.761  0.7816 -0.2065 -0.2908
  105OSM    O1410654   1.271   4.962  10.565 -0.1023  0.1642  0.2075
  105OSM    O1110655   1.038   4.924  10.527  0.4799  0.5980  0.4444
  105OSM    O1210656   1.162   4.752  10.646 -0.4935 -0.5022 -0.7364
  105OSM    C1S10657   1.052   5.016  10.411  0.3660 -0.1817 -0.0113
  105OSM    H1S10658   1.157   5.035  10.380  0.6154 -0.2297  0.7872
  105OSM    H1T10659   1.002   5.112  10.438  0.4895  0.1312 -0.8444
  105OSM     NF10660   1.010   5.042  10.168  0.2323  0.5440  0.2793
  105OSM    HNF10661   0.964   5.125  10.140  0.8272  1.1354  1.0189
  105OSM    C2S10662   0.979   4.966  10.283 -0.3930  0.3322  0.2340
  105OSM    H2S10663   1.019   4.863  10.270  0.1768  0.6527 -0.7069
  105OSM    C3S10664   0.822   4.969  10.315  0.2577  0.4216 -0.2483
  105OSM    H3S10665   0.777   5.069  10.329 -1.5237 -0.2307 -1.0077
  105OSM     O310666   0.781   4.913  10.438  0.2380 -0.6981 -0.0044
  105OSM    HO310667   0.865   4.910  10.485  0.2588 -1.5656 -0.0679
  105OSM    C4S10668   0.747   4.888  10.213  0.4652 -0.0759  0.0779
  105OSM    H4S10669   0.764   4.780  10.226  1.6030  0.1864  0.9069
  105OSM    C5S10670   0.675   4.938  10.117  0.7982 -0.4305 -0.1671
  105OSM    H5S10671   0.660   5.047  10.112  0.6028 -0.3677  1.3705
  105OSM    C6S10672   0.605   4.849  10.015 -0.2080  0.3399  0.0763
  105OSM    H6S10673   0.498   4.875   9.999 -1.2916 -2.6063  1.7504
  105OSM    H6T10674   0.609   4.744  10.049  2.0149  0.5343  0.5822
  105OSM    C7S10675   0.682   4.864   9.881  0.9166  0.5196 -0.0430
  105OSM    H7S10676   0.633   4.790   9.814  0.0403  1.3340 -0.3260
  105OSM    H7T10677   0.783   4.818   9.894 -0.1451 -2.6364 -1.9144
  105OSM    C8S10678   0.698   5.013   9.826  0.6816  0.3870  0.7237
  105OSM    H8S10679   0.773   5.072   9.882  1.4910  0.9937 -0.9229
  105OSM    H8T10680   0.596   5.056   9.837 -0.0576 -1.3542  0.8909
  105OSM    C9S10681   0.743   5.013   9.681  0.5067  0.0688 -0.2261
  105OSM    H9S10682   0.661   4.991   9.610 -0.0117 -0.9304  0.6486
  105OSM    H9T10683   0.822   4.935   9.670  2.2766  1.6538  0.5942
  105OSM   C10S10684   0.812   5.138   9.646  0.2972 -0.0525  0.4248
  105OSM   H10S10685   0.910   5.138   9.700  0.2861  0.3490  0.4487
  105OSM   H10T10686   0.757   5.223   9.692 -1.5314 -0.0695 -1.5757
  105OSM   C11S10687   0.830   5.158   9.493 -0.2065  0.2094  0.3593
  105OSM   H11S10688   0.861   5.263   9.475  2.3637 -0.0625  2.5657
  105OSM   H11T10689   0.737   5.122   9.443 -1.0301  1.9998  0.5377
  105OSM   C12S10690   0.946   5.070   9.444 -0.0764  0.0787 -0.1229
  105OSM   H12S10691   0.913   4.970   9.478 -2.9148  0.5144 -1.2754
  105OSM   H12T10692   1.038   5.109   9.493 -0.3201  2.2239 -1.2172
  105OSM   C13S10693   0.975   5.073   9.295  0.6818 -0.1990 -0.2462
  105OSM   H13S10694   1.068   5.016   9.279  2.5890  1.5085  3.4981
  105OSM   H13T10695   0.997   5.175   9.258  1.3655  0.6256  2.2843
  105OSM   C14S10696   0.859   5.013   9.211  0.2217  0.0734 -0.0509
  105OSM   H14S10697   0.762   5.068   9.223 -0.4581 -1.0010 -0.4793
  105OSM   H14T10698   0.839   4.909   9.241 -1.3865  0.5243  0.5391
  105OSM   C15S10699   0.906   5.003   9.063 -0.1981 -0.4034  0.1960
  105OSM   H15S10700   0.957   5.097   9.034 -0.2826  0.6801  3.1768
  105OSM   H15T10701   0.816   4.998   8.998 -0.1428 -0.2898  0.1124
  105OSM   C16S10702   0.996   4.877   9.026 -0.8521  0.5431  0.3526
  105OSM   H16S10703   0.941   4.788   9.066 -1.8955  1.2103  0.4500
  105OSM   H16T10704   1.088   4.891   9.086  0.1968 -0.5371 -0.9330
  105OSM   C17S10705   1.023   4.850   8.877  0.0560  0.0993 -0.1959
  105OSM   H17S10706   1.099   4.769   8.884  0.6527  0.7700  2.5270
  105OSM   H17T10707   1.079   4.937   8.837 -0.9277  1.8741  2.0675
  105OSM   C18S10708   0.907   4.813   8.788 -0.2843  0.2844 -0.0584
  105OSM   H18S10709   0.831   4.894   8.778 -0.7242 -0.3035 -1.8855
  105OSM   H18T10710   0.853   4.724   8.828 -0.6035 -1.2782 -3.5638
  105OSM   H18U10711   0.952   4.789   8.689  0.0074 -0.7541  0.3086
  105OSM    C1F10712   1.130   5.032  10.110 -0.1077 -0.8585 -0.4694
  105OSM     OF10713   1.206   4.953  10.153 -0.1338  0.0469  0.0290
  105OSM    C2F10714   1.153   5.127  10.004 -0.2872 -0.0759  1.3080
  105OSM    H2F10715   1.175   5.224  10.055 -1.2120 -0.8845  3.3551
  105OSM    H2G10716   1.063   5.137   9.941  1.0163  1.8604 -0.3936
  105OSM    C3F10717   1.286   5.088   9.924 -0.0850 -1.4993 -0.0789
  105OSM    H3F10718   1.280   4.983   9.886  1.3644 -2.4971  2.2318
  105OSM    H3G10719   1.376   5.099   9.988  1.1004  2.1016 -2.1205
  105OSM    C4F10720   1.305   5.179   9.798  0.5663 -0.1821  0.1493
  105OSM    H4F10721   1.393   5.135   9.747  2.3600  0.6260  2.3505
  105OSM    H4G10722   1.336   5.279   9.836 -0.1225  0.8406 -1.8512
  105OSM    C5F10723   1.172   5.201   9.720 -0.3969 -0.1147  0.3418
  105OSM    H5F10724   1.094   5.252   9.780 -0.5860  1.6366 -1.2901
  105OSM    H5G10725   1.138   5.107   9.673  1.8179 -0.5372 -0.5060
  105OSM    C6F10726   1.205   5.296   9.604 -0.5224 -0.4254  0.5494
  105OSM    H6F10727   1.258   5.388   9.636  0.3831 -0.3080 -1.1966
  105OSM    H6G10728   1.109   5.319   9.552 -1.2657 -1.6661  1.3170
  105OSM    C7F10729   1.291   5.230   9.491  0.1313 -0.1021  0.5819
  105OSM    H7F10730   1.228   5.153   9.441  0.3446  1.2667 -1.9930
  105OSM    H7G10731   1.371   5.176   9.545 -0.2581 -0.8772  0.3989
  105OSM    C8F10732   1.342   5.319   9.380 -0.0162  0.0658 -0.2307
  105OSM    H8F10733   1.397   5.402   9.431  0.3013  0.4574 -1.1913
  105OSM    H8G10734   1.256   5.372   9.334  1.0736  2.9921  0.8534
  105OSM    C9F10735   1.424   5.265   9.271 -0.2088 -0.8408 -0.0116
  105OSM    H9F10736   1.427   5.155   9.276  1.3122 -0.8796 -1.2746
  105OSM   C10F10737   1.493   5.320   9.182 -0.8337 -0.5938  0.5842
  105OSM   H10F10738   1.552   5.261   9.111  2.1962  2.3361  0.4270
  105OSM   C11F10739   1.498   5.465   9.155  0.1627 -0.4557 -0.0587
  105OSM   H11F10740   1.452   5.518   9.241 -0.0628 -0.6459 -0.0644
  105OSM   H11G10741   1.440   5.481   9.062 -2.2120  0.5494  1.5017
  105OSM   C12F10742   1.643   5.509   9.129 -0.3684 -0.0618  0.7698
  105OSM   H12F10743   1.714   5.493   9.214 -0.8424  1.3903  1.4709
  105OSM   H12G10744   1.636   5.620   9.126  2.6073  0.1931 -0.6839
  105OSM   C13F10745   1.697   5.469   8.993 -0.1385  0.0152  0.2732
  105OSM   H13F10746   1.627   5.490   8.909 -1.4483 -1.9906  0.7750
  105OSM   H13G10747   1.711   5.358   8.993 -0.2965 -0.0462 -2.0592
  105OSM   C14F10748   1.834   5.532   8.961  1.0041  0.0692  0.6994
  105OSM   H14F10749   1.877   5.488   8.868 -1.5072 -1.1165  0.0073
  105OSM   H14G10750   1.897   5.518   9.051  2.4841  1.5336 -0.0453
  105OSM   C15F10751   1.821   5.682   8.925 -0.8104  0.1351 -0.1836
  105OSM   H15F10752   1.776   5.738   9.009 -1.7086 -1.2772  0.3133
  105OSM   H15G10753   1.766   5.700   8.830  2.3500  0.3583 -2.1232
  105OSM   C16F10754   1.962   5.748   8.905 -0.7252 -0.4168  0.5197
  105OSM   H16F10755   2.021   5.701   8.822 -0.5062  1.0508 -0.1793
  105OSM   H16G10756   2.027   5.750   8.995  0.2693  3.5003 -0.1262
  105OSM   C17F10757   1.958   5.893   8.864  0.0042 -0.0353 -0.1521
  105OSM   H17F10758   2.062   5.934   8.863  0.8915 -2.1517 -1.0864
  105OSM   H17G10759   1.904   5.953   8.940 -0.6613 -1.4373  0.5092
  105OSM   C18F10760   1.909   5.912   8.720  0.5445 -0.4923 -0.0517
  105OSM   H18F10761   1.980   5.873   8.643  0.5745 -1.0403  0.2504
  105OSM   H18G10762   1.885   6.019   8.700 -1.3252 -1.1787 -1.9075
  105OSM   H18H10763   1.819   5.850   8.698 -0.0375 -0.4021  1.9002
  106OSM      N10764   6.017   1.032  10.606 -0.4599 -0.5336  0.0508
  106OSM    C1510765   6.107   1.066  10.717 -0.8863  1.6230 -0.4705
  106OSM   H15A10766   6.189   1.115  10.668  1.8185 -0.3493  1.7580
  106OSM   H15B10767   6.147   0.975  10.758 -1.2090  1.5393 -0.3365
  106OSM   H15C10768   6.057   1.124  10.794 -2.1294  0.7955 -0.6140
  106OSM    C1410769   6.091   0.942  10.504 -0.2817 -0.2897 -1.5302
  106OSM   H14A10770   6.131   0.850  10.545 -1.9439 -0.5963 -0.5043
  106OSM   H14B10771   6.156   0.995  10.436 -2.0113  1.0895 -2.1857
  106OSM   H14C10772   6.012   0.900  10.443 -1.5508  1.4227 -1.1357
  106OSM    C1310773   5.893   0.964  10.657 -0.1677  0.5538  0.8370
  106OSM   H13A10774   5.815   0.957  10.582 -0.7986  0.3596  1.4977
  106OSM   H13B10775   5.848   1.019  10.738 -1.5603 -0.3607  0.7177
  106OSM   H13C10776   5.899   0.861  10.691 -2.3149 -0.7005 -2.1277
  106OSM    C1210777   5.966   1.165  10.542  0.0805  0.0272  0.1113
  106OSM   H12A10778   5.940   1.223  10.629 -1.1995 -2.2373  1.3450
  106OSM   H12B10779   5.873   1.156  10.488 -0.6340 -1.2705  1.4784
  106OSM    C1110780   6.077   1.245  10.471  0.3220 -0.2561 -0.8182
  106OSM   H11A10781   6.027   1.315  10.400 -1.2533 -0.6592 -0.1422
  106OSM   H11B10782   6.128   1.176  10.400  0.5510 -0.2435 -0.6665
  106OSM      P10783   6.150   1.454  10.615  0.0823 -0.1933 -0.9983
  106OSM    O1310784   6.026   1.460  10.693 -0.2793 -0.4131  0.1088
  106OSM    O1410785   6.276   1.490  10.679  0.1104 -0.5648 -0.2012
  106OSM    O1110786   6.135   1.524  10.484  0.6072  0.0435  0.2866
  106OSM    O1210787   6.165   1.304  10.574 -0.2482  0.7674 -0.2062
  106OSM    C1S10788   6.252   1.555  10.412  0.2684  0.0528  0.2554
  106OSM    H1S10789   6.335   1.482  10.410 -1.8573 -2.5217 -1.7847
  106OSM    H1T10790   6.297   1.647  10.455 -1.5011  0.8304  0.5331
  106OSM     NF10791   6.358   1.624  10.210  0.1779  0.3149  0.7164
  106OSM    HNF10792   6.385   1.719  10.197  0.5681  0.1542  0.3257
  106OSM    C2S10793   6.233   1.593  10.265 -0.0002  1.0766 -0.0237
  106OSM    H2S10794   6.196   1.502  10.213  0.1911  0.0749  1.5268
  106OSM    C3S10795   6.134   1.717  10.242 -0.3636  0.2579  0.2127
  106OSM    H3S10796   6.179   1.806  10.291 -0.4183 -0.7040  2.0708
  106OSM     O310797   6.004   1.689  10.302  0.4874 -0.3648 -0.1553
  106OSM    HO310798   6.025   1.619  10.365  1.7213  1.1191  1.1581
  106OSM    C4S10799   6.110   1.745  10.104 -0.2123 -0.1563 -0.7064
  106OSM    H4S10800   6.058   1.663  10.053 -0.8417 -1.1661  1.4399
  106OSM    C5S10801   6.157   1.850  10.027  0.7886 -0.9387  0.2497
  106OSM    H5S10802   6.226   1.923  10.072  1.0948 -0.5591 -0.7979
  106OSM    C6S10803   6.118   1.880   9.884 -0.3864  0.4889 -0.2698
  106OSM    H6S10804   6.095   1.988   9.874  0.0110  0.5748 -0.2876
  106OSM    H6T10805   6.027   1.826   9.851  0.7230 -0.7490 -1.4168
  106OSM    C7S10806   6.227   1.835   9.779  0.6072  0.3143 -0.2929
  106OSM    H7S10807   6.246   1.727   9.797  2.3015  0.5996 -0.1978
  106OSM    H7T10808   6.322   1.893   9.785  0.8971  0.1151 -2.2696
  106OSM    C8S10809   6.172   1.842   9.636 -0.1242  0.2710  0.2866
  106OSM    H8S10810   6.263   1.807   9.583 -1.2710  0.3360 -1.8377
  106OSM    H8T10811   6.141   1.939   9.591 -1.2278 -0.9833 -1.8823
  106OSM    C9S10812   6.056   1.756   9.595 -0.2001 -0.2957 -0.1663
  106OSM    H9S10813   5.954   1.797   9.611 -0.4384 -1.4542  1.4083
  106OSM    H9T10814   6.065   1.661   9.651 -0.9643  0.2363  0.8959
  106OSM   C10S10815   6.078   1.721   9.447 -0.0169  0.7911  0.5158
  106OSM   H10S10816   6.001   1.641   9.440 -1.4536  1.8750  2.7572
  106OSM   H10T10817   6.179   1.675   9.446  0.3402  1.5228 -1.7306
  106OSM   C11S10818   6.066   1.820   9.329 -0.0247 -0.0434 -0.4567
  106OSM   H11S10819   6.151   1.891   9.341  0.4315 -0.6936  0.2756
  106OSM   H11T10820   5.971   1.876   9.347 -0.0802 -0.5996  1.1482
  106OSM   C12S10821   6.059   1.743   9.198  1.0297  0.0609  0.0531
  106OSM   H12S10822   6.022   1.812   9.119 -0.1268  1.0704  1.4219
  106OSM   H12T10823   5.991   1.655   9.198 -0.8744  1.4169  2.2257
  106OSM   C13S10824   6.191   1.698   9.147 -0.2849  0.4892 -0.0116
  106OSM   H13S10825   6.246   1.635   9.220 -0.5691  0.7827  0.4639
  106OSM   H13T10826   6.244   1.792   9.125 -1.3189  0.4844 -2.9770
  106OSM   C14S10827   6.173   1.626   9.014 -0.4826  0.1555  0.3004
  106OSM   H14S10828   6.127   1.705   8.952 -0.1245 -0.8347 -1.2809
  106OSM   H14T10829   6.101   1.542   9.030  0.4808 -0.9606 -0.9703
  106OSM   C15S10830   6.309   1.573   8.955 -0.2711 -0.1775  0.1384
  106OSM   H15S10831   6.356   1.503   9.026  0.7861 -0.9669 -1.2853
  106OSM   H15T10832   6.379   1.659   8.948 -0.8154  0.5997  2.9381
  106OSM   C16S10833   6.279   1.507   8.823  0.3832 -0.5514  0.1641
  106OSM   H16S10834   6.184   1.554   8.791 -0.1107 -0.5685  1.5758
  106OSM   H16T10835   6.244   1.403   8.840  1.2814 -0.9516 -0.3004
  106OSM   C17S10836   6.400   1.509   8.722  0.2409 -0.4511 -0.1985
  106OSM   H17S10837   6.389   1.454   8.627  1.5217  0.1301 -0.6996
  106OSM   H17T10838   6.485   1.457   8.771  2.3222 -0.0826 -3.1773
  106OSM   C18S10839   6.445   1.648   8.678 -0.2535  0.3636 -0.0585
  106OSM   H18S10840   6.482   1.711   8.762 -3.0223  3.4224 -0.9439
  106OSM   H18T10841   6.365   1.713   8.639 -0.4102  0.4874  0.4613
  106OSM   H18U10842   6.533   1.648   8.610  1.6439  0.8492  2.2453
  106OSM    C1F10843   6.454   1.536  10.193  0.0054 -0.0748  0.0194
  106OSM     OF10844   6.429   1.416  10.204  0.7713 -0.6355 -0.0730
  106OSM    C2F10845   6.588   1.593  10.148  1.1911  0.3562  1.0229
  106OSM    H2F10846   6.669   1.547  10.209 -0.8119 -3.5923  1.0767
  106OSM    H2G10847   6.589   1.702  10.170 -0.2821  0.6617 -0.2785
  106OSM    C3F10848   6.633   1.577  10.007  0.7949 -0.0560  0.7664
  106OSM    H3F10849   6.664   1.471   9.997  1.2991  0.1600 -0.0714
  106OSM    H3G10850   6.722   1.643  10.000 -1.7377  3.6105  0.2022
  106OSM    C4F10851   6.536   1.614   9.894  0.3180  0.5344 -0.0048
  106OSM    H4F10852   6.478   1.705   9.919  0.8405  0.6702  0.7442
  106OSM    H4G10853   6.460   1.533   9.888  0.2631  0.6860 -2.6434
  106OSM    C5F10854   6.607   1.647   9.764 -0.3117 -0.2125 -0.2762
  106OSM    H5F10855   6.668   1.558   9.737 -1.2691 -0.9483 -0.0636
  106OSM    H5G10856   6.682   1.729   9.773  2.3985 -2.4639 -0.8646
  106OSM    C6F10857   6.513   1.696   9.653 -0.1792  0.3173  0.0267
  106OSM    H6F10858   6.479   1.799   9.675 -0.9064  0.0715  0.0849
  106OSM    H6G10859   6.425   1.628   9.650 -0.8622  1.1411  0.8756
  106OSM    C7F10860   6.575   1.690   9.515  0.7091  0.1314  0.1307
  106OSM    H7F10861   6.629   1.595   9.496  0.0416 -0.8231  2.6302
  106OSM    H7G10862   6.648   1.774   9.506 -0.4163  1.1568  0.2692
  106OSM    C8F10863   6.472   1.709   9.404 -0.3690 -0.3844 -0.2260
  106OSM    H8F10864   6.435   1.813   9.414 -0.0728 -0.3774  1.0916
  106OSM    H8G10865   6.392   1.640   9.439 -0.8353 -0.6596 -1.7866
  106OSM    C9F10866   6.517   1.681   9.271  0.2835 -0.1984  0.7570
  106OSM    H9F10867   6.494   1.578   9.241 -2.6607  0.8953 -1.2264
  106OSM   C10F10868   6.570   1.764   9.180 -0.0501  0.1818 -0.1791
  106OSM   H10F10869   6.587   1.722   9.079  1.1555 -0.4058  0.2490
  106OSM   C11F10870   6.595   1.915   9.195 -0.3150  0.0814  0.2757
  106OSM   H11F10871   6.697   1.923   9.151  0.6237 -1.5024  2.0016
  106OSM   H11G10872   6.598   1.956   9.298  0.7402  3.3976 -0.9480
  106OSM   C12F10873   6.493   2.001   9.115 -0.3269 -0.6458  0.2907
  106OSM   H12F10874   6.517   2.107   9.136 -1.9829  0.1547 -1.6094
  106OSM   H12G10875   6.392   1.978   9.155 -0.5886  0.7407  0.4625
  106OSM   C13F10876   6.500   1.971   8.966  0.2318 -0.7294 -0.0736
  106OSM   H13F10877   6.485   1.864   8.940  0.9821 -1.1046  0.9636
  106OSM   H13G10878   6.604   1.987   8.932  0.6111 -0.4261  1.1843
  106OSM   C14F10879   6.410   2.065   8.877 -0.1174  0.0628  0.2239
  106OSM   H14F10880   6.437   2.173   8.879 -0.0448  0.1440 -2.0582
  106OSM   H14G10881   6.306   2.066   8.916 -0.0614  1.5317  0.3994
  106OSM   C15F10882   6.418   2.028   8.730 -0.2621  0.3563  0.6462
  106OSM   H15F10883   6.370   1.930   8.709  0.8386 -0.0442 -0.1002
  106OSM   H15G10884   6.523   2.026   8.695  0.4056  2.3208  2.3298
  106OSM   C16F10885   6.338   2.121   8.632 -0.2804  0.1839  0.1066
  106OSM   H16F10886   6.365   2.069   8.537  0.6150 -0.7854  0.8610
  106OSM   H16G10887   6.374   2.226   8.634 -0.9170  0.4751 -1.8426
  106OSM   C17F10888   6.184   2.110   8.649 -0.3920 -0.3087 -0.2194
  106OSM   H17F10889   6.125   2.165   8.571 -1.2129  0.1352  0.6950
  106OSM   H17G10890   6.152   2.165   8.740  0.0735  0.4566 -0.5019
  106OSM   C18F10891   6.116   1.980   8.658  0.0982  0.4206  0.0279
  106OSM   H18F10892   6.012   1.995   8.621  0.8894  4.6468 -1.0483
  106OSM   H18G10893   6.118   1.936   8.759  1.6167  0.7011  0.1441
  106OSM   H18H10894   6.164   1.906   8.590  1.2992  0.8276  0.4162
  107OSM      N10895   4.404   6.113  10.509  0.0035  0.3600 -0.4460
  107OSM    C1510896   4.340   6.011  10.415 -0.1198  0.2705 -1.0102
  107OSM   H15A10897   4.344   6.044  10.313 -0.2382  1.6272 -0.5947
  107OSM   H15B10898   4.242   5.997  10.458  1.6649  0.8842  3.9653
  107OSM   H15C10899   4.389   5.914  10.426  1.0359  1.1095  3.1185
  107OSM    C1410900   4.348   6.252  10.472 -0.1741  0.1516 -0.4452
  107OSM   H14A10901   4.340   6.331  10.545 -0.3784 -0.1233 -0.1687
  107OSM   H14B10902   4.245   6.238  10.444 -0.2511 -1.1688  0.3721
  107OSM   H14C10903   4.410   6.292  10.393 -0.6348  2.4368  0.2961
  107OSM    C1310904   4.354   6.082  10.642  0.3043  0.3758 -0.8625
  107OSM   H13A10905   4.392   5.982  10.661 -0.7294  0.1535  0.1364
  107OSM   H13B10906   4.247   6.081  10.652  0.1193  0.2672 -2.5684
  107OSM   H13C10907   4.392   6.155  10.712 -2.0788 -0.1613  1.1462
  107OSM    C1210908   4.550   6.098  10.519 -0.2887  0.1634 -0.0107
  107OSM   H12A10909   4.573   6.175  10.591 -1.3679 -1.2450  1.9126
  107OSM   H12B10910   4.594   6.122  10.422 -1.0000 -1.4153 -0.7577
  107OSM    C1110911   4.627   5.967  10.555 -0.5495  0.0044 -0.2614
  107OSM   H11A10912   4.723   6.002  10.598 -0.5586  0.6629 -0.7722
  107OSM   H11B10913   4.649   5.921  10.456  0.9712  1.6435 -0.7367
  107OSM      P10914   4.569   5.728  10.656  0.0828  0.1323  0.0662
  107OSM    O1310915   4.699   5.675  10.715 -0.2711  0.3232 -0.0754
  107OSM    O1410916   4.443   5.683  10.717  0.5741 -0.9247 -0.1039
  107OSM    O1110917   4.565   5.689  10.501  0.6956 -0.6858 -0.3221
  107OSM    O1210918   4.569   5.885  10.657  0.7961  0.6738  0.2637
  107OSM    C1S10919   4.625   5.565  10.468 -0.0105 -0.3391 -0.0572
  107OSM    H1S10920   4.604   5.490  10.548 -1.4821 -0.3752 -0.4524
  107OSM    H1T10921   4.732   5.570  10.438 -0.0951 -3.0721 -1.0600
  107OSM     NF10922   4.555   5.359  10.329  0.3276 -0.1977 -0.5733
  107OSM    HNF10923   4.592   5.315  10.248 -1.8661 -0.4478 -1.5263
  107OSM    C2S10924   4.559   5.508  10.339 -0.1647  0.0218 -0.4975
  107OSM    H2S10925   4.454   5.545  10.341 -0.4332 -0.4876  3.2796
  107OSM    C3S10926   4.628   5.569  10.210  0.1325 -0.2116 -0.0811
  107OSM    H3S10927   4.735   5.539  10.210  0.3113  0.4171  0.7153
  107OSM     O310928   4.636   5.712  10.213 -0.2681  0.4506 -0.1361
  107OSM    HO310929   4.604   5.739  10.300  2.1229 -0.2114  1.0462
  107OSM    C4S10930   4.555   5.516  10.089  1.0779 -0.2978  0.2892
  107OSM    H4S10931   4.619   5.455  10.023  1.8189 -0.9957  1.6114
  107OSM    C5S10932   4.426   5.541  10.054  0.4268 -0.7162  0.1802
  107OSM    H5S10933   4.364   5.591  10.130  1.3200  0.5120  0.1392
  107OSM    C6S10934   4.350   5.476   9.943  0.3398  0.2434  0.3328
  107OSM    H6S10935   4.301   5.547   9.873 -0.6927 -0.2258  0.5671
  107OSM    H6T10936   4.272   5.412   9.988  0.8959 -0.9927 -0.4038
  107OSM    C7S10937   4.427   5.378   9.859  0.0027 -0.0640  0.1964
  107OSM    H7S10938   4.474   5.299   9.923 -2.0273  0.5358  2.5727
  107OSM    H7T10939   4.510   5.421   9.798  2.0611 -2.6075  0.9906
  107OSM    C8S10940   4.321   5.326   9.754 -0.3817 -0.9776 -1.0385
  107OSM    H8S10941   4.263   5.414   9.718  2.1036  0.6477 -1.3043
  107OSM    H8T10942   4.263   5.248   9.809  0.5854 -2.3197 -1.8516
  107OSM    C9S10943   4.380   5.257   9.619  0.4701 -0.3660 -0.5959
  107OSM    H9S10944   4.368   5.147   9.632  0.7821 -0.5729 -1.9432
  107OSM    H9T10945   4.485   5.291   9.608  0.6097  0.1550  1.7732
  107OSM   C10S10946   4.302   5.300   9.495  0.9843  0.3104 -0.2941
  107OSM   H10S10947   4.306   5.410   9.480 -0.8610  0.1563 -2.4612
  107OSM   H10T10948   4.196   5.268   9.503  0.7414  1.4929  1.6957
  107OSM   C11S10949   4.356   5.219   9.378 -0.4307 -0.4868 -0.1687
  107OSM   H11S10950   4.344   5.110   9.400  0.0252 -0.2960  1.0920
  107OSM   H11T10951   4.464   5.243   9.379 -0.7146  0.9007  1.8020
  107OSM   C12S10952   4.290   5.262   9.243  0.3719  0.1293 -0.5497
  107OSM   H12S10953   4.303   5.372   9.235  1.5898  0.0970  0.5236
  107OSM   H12T10954   4.184   5.230   9.253  0.1501 -0.5574 -3.9654
  107OSM   C13S10955   4.357   5.185   9.128  0.1787 -0.4823  0.0099
  107OSM   H13S10956   4.344   5.075   9.131 -1.4059 -0.3059  1.2430
  107OSM   H13T10957   4.463   5.213   9.116 -0.3979  1.4354 -1.0379
  107OSM   C14S10958   4.286   5.233   9.003  0.6947  0.3411 -0.9297
  107OSM   H14S10959   4.323   5.337   8.989 -1.4889  1.5256  1.3354
  107OSM   H14T10960   4.177   5.247   9.020  0.5066 -0.3730 -1.5096
  107OSM   C15S10961   4.294   5.147   8.879 -0.0709  0.1278  0.1933
  107OSM   H15S10962   4.246   5.048   8.896  0.6349 -0.6367 -1.8881
  107OSM   H15T10963   4.403   5.149   8.858 -0.5372  2.5812 -2.6516
  107OSM   C16S10964   4.207   5.205   8.758 -0.1689 -0.0086  0.2353
  107OSM   H16S10965   4.245   5.308   8.743  1.6845 -0.7524 -0.4697
  107OSM   H16T10966   4.105   5.206   8.802  1.1815  0.7424  3.7081
  107OSM   C17S10967   4.216   5.111   8.640 -0.7179  0.5660 -0.8136
  107OSM   H17S10968   4.169   5.013   8.665  1.5751 -0.9139 -1.9981
  107OSM   H17T10969   4.323   5.084   8.629 -0.3641  1.3420  0.4985
  107OSM   C18S10970   4.163   5.158   8.501 -0.7833 -0.0455  0.0848
  107OSM   H18S10971   4.207   5.256   8.475 -0.2202 -0.8862 -2.3976
  107OSM   H18T10972   4.052   5.168   8.502 -0.8490 -0.5963 -0.9250
  107OSM   H18U10973   4.188   5.087   8.420  0.8348 -1.2290  1.5397
  107OSM    C1F10974   4.481   5.285  10.412 -0.2503  0.3710 -0.0437
  107OSM     OF10975   4.411   5.332  10.499  0.1214 -0.7004  0.3744
  107OSM    C2F10976   4.505   5.139  10.395 -0.2076  0.3177  0.7045
  107OSM    H2F10977   4.561   5.100  10.483  0.4741 -1.2158 -0.3844
  107OSM    H2G10978   4.572   5.112  10.311  0.9317  0.0945  1.6571
  107OSM    C3F10979   4.368   5.061  10.401 -0.4169 -0.4166  0.2765
  107OSM    H3F10980   4.310   5.091  10.491 -0.7886 -3.3943  1.1254
  107OSM    H3G10981   4.400   4.956  10.413  0.1378 -0.1657  1.0826
  107OSM    C4F10982   4.278   5.070  10.277 -0.5879  0.4595 -0.0020
  107OSM    H4F10983   4.278   5.170  10.228  0.3732 -0.5390 -2.2102
  107OSM    H4G10984   4.176   5.036  10.303  0.3034 -0.9311  1.9239
  107OSM    C5F10985   4.310   4.972  10.161 -0.0399  0.3087 -0.3783
  107OSM    H5F10986   4.282   4.868  10.188 -0.7386  0.6977  0.4559
  107OSM    H5G10987   4.418   4.983  10.140  0.3348  0.9677  1.6584
  107OSM    C6F10988   4.229   5.000  10.038 -0.1056  0.3911 -0.3616
  107OSM    H6F10989   4.252   4.913   9.973 -0.5252  0.0828 -0.1060
  107OSM    H6G10990   4.259   5.095   9.988 -1.3637  1.7329  1.3142
  107OSM    C7F10991   4.074   4.991  10.064 -0.3208  0.5999 -0.3749
  107OSM    H7F10992   4.040   5.084  10.115  0.8697  0.5441  0.5702
  107OSM    H7G10993   4.065   4.900  10.126  2.1410  0.2711 -0.3929
  107OSM    C8F10994   3.991   4.974   9.935  0.6131 -0.1524  0.1090
  107OSM    H8F10995   3.884   4.961   9.962  0.6768  0.9527  1.0066
  107OSM    H8G10996   4.014   4.878   9.885  0.6248 -0.9536  1.5875
  107OSM    C9F10997   4.001   5.093   9.841 -0.3397 -0.2812 -0.0966
  107OSM    H9F10998   3.975   5.188   9.890  0.0659 -0.9071  1.4042
  107OSM   C10F10999   4.044   5.088   9.713  0.6602  0.3715 -0.2077
  107OSM   H10F11000   4.046   5.167   9.636  0.0598  0.5239 -0.0743
  107OSM   C11F11001   4.085   4.964   9.641  0.9229 -0.1300  0.0415
  107OSM   H11F11002   4.041   4.873   9.687  0.4006  1.7821  3.7379
  107OSM   H11G11003   4.193   4.954   9.664  0.5394 -2.2042  1.2167
  107OSM   C12F11004   4.058   4.975   9.490  0.0948  0.4273 -0.3276
  107OSM   H12F11005   4.110   5.060   9.441  2.8503 -1.3713 -0.7340
  107OSM   H12G11006   3.949   4.994   9.477  0.2732  0.9128 -1.1487
  107OSM   C13F11007   4.108   4.853   9.409 -0.7358 -0.1083  0.1789
  107OSM   H13F11008   4.047   4.766   9.441  1.6623 -1.1367  2.3125
  107OSM   H13G11009   4.212   4.836   9.443 -0.8977 -1.9803 -0.1966
  107OSM   C14F11010   4.110   4.886   9.262  0.0818 -0.3784  0.0964
  107OSM   H14F11011   4.180   4.967   9.231 -0.5913  0.0914 -0.2006
  107OSM   H14G11012   4.011   4.917   9.222  1.3054  3.2935 -0.5308
  107OSM   C15F11013   4.147   4.755   9.179 -0.4212  0.7072 -1.3966
  107OSM   H15F11014   4.076   4.675   9.209  1.0408 -0.0783  0.1073
  107OSM   H15G11015   4.250   4.719   9.199 -1.8140 -1.7353  2.5576
  107OSM   C16F11016   4.126   4.781   9.030 -0.1372 -0.1296  0.3678
  107OSM   H16F11017   4.190   4.870   9.009  4.4526 -3.1250  0.3342
  107OSM   H16G11018   4.022   4.803   8.997  0.6362  1.5962 -1.0872
  107OSM   C17F11019   4.195   4.678   8.932  0.4013 -0.0143 -0.6665
  107OSM   H17F11020   4.161   4.578   8.967 -1.0530  0.4786 -0.5923
  107OSM   H17G11021   4.305   4.683   8.944  0.3252  2.3490 -0.4917
  107OSM   C18F11022   4.164   4.699   8.785 -0.3373 -0.5498  0.2016
  107OSM   H18F11023   4.223   4.635   8.716 -2.5750 -1.7980 -0.6822
  107OSM   H18G11024   4.190   4.801   8.751  2.3164 -0.6588  1.6766
  107OSM   H18H11025   4.062   4.676   8.748  0.3342  1.0458 -3.0988
  108OSM      N11026   5.166   0.229  11.019 -0.1620  0.2371 -0.3089
  108OSM    C1511027   5.288   0.232  11.099 -0.5055  0.5989  0.7006
  108OSM   H15A11028   5.318   0.327  11.140 -0.7731  0.5090  1.1052
  108OSM   H15B11029   5.377   0.199  11.046 -1.4022  1.1611 -1.2811
  108OSM   H15C11030   5.275   0.147  11.165 -1.9219 -2.2520 -2.8900
  108OSM    C1411031   5.144   0.089  10.967  0.3273  1.2160 -0.2752
  108OSM   H14A11032   5.170   0.012  11.038 -0.8197  0.1975 -0.9119
  108OSM   H14B11033   5.210   0.064  10.885  0.3043 -1.9170  0.5147
  108OSM   H14C11034   5.044   0.066  10.931 -0.6379  2.1792  1.6658
  108OSM    C1311035   5.052   0.257  11.123  0.7108 -0.0590  0.0890
  108OSM   H13A11036   5.053   0.359  11.160 -2.4583  0.4506 -0.9268
  108OSM   H13B11037   5.066   0.200  11.214 -0.9501  0.3211  0.6234
  108OSM   H13C11038   4.951   0.231  11.095  0.6145 -0.1846  0.5448
  108OSM    C1211039   5.177   0.316  10.899 -0.4871 -0.0383  0.5907
  108OSM   H12A11040   5.236   0.398  10.937  0.4126 -0.9380  1.2067
  108OSM   H12B11041   5.078   0.353  10.876 -0.1684  0.7281  0.4569
  108OSM    C1111042   5.256   0.266  10.773  0.5044  0.6986  0.5567
  108OSM   H11A11043   5.246   0.337  10.688 -2.1710  0.4343  0.5564
  108OSM   H11B11044   5.208   0.174  10.732  2.3127 -0.0087 -0.0811
  108OSM      P11045   5.504   0.312  10.723  0.1615  0.2017  0.3573
  108OSM    O1311046   5.485   0.455  10.736  0.4723  0.3880 -0.2550
  108OSM    O1411047   5.638   0.273  10.762  0.2582 -0.2833 -0.5054
  108OSM    O1111048   5.478   0.274  10.572  0.3340 -0.5206 -0.0251
  108OSM    O1211049   5.393   0.243  10.812 -0.0409 -0.0772 -0.7159
  108OSM    C1S11050   5.520   0.133  10.526  0.4335 -0.0393 -0.9803
  108OSM    H1S11051   5.439   0.057  10.536 -1.3312  1.5556 -2.3295
  108OSM    H1T11052   5.610   0.106  10.584  1.3232  1.3530 -1.6611
  108OSM     NF11053   5.546   0.021  10.302  0.1625  0.0988 -0.0751
  108OSM    HNF11054   5.625  -0.038  10.288  0.2281  0.3019 -0.5930
  108OSM    C2S11055   5.570   0.141  10.378 -0.2440  0.0058 -0.5933
  108OSM    H2S11056   5.508   0.218  10.326 -0.0649 -0.8337 -2.1142
  108OSM    C3S11057   5.713   0.195  10.378  0.1276  0.1639 -0.2315
  108OSM    H3S11058   5.778   0.108  10.403  0.8689  1.1141  1.3623
  108OSM     O311059   5.742   0.294  10.478  0.7735 -0.3485  0.0849
  108OSM    HO311060   5.666   0.319  10.532  1.1622  2.8335 -0.6169
  108OSM    C4S11061   5.761   0.229  10.237  0.1871  0.2276  0.2771
  108OSM    H4S11062   5.803   0.142  10.184 -0.3559  0.9465 -1.4091
  108OSM    C5S11063   5.754   0.341  10.167  0.0203 -0.9360  0.3320
  108OSM    H5S11064   5.715   0.432  10.215 -2.3970  0.1466 -3.2569
  108OSM    C6S11065   5.809   0.358  10.028  0.1959  0.0262 -0.3161
  108OSM    H6S11066   5.903   0.416  10.034 -0.4173  0.9095  1.5039
  108OSM    H6T11067   5.736   0.426   9.980  0.2577  0.9784  0.8959
  108OSM    C7S11068   5.805   0.227   9.938 -1.1293 -0.2344 -0.2096
  108OSM    H7S11069   5.872   0.151   9.984 -2.8272 -0.5049  1.9806
  108OSM    H7T11070   5.847   0.259   9.840 -0.3257 -1.2598 -0.2248
  108OSM    C8S11071   5.667   0.155   9.916 -0.3929 -0.3876  0.5925
  108OSM    H8S11072   5.579   0.219   9.893  0.3496  0.0112 -1.3113
  108OSM    H8T11073   5.645   0.103  10.012 -0.5252 -2.9051 -0.7379
  108OSM    C9S11074   5.673   0.040   9.814 -0.3878  0.1107  0.0425
  108OSM    H9S11075   5.595  -0.039   9.814  0.5305 -0.9549 -3.2809
  108OSM    H9T11076   5.772  -0.010   9.824  0.2135  1.5889  2.0845
  108OSM   C10S11077   5.664   0.100   9.674  0.1760  0.7855  0.7138
  108OSM   H10S11078   5.733   0.184   9.650 -0.8561  2.0313  1.9092
  108OSM   H10T11079   5.565   0.150   9.676  0.4939  1.4519  0.2520
  108OSM   C11S11080   5.673  -0.005   9.561  0.4206  0.3457  0.3167
  108OSM   H11S11081   5.581  -0.068   9.569  1.3108 -1.0886 -0.3096
  108OSM   H11T11082   5.763  -0.067   9.580  1.6619  2.2767  1.0135
  108OSM   C12S11083   5.701   0.069   9.424  0.2414 -0.0873 -0.6648
  108OSM   H12S11084   5.782   0.144   9.436  0.6842 -0.1476 -2.9441
  108OSM   H12T11085   5.617   0.136   9.395  2.0222  2.1496 -0.8717
  108OSM   C13S11086   5.727  -0.033   9.312 -0.5924  0.4296  0.5999
  108OSM   H13S11087   5.641  -0.097   9.281 -1.3535  1.5565  0.3082
  108OSM   H13T11088   5.814  -0.093   9.344  1.3827  2.2711 -0.9751
  108OSM   C14S11089   5.758   0.047   9.176  0.2080 -0.1490  0.3076
  108OSM   H14S11090   5.664   0.104   9.157 -0.1814  0.2063  2.9121
  108OSM   H14T11091   5.779  -0.026   9.095  0.8350 -0.4745  0.7589
  108OSM   C15S11092   5.872   0.151   9.192 -0.1170  0.5490  0.5000
  108OSM   H15S11093   5.949   0.098   9.252  1.1995 -0.1761 -1.7106
  108OSM   H15T11094   5.837   0.243   9.244 -1.1719 -0.4041  1.5460
  108OSM   C16S11095   5.931   0.195   9.051  0.6959  0.2828 -0.1315
  108OSM   H16S11096   5.992   0.110   9.015 -3.3734 -4.3685  2.6326
  108OSM   H16T11097   5.997   0.283   9.069 -1.3725  1.9734 -0.3654
  108OSM   C17S11098   5.821   0.231   8.955  0.1294 -0.0325 -0.5628
  108OSM   H17S11099   5.748   0.293   9.011 -0.8499 -0.3899 -1.3990
  108OSM   H17T11100   5.780   0.130   8.932  0.4293 -0.5860  1.2338
  108OSM   C18S11101   5.857   0.303   8.823  0.5936  0.4395  0.3166
  108OSM   H18S11102   5.880   0.407   8.856  0.0759  0.2190  1.4497
  108OSM   H18T11103   5.765   0.297   8.760  0.6033 -1.6871  0.4226
  108OSM   H18U11104   5.942   0.251   8.776  1.0055  0.8544  0.5944
  108OSM    C1F11105   5.427  -0.024  10.272  0.5524  0.7572  0.3959
  108OSM     OF11106   5.325   0.033  10.323  0.2716 -0.3729  0.5134
  108OSM    C2F11107   5.419  -0.161  10.199 -0.7579 -0.1420  0.2132
  108OSM    H2F11108   5.332  -0.222  10.232 -1.7541  1.1632  0.0776
  108OSM    H2G11109   5.513  -0.218  10.216 -0.0991  1.0788  0.7295
  108OSM    C3F11110   5.407  -0.134  10.048 -0.0537  0.7342 -0.3379
  108OSM    H3F11111   5.398  -0.230   9.994 -2.8743  2.0280 -2.4521
  108OSM    H3G11112   5.486  -0.070  10.003  0.7621 -0.6529 -0.9184
  108OSM    C4F11113   5.268  -0.080  10.008 -0.3338 -0.7017 -0.4100
  108OSM    H4F11114   5.254   0.021  10.051 -2.9257 -0.7135 -1.1160
  108OSM    H4G11115   5.184  -0.146  10.039 -2.4476  1.4870 -1.1640
  108OSM    C5F11116   5.273  -0.073   9.858  0.5416 -0.6134  0.7911
  108OSM    H5F11117   5.249  -0.176   9.823 -0.2585 -0.2655  0.2951
  108OSM    H5G11118   5.375  -0.052   9.819 -0.2739  1.8986 -0.2005
  108OSM    C6F11119   5.158   0.010   9.800  0.4528 -1.0382  0.5111
  108OSM    H6F11120   5.202   0.104   9.761 -0.0824 -1.3420 -0.8479
  108OSM    H6G11121   5.094   0.034   9.888  0.9965 -0.7631  0.8423
  108OSM    C7F11122   5.093  -0.065   9.682 -0.6692 -0.0669 -0.5818
  108OSM    H7F11123   5.029   0.013   9.636 -0.4910 -1.1034 -2.7266
  108OSM    H7G11124   5.037  -0.151   9.725 -0.1797  1.2407  2.9787
  108OSM    C8F11125   5.177  -0.111   9.562 -0.5600  0.2365 -0.1513
  108OSM    H8F11126   5.099  -0.143   9.489 -1.1528 -0.6077  0.8224
  108OSM    H8G11127   5.226  -0.203   9.601 -0.2145  0.4622 -0.0493
  108OSM    C9F11128   5.287  -0.023   9.503 -0.6462 -1.0260  0.1337
  108OSM    H9F11129   5.342   0.039   9.575  0.8566 -1.0317 -0.9532
  108OSM   C10F11130   5.335  -0.031   9.378 -0.1851  0.8806 -0.4216
  108OSM   H10F11131   5.408   0.045   9.347  0.7197 -0.2956 -1.2612
  108OSM   C11F11132   5.289  -0.129   9.273  0.2223  0.4323 -0.2241
  108OSM   H11F11133   5.189  -0.177   9.281  0.5930 -1.1865 -3.6235
  108OSM   H11G11134   5.358  -0.216   9.273  2.5460  2.1073  2.0903
  108OSM   C12F11135   5.300  -0.069   9.130 -0.9205  0.4206 -0.7682
  108OSM   H12F11136   5.403  -0.030   9.118 -0.6546 -0.4683 -1.5117
  108OSM   H12G11137   5.228   0.015   9.121  0.0725  1.6053  1.4756
  108OSM   C13F11138   5.271  -0.168   9.011 -0.2831  0.1986  0.4076
  108OSM   H13F11139   5.166  -0.201   9.023  0.5251 -2.6760  0.3156
  108OSM   H13G11140   5.335  -0.259   9.012 -0.6573 -0.0831  1.6452
  108OSM   C14F11141   5.288  -0.100   8.872  0.2683 -0.8929  1.0683
  108OSM   H14F11142   5.207  -0.024   8.875 -0.2551 -1.3911  0.0886
  108OSM   H14G11143   5.259  -0.178   8.798 -0.7539  0.3160  0.1406
  108OSM   C15F11144   5.423  -0.038   8.837  0.0604  0.5392  0.4101
  108OSM   H15F11145   5.498  -0.103   8.887 -2.4430 -1.0021  2.4109
  108OSM   H15G11146   5.430   0.055   8.896 -0.6770 -1.1982  3.4631
  108OSM   C16F11147   5.441  -0.013   8.691 -0.3458 -0.6278  0.4578
  108OSM   H16F11148   5.389   0.081   8.664  0.4546  0.0577  1.2342
  108OSM   H16G11149   5.412  -0.094   8.621 -0.1607 -1.2825  1.1224
  108OSM   C17F11150   5.594   0.020   8.681 -0.1581 -0.1436  0.1216
  108OSM   H17F11151   5.644  -0.076   8.705  1.0595  0.2382 -0.8022
  108OSM   H17G11152   5.632   0.089   8.760  0.6412 -0.8084  0.3333
  108OSM   C18F11153   5.650   0.074   8.544  0.7544 -0.4520  0.0612
  108OSM   H18F11154   5.574   0.133   8.490 -0.6075 -1.1798  1.1297
  108OSM   H18G11155   5.679  -0.001   8.467 -2.8450  0.1210 -2.0433
  108OSM   H18H11156   5.735   0.138   8.576 -0.7392  1.3324  0.5849
  109OSM      N11157   6.255   4.933  10.530 -0.4530  0.1813 -0.2967
  109OSM    C1511158   6.234   4.813  10.627  0.1709  0.2697  0.0278
  109OSM   H15A11159   6.139   4.819  10.678 -0.5839 -0.1517 -1.2707
  109OSM   H15B11160   6.305   4.837  10.705 -0.0481  1.8864 -0.2305
  109OSM   H15C11161   6.247   4.717  10.580 -1.0911  0.8549 -1.6370
  109OSM    C1411162   6.152   4.918  10.416 -0.6866  0.1179 -0.1525
  109OSM   H14A11163   6.174   4.833  10.353  4.3246  1.2960 -0.4204
  109OSM   H14B11164   6.155   5.011  10.361 -1.6973  0.4983  0.4065
  109OSM   H14C11165   6.058   4.916  10.468 -0.0060  1.5211  1.2069
  109OSM    C1311166   6.245   5.061  10.609  0.1912 -0.4953 -0.1155
  109OSM   H13A11167   6.224   5.142  10.540  0.7789  0.5577  0.8962
  109OSM   H13B11168   6.333   5.075  10.670  0.4029 -5.2592  1.0371
  109OSM   H13C11169   6.163   5.057  10.679  0.2953 -0.6716 -0.0025
  109OSM    C1211170   6.397   4.926  10.471  0.5573  0.7108  0.3326
  109OSM   H12A11171   6.397   5.008  10.401 -1.3427  0.0287 -0.5540
  109OSM   H12B11172   6.407   4.837  10.411 -0.3009 -1.2291  2.8803
  109OSM    C1111173   6.519   4.925  10.569 -0.0424 -0.2511  0.1255
  109OSM   H11A11174   6.530   5.015  10.634  1.4704 -1.3184  1.4071
  109OSM   H11B11175   6.609   4.910  10.505  0.7923 -0.6564  1.3668
  109OSM      P11176   6.598   4.703  10.689 -0.3461  0.1372  0.0468
  109OSM    O1311177   6.735   4.741  10.740 -0.1391  0.2917  0.5816
  109OSM    O1411178   6.537   4.594  10.769  0.1312 -0.4103  0.5406
  109OSM    O1111179   6.622   4.655  10.542  0.2079  0.1535  0.2748
  109OSM    O1211180   6.504   4.825  10.670 -0.0024 -0.0659 -0.5336
  109OSM    C1S11181   6.524   4.560  10.501 -0.0923  0.1873  0.3260
  109OSM    H1S11182   6.419   4.597  10.512 -1.1719 -2.5928  0.2107
  109OSM    H1T11183   6.528   4.458  10.544  0.3310  0.4764  0.9823
  109OSM     NF11184   6.427   4.487  10.289  0.2469  0.1943  0.3358
  109OSM    HNF11185   6.420   4.387  10.287 -0.2372  0.1944 -3.1120
  109OSM    C2S11186   6.538   4.551  10.352 -0.3072  0.5332 -0.0745
  109OSM    H2S11187   6.551   4.653  10.310 -1.1284  1.5349  1.9616
  109OSM    C3S11188   6.677   4.484  10.307  0.3472  0.2584 -0.2937
  109OSM    H3S11189   6.682   4.384  10.354 -0.9267  1.2815  2.2625
  109OSM     O311190   6.778   4.563  10.362 -0.8876 -0.1939  0.3611
  109OSM    HO311191   6.735   4.609  10.434 -1.3872  3.8861 -2.2057
  109OSM    C4S11192   6.706   4.482  10.164  0.3918  0.1380 -0.2243
  109OSM    H4S11193   6.670   4.571  10.111 -3.7779 -0.4522  1.2563
  109OSM    C5S11194   6.749   4.368  10.095  0.2894  0.3363  0.8036
  109OSM    H5S11195   6.770   4.277  10.153  1.0427 -0.3060 -0.4459
  109OSM    C6S11196   6.776   4.356   9.953 -0.3645  0.3898  0.4464
  109OSM    H6S11197   6.724   4.265   9.915  0.2360  0.5114 -0.7307
  109OSM    H6T11198   6.887   4.347   9.953 -0.3805  0.0370 -0.4661
  109OSM    C7S11199   6.741   4.478   9.864 -0.0115  0.3410  0.8403
  109OSM    H7S11200   6.766   4.579   9.905 -1.7664  1.1674 -0.0410
  109OSM    H7T11201   6.631   4.482   9.852 -0.0868  0.8149  1.5690
  109OSM    C8S11202   6.805   4.464   9.727 -0.4390 -0.2478 -1.3937
  109OSM    H8S11203   6.789   4.360   9.689  0.0777 -0.5026 -0.9371
  109OSM    H8T11204   6.914   4.457   9.746 -0.6811 -2.1562 -0.4279
  109OSM    C9S11205   6.764   4.568   9.619  0.5004 -0.5619  0.0887
  109OSM    H9S11206   6.813   4.665   9.644  0.3235 -0.8146  1.4642
  109OSM    H9T11207   6.654   4.575   9.610  0.6060  1.6630 -0.0125
  109OSM   C10S11208   6.833   4.536   9.486 -0.8603 -0.4583  0.1976
  109OSM   H10S11209   6.797   4.435   9.459 -0.3620 -0.2147 -1.5744
  109OSM   H10T11210   6.943   4.532   9.500 -0.9478 -0.9325  0.7248
  109OSM   C11S11211   6.804   4.623   9.364  0.0139  0.0415  0.5609
  109OSM   H11S11212   6.830   4.730   9.379 -0.1673  0.1693 -0.0108
  109OSM   H11T11213   6.695   4.617   9.343 -0.3395  1.4485  1.8201
  109OSM   C12S11214   6.887   4.567   9.242  0.5145  0.2683 -0.6039
  109OSM   H12S11215   6.878   4.456   9.237 -1.1712  0.4391 -2.5397
  109OSM   H12T11216   6.995   4.585   9.261  0.7594 -0.6814 -1.0704
  109OSM   C13S11217   6.847   4.617   9.108 -0.0123 -0.4114  0.2295
  109OSM   H13S11218   6.878   4.721   9.084  0.3235 -0.1782  1.5841
  109OSM   H13T11219   6.738   4.620   9.088  0.1582 -1.6999 -1.0311
  109OSM   C14S11220   6.911   4.531   9.000 -0.0442 -0.4085 -0.4757
  109OSM   H14S11221   6.865   4.431   9.010 -0.9435 -0.0030 -0.4520
  109OSM   H14T11222   7.022   4.528   9.011 -0.1449 -0.2099  0.7487
  109OSM   C15S11223   6.868   4.580   8.856 -0.3058 -0.2515  0.2486
  109OSM   H15S11224   6.907   4.682   8.838 -0.6025  0.2109  2.0157
  109OSM   H15T11225   6.758   4.573   8.845 -0.2791 -1.9278  0.7334
  109OSM   C16S11226   6.931   4.488   8.750  0.1174 -0.8437 -0.1320
  109OSM   H16S11227   6.883   4.389   8.770  3.0254 -2.7426 -1.7707
  109OSM   H16T11228   7.041   4.477   8.764 -0.0728 -2.1339  0.5000
  109OSM   C17S11229   6.897   4.541   8.604  0.4294  1.3326  0.4031
  109OSM   H17S11230   6.925   4.646   8.581 -0.5993  1.1199 -2.1973
  109OSM   H17T11231   6.790   4.518   8.584  0.2163  3.0040 -0.5709
  109OSM   C18S11232   6.970   4.464   8.501 -0.5633 -0.6490  0.3035
  109OSM   H18S11233   6.930   4.493   8.402  1.3981 -0.8343 -0.5964
  109OSM   H18T11234   6.971   4.355   8.519  0.3377 -0.9865 -1.5919
  109OSM   H18U11235   7.075   4.501   8.493 -1.1834  0.7841 -2.1536
  109OSM    C1F11236   6.328   4.563  10.259  0.1244  0.0961  0.1396
  109OSM     OF11237   6.327   4.683  10.283  0.2213  0.7259 -0.1011
  109OSM    C2F11238   6.214   4.502  10.194  0.2232  0.2938  0.1093
  109OSM    H2F11239   6.127   4.481  10.259 -0.7703 -1.0695 -1.5778
  109OSM    H2G11240   6.240   4.404  10.149  1.7390  0.7403 -0.0479
  109OSM    C3F11241   6.173   4.589  10.069  0.7646  0.0112 -0.7494
  109OSM    H3F11242   6.158   4.691  10.111  1.9707 -0.3460  0.6360
  109OSM    H3G11243   6.072   4.553  10.039  0.9110 -2.2133  1.0841
  109OSM    C4F11244   6.249   4.587   9.944  0.0105 -0.2480  0.6151
  109OSM    H4F11245   6.237   4.490   9.890 -0.2366 -0.1091  0.4185
  109OSM    H4G11246   6.355   4.609   9.968 -0.2246  0.3804  1.0760
  109OSM    C5F11247   6.227   4.705   9.847 -0.2893 -0.1166 -0.4336
  109OSM    H5F11248   6.261   4.799   9.896 -0.1434  0.0762 -0.8920
  109OSM    H5G11249   6.119   4.715   9.823 -0.5120  0.9432  0.8879
  109OSM    C6F11250   6.295   4.686   9.708  0.4848  0.2081  0.3754
  109OSM    H6F11251   6.258   4.589   9.667 -0.4073  0.1761  1.2057
  109OSM    H6G11252   6.405   4.677   9.720  0.3297 -1.6314  0.7968
  109OSM    C7F11253   6.265   4.803   9.616  0.0944 -0.0362 -0.2578
  109OSM    H7F11254   6.321   4.891   9.654 -1.5598  0.9273  0.0622
  109OSM    H7G11255   6.159   4.837   9.619  0.0673 -0.1381 -0.0441
  109OSM    C8F11256   6.300   4.766   9.472 -0.5497 -0.1432 -0.4475
  109OSM    H8F11257   6.394   4.710   9.456 -1.0096 -0.6469 -1.4746
  109OSM    H8G11258   6.317   4.861   9.416 -1.1144 -0.4059 -1.0812
  109OSM    C9F11259   6.193   4.693   9.404 -0.0514 -1.2254 -0.1589
  109OSM    H9F11260   6.158   4.603   9.456  0.1855 -1.0039  0.3837
  109OSM   C10F11261   6.159   4.714   9.278  0.1270 -0.7596  0.1459
  109OSM   H10F11262   6.081   4.646   9.241 -0.6142  0.1528 -0.0022
  109OSM   C11F11263   6.197   4.826   9.184  0.1050 -0.1987  0.2432
  109OSM   H11F11264   6.236   4.913   9.240  0.0295 -0.0039 -0.0085
  109OSM   H11G11265   6.116   4.852   9.113  0.2319 -1.9323 -0.5827
  109OSM   C12F11266   6.311   4.788   9.085 -0.4442  0.1419  0.2009
  109OSM   H12F11267   6.404   4.766   9.142  0.8877  0.0038 -1.9378
  109OSM   H12G11268   6.338   4.875   9.022 -1.3421  0.2667 -0.0376
  109OSM   C13F11269   6.284   4.668   8.996 -0.8185  0.3745  0.9689
  109OSM   H13F11270   6.196   4.691   8.931  0.2667  1.7459 -0.0553
  109OSM   H13G11271   6.241   4.587   9.059 -2.3117 -0.6012 -1.1894
  109OSM   C14F11272   6.405   4.617   8.920 -0.3827 -0.1654  0.4904
  109OSM   H14F11273   6.493   4.596   8.983 -0.1131  1.5182  0.7083
  109OSM   H14G11274   6.444   4.697   8.854 -0.6133  0.9973  1.7136
  109OSM   C15F11275   6.371   4.495   8.835  0.8907  0.5629 -0.4787
  109OSM   H15F11276   6.303   4.522   8.751  0.2875 -1.2803 -0.6286
  109OSM   H15G11277   6.320   4.418   8.896 -1.0075  1.9740 -0.1718
  109OSM   C16F11278   6.492   4.446   8.758  0.3792 -0.0916 -0.1853
  109OSM   H16F11279   6.578   4.446   8.828  0.9514  2.7048 -0.7746
  109OSM   H16G11280   6.521   4.526   8.687  0.7338  1.0429  1.2078
  109OSM   C17F11281   6.459   4.323   8.683  0.1983  0.3933 -0.0375
  109OSM   H17F11282   6.384   4.343   8.602  2.5012 -0.8146 -2.6374
  109OSM   H17G11283   6.413   4.248   8.751  2.0232 -0.9719 -0.2487
  109OSM   C18F11284   6.567   4.253   8.607  0.1752 -0.2130  0.1586
  109OSM   H18F11285   6.531   4.166   8.548 -2.1280  1.4834 -1.0768
  109OSM   H18G11286   6.653   4.223   8.672  0.2104  1.7880  1.1145
  109OSM   H18H11287   6.613   4.316   8.528 -1.8416  0.5740 -0.4449
  110OSM      N11288   5.825   1.945  10.564  0.0427 -0.2009 -0.6515
  110OSM    C1511289   5.827   2.002  10.702 -0.1957  0.2070  0.5761
  110OSM   H15A11290   5.733   2.047  10.728 -0.6119  1.4872 -2.6451
  110OSM   H15B11291   5.908   2.071  10.718 -0.9044  1.2679 -0.2726
  110OSM   H15C11292   5.856   1.929  10.776  1.1405  0.4576  0.3306
  110OSM    C1411293   5.709   1.848  10.577 -0.2779  0.5028  0.9099
  110OSM   H14A11294   5.743   1.760  10.630  4.4220  0.1998 -1.9770
  110OSM   H14B11295   5.675   1.817  10.479 -0.5592 -0.8133  1.4021
  110OSM   H14C11296   5.618   1.881  10.625 -0.9595 -0.3762  0.2693
  110OSM    C1311297   5.788   2.057  10.466 -0.3292  0.3602  0.3626
  110OSM   H13A11298   5.822   2.036  10.365 -1.1093  1.3148 -0.1100
  110OSM   H13B11299   5.833   2.152  10.490  1.6015 -1.0955  2.9515
  110OSM   H13C11300   5.680   2.060  10.468 -0.4497 -0.7657 -1.6927
  110OSM    C1211301   5.954   1.881  10.528  0.2136  0.3918 -0.1196
  110OSM   H12A11302   6.022   1.956  10.491  1.5256 -0.0607  1.2728
  110OSM   H12B11303   5.942   1.806  10.451  1.4431 -1.3232  1.2897
  110OSM    C1111304   6.034   1.814  10.651  0.2211  0.1362  0.4157
  110OSM   H11A11305   6.118   1.754  10.609  1.4853  1.9283  0.2908
  110OSM   H11B11306   5.968   1.738  10.698 -0.8503  0.9857  0.3188
  110OSM      P11307   6.212   2.001  10.717 -0.7074  0.2110 -0.1668
  110OSM    O1311308   6.188   2.131  10.782 -0.2694 -0.4388  0.6849
  110OSM    O1411309   6.333   1.916  10.748 -0.2761 -0.4125  0.1569
  110OSM    O1111310   6.199   2.025  10.561  0.0321  0.2710 -0.1911
  110OSM    O1211311   6.093   1.911  10.740 -0.2408  0.0161 -0.2128
  110OSM    C1S11312   6.317   2.060  10.477  0.4956 -0.1745 -1.1035
  110OSM    H1S11313   6.364   1.962  10.455  0.4940 -0.8888  1.7090
  110OSM    H1T11314   6.381   2.127  10.538  0.6297 -0.9175 -0.4151
  110OSM     NF11315   6.388   2.128  10.249 -0.4702  0.1163  0.4403
  110OSM    HNF11316   6.442   2.211  10.263  0.2771 -0.2511 -0.2285
  110OSM    C2S11317   6.273   2.117  10.335 -0.2984  0.0101 -0.9936
  110OSM    H2S11318   6.211   2.034  10.294  1.5961 -1.5289 -0.8685
  110OSM    C3S11319   6.184   2.246  10.359 -0.0129  0.7683  0.4110
  110OSM    H3S11320   6.229   2.322  10.426  1.9837  0.1948 -0.2231
  110OSM     O311321   6.063   2.215  10.435 -0.0542  0.7240  0.2218
  110OSM    HO311322   6.093   2.134  10.476  0.8763  1.5535  1.2580
  110OSM    C4S11323   6.159   2.296  10.223  0.5213 -0.1431 -0.5590
  110OSM    H4S11324   6.072   2.243  10.182  1.3624 -2.1720  0.1508
  110OSM    C5S11325   6.212   2.390  10.147  0.5519 -1.2251 -0.3345
  110OSM    H5S11326   6.294   2.457  10.176  1.1376 -0.9193 -2.4815
  110OSM    C6S11327   6.172   2.426  10.004  0.1591 -0.1868  1.4294
  110OSM    H6S11328   6.118   2.522   9.990 -1.2326 -0.9077  1.7664
  110OSM    H6T11329   6.099   2.356   9.959  3.6230 -3.9279  1.0959
  110OSM    C7S11330   6.292   2.429   9.909 -0.1558  0.3001 -0.1704
  110OSM    H7S11331   6.374   2.487   9.958 -0.5217 -0.3068  1.2097
  110OSM    H7T11332   6.257   2.482   9.818 -0.0291 -2.8596 -2.2145
  110OSM    C8S11333   6.334   2.277   9.886 -0.2177  0.6935  0.4206
  110OSM    H8S11334   6.243   2.220   9.859  0.5252 -1.1739  1.6295
  110OSM    H8T11335   6.370   2.246   9.986 -2.7961 -0.4204  1.0674
  110OSM    C9S11336   6.450   2.250   9.789  0.6373 -0.6464  0.3265
  110OSM    H9S11337   6.487   2.146   9.799  5.2534  0.6005 -1.1296
  110OSM    H9T11338   6.538   2.302   9.833  0.9430  1.3302 -2.3406
  110OSM   C10S11339   6.434   2.273   9.642 -0.5876 -0.2739  0.1018
  110OSM   H10S11340   6.529   2.248   9.590 -1.6922 -1.5954 -1.3741
  110OSM   H10T11341   6.406   2.381   9.636 -0.0456 -0.1640 -0.6948
  110OSM   C11S11342   6.330   2.190   9.578  0.5320  0.4794 -0.1411
  110OSM   H11S11343   6.224   2.214   9.602  0.6028  0.2663  0.3982
  110OSM   H11T11344   6.344   2.083   9.604  3.4958  1.2964  2.2777
  110OSM   C12S11345   6.343   2.195   9.418  0.3335 -0.0137 -0.7174
  110OSM   H12S11346   6.271   2.121   9.377 -1.3961  0.7778  0.7293
  110OSM   H12T11347   6.448   2.162   9.407 -0.1900 -2.6749  1.2554
  110OSM   C13S11348   6.306   2.330   9.354  0.4738 -0.1496  0.4485
  110OSM   H13S11349   6.332   2.424   9.406  0.5444  1.1494 -1.8033
  110OSM   H13T11350   6.196   2.338   9.342  0.6621  2.0539 -0.2919
  110OSM   C14S11351   6.362   2.346   9.208 -0.1001  0.4125 -0.6619
  110OSM   H14S11352   6.359   2.243   9.167  0.7094 -0.1131  0.5154
  110OSM   H14T11353   6.467   2.382   9.205  0.5323 -1.2915 -0.3585
  110OSM   C15S11354   6.278   2.445   9.122  0.0287  0.3202 -0.2881
  110OSM   H15S11355   6.304   2.544   9.166  0.9381 -1.8832  4.9479
  110OSM   H15T11356   6.169   2.423   9.117  0.6438 -2.9031 -2.9575
  110OSM   C16S11357   6.318   2.427   8.977 -0.7720  0.3092  0.4316
  110OSM   H16S11358   6.271   2.334   8.938 -2.1726  0.5592  1.4370
  110OSM   H16T11359   6.429   2.420   8.972 -0.8313  0.3717 -1.4216
  110OSM   C17S11360   6.282   2.547   8.892 -0.2821 -0.9729  0.0100
  110OSM   H17S11361   6.352   2.630   8.917  1.0555 -2.3747  1.1828
  110OSM   H17T11362   6.179   2.584   8.911 -0.2475 -0.6140 -0.4895
  110OSM   C18S11363   6.301   2.524   8.745  0.0747 -0.3911  0.0520
  110OSM   H18S11364   6.238   2.593   8.686 -0.2049  1.1301  2.0221
  110OSM   H18T11365   6.262   2.424   8.717  0.1887  0.1759 -2.2897
  110OSM   H18U11366   6.410   2.521   8.723  0.4573 -2.0105  1.8721
  110OSM    C1F11367   6.461   2.025  10.196  0.4050  0.3045  0.0629
  110OSM     OF11368   6.428   1.903  10.206  0.1230 -0.8465 -0.0313
  110OSM    C2F11369   6.589   2.075  10.129  0.2218  0.4266 -0.2033
  110OSM    H2F11370   6.665   2.094  10.207  0.6537  1.0886 -0.7735
  110OSM    H2G11371   6.566   2.167  10.071 -0.0610  0.8617  0.5864
  110OSM    C3F11372   6.652   1.967  10.029  0.1445 -0.3936 -0.4162
  110OSM    H3F11373   6.573   1.911   9.974 -0.0521 -1.4871  0.9329
  110OSM    H3G11374   6.710   1.896  10.092  0.2059 -0.5151 -0.6062
  110OSM    C4F11375   6.749   2.035   9.933  0.6352 -0.3692  0.0369
  110OSM    H4F11376   6.707   2.132   9.898  1.5936  0.6454  1.5620
  110OSM    H4G11377   6.766   1.972   9.844 -1.1137 -1.5555  0.4926
  110OSM    C5F11378   6.887   2.059   9.999  1.3997  0.1863 -0.6910
  110OSM    H5F11379   6.941   1.964  10.016  0.4675  0.0840  2.2482
  110OSM    H5G11380   6.870   2.101  10.100  0.9865 -0.1499 -0.6167
  110OSM    C6F11381   6.963   2.159   9.918 -0.5470 -0.6343  0.3233
  110OSM    H6F11382   6.916   2.259   9.926  2.7946  1.0108  1.0922
  110OSM    H6G11383   6.955   2.122   9.813 -0.5162 -2.4120  0.9212
  110OSM    C7F11384   7.111   2.181   9.953  0.2837  0.3015 -0.4362
  110OSM    H7F11385   7.151   2.078   9.957  1.1910  0.6749  3.0900
  110OSM    H7G11386   7.117   2.222  10.056 -0.0710 -1.2464  0.2306
  110OSM    C8F11387   7.192   2.252   9.844 -0.9923  0.1967 -0.2727
  110OSM    H8F11388   7.162   2.359   9.847  1.6903  1.0297 -0.2684
  110OSM    H8G11389   7.161   2.211   9.745  0.8126  0.3661 -0.9408
  110OSM    C9F11390   7.343   2.249   9.841  0.4178 -0.1882  0.0187
  110OSM    H9F11391   7.372   2.255   9.947  0.2754  0.6516  0.0148
  110OSM   C10F11392   7.426   2.235   9.733  0.0212 -0.2236 -0.0264
  110OSM   H10F11393   7.529   2.213   9.762 -0.6486 -1.6931  1.3443
  110OSM   C11F11394   7.398   2.236   9.581 -0.5306 -0.9439  0.7126
  110OSM   H11F11395   7.478   2.301   9.541 -0.3488  0.3612  2.9883
  110OSM   H11G11396   7.304   2.289   9.554  0.0215 -0.6304 -0.6373
  110OSM   C12F11397   7.384   2.106   9.494 -0.0926 -0.6461 -0.4042
  110OSM   H12F11398   7.311   2.031   9.533  0.7548 -1.7554 -0.8774
  110OSM   H12G11399   7.488   2.069   9.481  0.7625  1.9428 -1.4930
  110OSM   C13F11400   7.323   2.133   9.354  0.8614  0.1673  0.2134
  110OSM   H13F11401   7.230   2.191   9.375  0.4869 -0.7688  1.2648
  110OSM   H13G11402   7.298   2.033   9.312  0.9203  1.1272 -2.2141
  110OSM   C14F11403   7.420   2.202   9.263  0.3587 -0.2079  0.0483
  110OSM   H14F11404   7.510   2.138   9.256  0.6233  0.3568 -2.6114
  110OSM   H14G11405   7.451   2.300   9.305 -0.9781 -0.3818  1.5361
  110OSM   C15F11406   7.356   2.237   9.131 -0.3842 -0.1253  0.2011
  110OSM   H15F11407   7.249   2.259   9.152 -0.6882 -1.5250  0.2496
  110OSM   H15G11408   7.351   2.141   9.074  0.9046 -0.8090  1.2029
  110OSM   C16F11409   7.443   2.341   9.061  0.4223  0.0403  0.0242
  110OSM   H16F11410   7.538   2.297   9.023  0.0654  1.2739 -2.5385
  110OSM   H16G11411   7.461   2.423   9.134 -0.5577  0.4899 -0.2305
  110OSM   C17F11412   7.357   2.397   8.950  0.5919 -0.0489  0.5440
  110OSM   H17F11413   7.262   2.443   8.984  0.0664  0.0510 -0.9816
  110OSM   H17G11414   7.330   2.315   8.880 -1.2823  0.2632  0.8538
  110OSM   C18F11415   7.421   2.507   8.861 -0.2854  0.5104  0.1378
  110OSM   H18F11416   7.476   2.583   8.921  2.1314 -0.2624 -0.9694
  110OSM   H18G11417   7.349   2.563   8.798 -0.8920 -1.6546 -1.1938
  110OSM   H18H11418   7.500   2.458   8.799 -1.5489 -1.2256 -0.1714
  111OSM      N11419   6.303   0.304  10.960 -0.2705  0.1752 -0.2538
  111OSM    C1511420   6.180   0.267  10.882 -0.5017 -0.7782  0.0211
  111OSM   H15A11421   6.128   0.179  10.916 -3.9395  0.4062 -1.6819
  111OSM   H15B11422   6.202   0.248  10.779 -0.9075 -0.1037 -0.2035
  111OSM   H15C11423   6.104   0.345  10.877  0.7789  0.5935  1.0040
  111OSM    C1411424   6.268   0.318  11.106 -0.4853 -0.2166 -0.0853
  111OSM   H14A11425   6.219   0.412  11.125 -1.8915 -0.3057 -2.7914
  111OSM   H14B11426   6.357   0.326  11.167  0.8906 -1.9243 -1.7370
  111OSM   H14C11427   6.204   0.235  11.133 -0.5899  0.3396  1.4457
  111OSM    C1311428   6.402   0.195  10.958  0.2388  0.1591 -0.6931
  111OSM   H13A11429   6.367   0.130  11.037 -2.0228 -1.5586 -2.9513
  111OSM   H13B11430   6.506   0.225  10.962  0.7887 -1.4024 -2.2075
  111OSM   H13C11431   6.390   0.141  10.865  2.6200  1.8612 -2.0928
  111OSM    C1211432   6.365   0.436  10.921  0.6931  0.1206  0.5914
  111OSM   H12A11433   6.439   0.458  10.997  0.5746 -2.3299  1.4850
  111OSM   H12B11434   6.289   0.512  10.934  1.4398  1.2700 -1.3062
  111OSM    C1111435   6.405   0.461  10.775  0.2139  0.1128  0.2663
  111OSM   H11A11436   6.480   0.385  10.746  0.8996  0.7002  0.4580
  111OSM   H11B11437   6.463   0.555  10.759  0.3930 -0.5670 -4.3893
  111OSM      P11438   6.196   0.588  10.687  0.4094 -0.1744  0.1621
  111OSM    O1311439   6.067   0.555  10.624  0.1419 -0.4575  0.3144
  111OSM    O1411440   6.189   0.652  10.819  0.3342 -0.1676  0.3986
  111OSM    O1111441   6.278   0.678  10.594  0.1650 -0.0969 -0.1825
  111OSM    O1211442   6.289   0.460  10.690 -0.5810 -0.3257  0.4368
  111OSM    C1S11443   6.301   0.651  10.454  0.7134 -0.0293 -0.0368
  111OSM    H1S11444   6.209   0.667  10.394  0.2545 -3.1297 -0.3118
  111OSM    H1T11445   6.328   0.543  10.448 -4.6071 -1.6409  0.1771
  111OSM     NF11446   6.431   0.717  10.247  0.5487  0.0935  0.2600
  111OSM    HNF11447   6.506   0.661  10.214 -0.5981 -0.5133 -1.4312
  111OSM    C2S11448   6.409   0.744  10.390  0.4944 -0.3060  0.1001
  111OSM    H2S11449   6.375   0.846  10.416 -2.2753 -1.3840  1.1524
  111OSM    C3S11450   6.543   0.729  10.468 -0.0183 -0.5210 -0.2165
  111OSM    H3S11451   6.582   0.625  10.458  2.5984  0.6099 -3.7520
  111OSM     O311452   6.536   0.769  10.604 -0.4696  0.2492 -0.2182
  111OSM    HO311453   6.442   0.752  10.609 -0.2409 -0.7298  2.8988
  111OSM    C4S11454   6.656   0.810  10.403  0.1852  0.0409  0.5048
  111OSM    H4S11455   6.723   0.753  10.336  0.3842 -0.0962  0.8166
  111OSM    C5S11456   6.656   0.944  10.400 -0.6066  0.6507  0.4129
  111OSM    H5S11457   6.576   0.996  10.455 -2.2594 -0.8914 -0.4074
  111OSM    C6S11458   6.753   1.027  10.326  0.2549  0.7995  0.0707
  111OSM    H6S11459   6.837   0.971  10.280  0.0729  1.2501 -0.8428
  111OSM    H6T11460   6.788   1.103  10.399 -0.8000  1.8977 -0.5194
  111OSM    C7S11461   6.681   1.099  10.203  0.5999 -0.3666  0.3261
  111OSM    H7S11462   6.590   1.156  10.234  0.8531  0.1343  0.1534
  111OSM    H7T11463   6.649   1.017  10.135 -1.8918 -1.0643  2.1875
  111OSM    C8S11464   6.779   1.191  10.126 -0.1471  0.0083 -0.0681
  111OSM    H8S11465   6.825   1.256  10.204 -0.5276 -0.9785  0.9966
  111OSM    H8T11466   6.714   1.250  10.058 -1.9551 -0.8528  0.8324
  111OSM    C9S11467   6.884   1.113  10.048 -0.3893  0.4224 -0.3843
  111OSM    H9S11468   6.834   1.028   9.997  0.6740 -0.4834  0.0378
  111OSM    H9T11469   6.949   1.063  10.124 -3.9416 -1.0324  1.9692
  111OSM   C10S11470   6.970   1.179   9.938  1.2378 -0.0688 -0.7416
  111OSM   H10S11471   7.060   1.115   9.931  2.1525  0.9486  1.1433
  111OSM   H10T11472   7.011   1.279   9.963  0.5827  0.0239 -0.0234
  111OSM   C11S11473   6.904   1.169   9.794  0.3072  0.0551 -0.1599
  111OSM   H11S11474   6.845   1.075   9.790  1.1534 -0.5017  0.0981
  111OSM   H11T11475   6.968   1.172   9.702  1.3571 -2.3568  0.4073
  111OSM   C12S11476   6.796   1.281   9.770  0.1821 -0.0540 -0.5162
  111OSM   H12S11477   6.847   1.379   9.769 -1.6350  1.1163 -5.2263
  111OSM   H12T11478   6.727   1.277   9.856 -0.2056 -0.1864 -0.8306
  111OSM   C13S11479   6.715   1.262   9.648  0.0871 -0.9772  0.6152
  111OSM   H13S11480   6.628   1.331   9.652  0.2949 -0.6915  0.3288
  111OSM   H13T11481   6.684   1.156   9.646  0.9799 -1.2429  0.7268
  111OSM   C14S11482   6.803   1.286   9.519  0.3326  0.7226  0.8048
  111OSM   H14S11483   6.875   1.202   9.522 -0.6660 -0.2805 -1.4132
  111OSM   H14T11484   6.860   1.380   9.535  1.7295 -0.0153  0.3322
  111OSM   C15S11485   6.728   1.268   9.386  0.0609 -0.5050 -0.2160
  111OSM   H15S11486   6.618   1.269   9.400 -0.3420 -5.9145 -0.7099
  111OSM   H15T11487   6.751   1.163   9.358  1.8837  0.2636 -1.8590
  111OSM   C16S11488   6.783   1.359   9.276  0.5341 -0.1910 -0.0253
  111OSM   H16S11489   6.886   1.327   9.252  0.1839 -1.6325  0.3158
  111OSM   H16T11490   6.772   1.460   9.323 -3.9317 -0.5179  0.1055
  111OSM   C17S11491   6.696   1.353   9.152 -0.4582 -0.1610  0.3156
  111OSM   H17S11492   6.588   1.361   9.177 -0.8169 -1.8030 -0.5303
  111OSM   H17T11493   6.706   1.249   9.112  1.5740 -0.1577  0.7533
  111OSM   C18S11494   6.734   1.450   9.038 -0.4065 -0.5482 -0.1352
  111OSM   H18S11495   6.839   1.432   9.006 -0.0141  1.0579  0.1639
  111OSM   H18T11496   6.725   1.557   9.067  1.6014 -0.5806  0.7469
  111OSM   H18U11497   6.674   1.426   8.947 -2.1524 -0.6995  0.9986
  111OSM    C1F11498   6.334   0.763  10.163 -0.1055 -0.4118 -0.0256
  111OSM     OF11499   6.236   0.813  10.208  0.0329 -0.5611 -0.0785
  111OSM    C2F11500   6.355   0.765  10.011  0.5911  0.9428 -0.3442
  111OSM    H2F11501   6.282   0.838   9.970 -1.5164 -0.6425  0.4242
  111OSM    H2G11502   6.334   0.666   9.966 -0.4665  0.8721  0.2679
  111OSM    C3F11503   6.494   0.809   9.967 -0.5758  0.4919 -0.1967
  111OSM    H3F11504   6.573   0.738   9.999 -0.5438  1.0591  1.0197
  111OSM    H3G11505   6.527   0.895  10.029 -2.6964 -0.3739  2.3423
  111OSM    C4F11506   6.500   0.849   9.820  0.1366  0.2149 -0.1739
  111OSM    H4F11507   6.604   0.887   9.806 -0.3837  1.5914 -0.3955
  111OSM    H4G11508   6.432   0.935   9.803 -1.6906 -1.3373 -1.0503
  111OSM    C5F11509   6.477   0.736   9.719  0.0279  0.5348 -0.1736
  111OSM    H5F11510   6.397   0.669   9.760 -1.0801  1.7858 -0.2194
  111OSM    H5G11511   6.567   0.672   9.708 -1.7274 -1.9925 -0.7264
  111OSM    C6F11512   6.443   0.794   9.576  0.1233  0.2698 -0.4857
  111OSM    H6F11513   6.374   0.880   9.594 -1.7038 -0.7512 -2.1821
  111OSM    H6G11514   6.372   0.726   9.525  0.8785 -0.4523 -0.5954
  111OSM    C7F11515   6.570   0.831   9.494 -0.0419 -0.1311  0.1877
  111OSM    H7F11516   6.621   0.741   9.453  1.6803  1.2547 -0.8374
  111OSM    H7G11517   6.644   0.868   9.567  1.9003 -0.0975 -1.7213
  111OSM    C8F11518   6.542   0.926   9.379  0.2504  0.0692  0.8905
  111OSM    H8F11519   6.641   0.969   9.351 -0.2722 -1.0367 -3.2682
  111OSM    H8G11520   6.481   1.010   9.418  0.2353  0.5805 -0.1922
  111OSM    C9F11521   6.472   0.866   9.255 -0.4503  0.0385  0.0272
  111OSM    H9F11522   6.392   0.791   9.263  0.1259 -0.6399 -0.3856
  111OSM   C10F11523   6.491   0.901   9.126 -0.0190 -0.0889 -0.1088
  111OSM   H10F11524   6.440   0.846   9.045  0.1746  1.2241 -1.1623
  111OSM   C11F11525   6.580   1.018   9.083 -0.0731 -0.0768  0.2807
  111OSM   H11F11526   6.686   0.991   9.103 -0.3650 -0.2735  1.6427
  111OSM   H11G11527   6.546   1.104   9.145 -1.0329 -1.1759  1.3089
  111OSM   C12F11528   6.582   1.047   8.925  0.0369 -0.4392 -0.1385
  111OSM   H12F11529   6.595   0.951   8.870  1.6545  0.3465 -1.2065
  111OSM   H12G11530   6.677   1.105   8.916  0.0358  0.2668  3.1552
  111OSM   C13F11531   6.456   1.122   8.871 -0.2594  0.4271 -0.2144
  111OSM   H13F11532   6.466   1.225   8.913 -0.0167  0.4412 -0.3074
  111OSM   H13G11533   6.361   1.080   8.912  0.3559 -0.4727  0.3080
  111OSM   C14F11534   6.463   1.118   8.716 -0.6401  0.4604  0.7813
  111OSM   H14F11535   6.381   1.188   8.686 -0.1438  1.0570  0.7995
  111OSM   H14G11536   6.434   1.016   8.681  0.0450  0.0400  1.4297
  111OSM   C15F11537   6.601   1.176   8.660 -0.1943  0.4542 -0.8268
  111OSM   H15F11538   6.682   1.101   8.662  1.7224  2.4587 -0.0498
  111OSM   H15G11539   6.630   1.257   8.730 -1.2938 -1.3707  1.9012
  111OSM   C16F11540   6.586   1.236   8.523  0.1021  0.5201 -0.0034
  111OSM   H16F11541   6.681   1.288   8.501  0.7420 -0.4041  0.5438
  111OSM   H16G11542   6.496   1.302   8.518 -1.3937 -1.4919 -3.3201
  111OSM   C17F11543   6.551   1.130   8.421 -0.2333 -0.7894  0.4547
  111OSM   H17F11544   6.458   1.086   8.464  0.4840 -1.2553  1.5880
  111OSM   H17G11545   6.613   1.039   8.431 -1.6186 -1.8595 -0.2666
  111OSM   C18F11546   6.529   1.173   8.276  0.3151  0.1096 -0.9836
  111OSM   H18F11547   6.445   1.110   8.241  1.0745 -2.3131  1.1958
  111OSM   H18G11548   6.621   1.149   8.219  1.9963  1.0118  1.1662
  111OSM   H18H11549   6.507   1.281   8.264  1.3349  0.3420 -0.8948
  112OSM      N11550   6.328   6.510  10.974 -0.7677  0.4911 -0.0939
  112OSM    C1511551   6.471   6.547  10.977  0.0936  0.1797  0.0149
  112OSM   H15A11552   6.486   6.630  11.044  0.3008  1.3815 -1.4852
  112OSM   H15B11553   6.512   6.575  10.882  0.7727  0.5097  0.3964
  112OSM   H15C11554   6.546   6.475  11.010 -1.4611 -3.1285 -2.9705
  112OSM    C1411555   6.301   6.382  10.899 -0.2667  0.3062 -0.4692
  112OSM   H14A11556   6.340   6.401  10.800  0.5837 -0.2734 -0.2552
  112OSM   H14B11557   6.195   6.365  10.897 -0.1207 -0.5793 -1.4165
  112OSM   H14C11558   6.343   6.295  10.947 -1.5061  0.2198  0.5153
  112OSM    C1311559   6.278   6.488  11.112 -0.0841  0.2380  0.2262
  112OSM   H13A11560   6.282   6.577  11.173  0.4932 -0.4537  1.2406
  112OSM   H13B11561   6.341   6.417  11.165 -0.5145 -0.7354 -0.5342
  112OSM   H13C11562   6.175   6.457  11.121 -0.4271  1.1518 -0.5236
  112OSM    C1211563   6.249   6.633  10.921 -0.2666  0.4813 -0.5724
  112OSM   H12A11564   6.281   6.719  10.977  1.9357 -1.0015  0.5918
  112OSM   H12B11565   6.148   6.616  10.956  0.3546 -0.1875  0.9739
  112OSM    C1111566   6.256   6.672  10.773 -0.5300  0.1999 -0.8341
  112OSM   H11A11567   6.360   6.703  10.745  0.2221  0.6639  2.1751
  112OSM   H11B11568   6.200   6.765  10.750 -0.5821 -0.0253 -1.6714
  112OSM      P11569   6.071   6.543  10.657  0.1478 -0.3901 -0.1891
  112OSM    O1311570   6.061   6.411  10.589 -0.0772 -0.0433  0.0561
  112OSM    O1411571   5.982   6.559  10.780 -1.4639  0.2145 -0.2817
  112OSM    O1111572   6.036   6.671  10.568 -0.3981  0.7308 -0.5048
  112OSM    O1211573   6.225   6.559  10.691 -0.3968 -0.1359 -0.2898
  112OSM    C1S11574   6.011   6.652  10.433 -0.2690  0.6755 -0.3756
  112OSM    H1S11575   5.914   6.601  10.414 -0.4950 -0.4831  3.1960
  112OSM    H1T11576   6.092   6.592  10.386  0.3581 -0.8936  2.4858
  112OSM     NF11577   5.997   6.758  10.211 -0.3592  0.1215 -0.5346
  112OSM    HNF11578   6.067   6.784  10.145 -2.1017  4.2570 -1.0433
  112OSM    C2S11579   6.018   6.782  10.355  0.0331 -0.2231 -0.1787
  112OSM    H2S11580   5.929   6.843  10.381  0.4251  0.2289  0.1062
  112OSM    C3S11581   6.147   6.870  10.397 -0.4515 -0.1855 -0.0213
  112OSM    H3S11582   6.232   6.807  10.364 -0.1589  0.9911 -1.6545
  112OSM     O311583   6.170   6.902  10.535  0.2357 -0.2972  0.1147
  112OSM    HO311584   6.100   6.858  10.583 -1.0680  2.8746  1.4223
  112OSM    C4S11585   6.151   7.006  10.317  0.1158  0.1381  0.2371
  112OSM    H4S11586   6.089   7.085  10.363  2.2403  1.3832  1.1291
  112OSM    C5S11587   6.246   7.036  10.226  0.1729 -0.3095  0.3855
  112OSM    H5S11588   6.317   6.960  10.189 -0.2232 -0.3947 -0.2248
  112OSM    C6S11589   6.244   7.174  10.174 -0.0249 -0.1637  0.7191
  112OSM    H6S11590   6.342   7.219  10.199  0.1746 -0.5886  0.7120
  112OSM    H6T11591   6.162   7.226  10.227  0.7958 -0.4886  2.3743
  112OSM    C7S11592   6.201   7.164  10.025 -0.1281  0.5855 -0.0444
  112OSM    H7S11593   6.110   7.106   9.997  0.1415  0.1657 -0.0533
  112OSM    H7T11594   6.280   7.105   9.973 -0.2444  1.7968 -1.6429
  112OSM    C8S11595   6.203   7.304   9.962 -0.1829  0.0749 -0.2071
  112OSM    H8S11596   6.307   7.342   9.973 -0.7985  1.2678  1.9187
  112OSM    H8T11597   6.134   7.379  10.007  0.3470  0.3796  0.1139
  112OSM    C9S11598   6.176   7.303   9.812 -1.0134 -0.3702 -0.1552
  112OSM    H9S11599   6.167   7.408   9.776 -2.7892 -1.0489 -1.9431
  112OSM    H9T11600   6.079   7.260   9.778 -0.8115 -1.5863  0.7743
  112OSM   C10S11601   6.282   7.236   9.728 -0.3480  0.3899  0.5557
  112OSM   H10S11602   6.284   7.128   9.756 -1.2086 -0.9915 -3.7994
  112OSM   H10T11603   6.378   7.289   9.746 -0.1789 -0.3694  1.9921
  112OSM   C11S11604   6.239   7.256   9.578 -0.2361  0.6257  0.1749
  112OSM   H11S11605   6.184   7.352   9.573  0.4222  0.9573 -1.5513
  112OSM   H11T11606   6.154   7.189   9.552  0.1421  0.5772 -1.0286
  112OSM   C12S11607   6.347   7.239   9.473  0.3286 -0.7297 -0.5749
  112OSM   H12S11608   6.408   7.148   9.492 -1.5574 -1.7360  0.9814
  112OSM   H12T11609   6.418   7.323   9.488 -0.1345 -0.8189  2.7426
  112OSM   C13S11610   6.288   7.251   9.334 -0.0989  0.5393  0.6516
  112OSM   H13S11611   6.228   7.344   9.327 -0.2621  0.3193 -2.7498
  112OSM   H13T11612   6.220   7.165   9.313  0.5675 -0.5107  2.5413
  112OSM   C14S11613   6.403   7.255   9.230 -0.3027  1.2011 -0.7761
  112OSM   H14S11614   6.453   7.157   9.219  0.7478  1.2737  2.5072
  112OSM   H14T11615   6.483   7.323   9.266  0.8201 -0.1949 -0.6053
  112OSM   C15S11616   6.348   7.289   9.089  0.8729  0.0246 -0.7124
  112OSM   H15S11617   6.304   7.390   9.097  0.5852 -0.0426 -1.3312
  112OSM   H15T11618   6.260   7.223   9.069 -0.5769  1.6670 -0.0054
  112OSM   C16S11619   6.441   7.272   8.968  0.0015  0.1212  0.6551
  112OSM   H16S11620   6.480   7.170   8.987 -0.0761 -0.0099  0.1202
  112OSM   H16T11621   6.525   7.343   8.979  1.0381 -0.1494 -3.6539
  112OSM   C17S11622   6.371   7.305   8.838 -0.1265  0.7628  0.1217
  112OSM   H17S11623   6.448   7.308   8.758  0.4811 -0.1983  0.6541
  112OSM   H17T11624   6.321   7.404   8.830  0.6125  1.1014 -0.4269
  112OSM   C18S11625   6.267   7.197   8.794  0.0020  0.4616 -0.2910
  112OSM   H18S11626   6.172   7.210   8.851 -0.8209  0.0324 -1.5190
  112OSM   H18T11627   6.298   7.093   8.817  2.0776  1.2629  0.7203
  112OSM   H18U11628   6.240   7.209   8.687 -1.6951  1.5893  0.2284
  112OSM    C1F11629   5.880   6.709  10.167  0.7288  0.0765 -0.3786
  112OSM     OF11630   5.776   6.708  10.239  0.0845  0.9117 -0.0682
  112OSM    C2F11631   5.874   6.658  10.025 -0.5339  0.4680 -0.1269
  112OSM    H2F11632   5.952   6.579  10.014 -0.7698 -0.0323  1.4914
  112OSM    H2G11633   5.876   6.736   9.946 -1.6913 -0.4012 -1.0510
  112OSM    C3F11634   5.730   6.606   9.989  0.5207 -0.0101 -0.4740
  112OSM    H3F11635   5.651   6.682  10.007  0.5709 -0.5156  2.3189
  112OSM    H3G11636   5.705   6.518  10.052  1.6515 -0.0572 -0.0727
  112OSM    C4F11637   5.717   6.549   9.851  0.2585 -0.0500 -0.4209
  112OSM    H4F11638   5.770   6.452   9.861 -1.7923 -1.4282 -2.1107
  112OSM    H4G11639   5.756   6.617   9.773  0.9696 -1.8681 -1.6963
  112OSM    C5F11640   5.565   6.527   9.815 -0.3662 -0.4562 -0.1959
  112OSM    H5F11641   5.524   6.630   9.812 -0.3441 -0.2735  2.8959
  112OSM    H5G11642   5.518   6.485   9.906 -3.1551 -0.1984 -1.4192
  112OSM    C6F11643   5.532   6.437   9.692 -0.3984 -0.4545  0.2501
  112OSM    H6F11644   5.425   6.445   9.661 -0.4004  3.8857  0.7656
  112OSM    H6G11645   5.550   6.330   9.716  0.6635 -0.4922 -0.6660
  112OSM    C7F11646   5.634   6.470   9.590  0.2101 -0.1324  0.2981
  112OSM    H7F11647   5.731   6.435   9.631  1.6102  1.6123 -1.3950
  112OSM    H7G11648   5.639   6.581   9.581 -1.0430 -0.0128  0.8385
  112OSM    C8F11649   5.595   6.399   9.460 -0.1353  0.5480 -0.4850
  112OSM    H8F11650   5.491   6.431   9.437 -1.6088 -2.8852  0.7341
  112OSM    H8G11651   5.595   6.288   9.464 -0.6008  0.4774 -1.8517
  112OSM    C9F11652   5.694   6.444   9.360 -0.3133 -1.0093  0.6016
  112OSM    H9F11653   5.796   6.441   9.401 -0.5345  0.8860  1.3929
  112OSM   C10F11654   5.674   6.485   9.234  0.2535  0.4373 -0.2753
  112OSM   H10F11655   5.759   6.487   9.165  1.3569 -1.8376  0.9361
  112OSM   C11F11656   5.540   6.491   9.166  0.1596  0.0377 -0.3198
  112OSM   H11F11657   5.535   6.598   9.137 -0.5373  0.5823  1.6953
  112OSM   H11G11658   5.457   6.464   9.235  1.0214 -3.1299 -0.3823
  112OSM   C12F11659   5.527   6.401   9.039 -0.4204 -0.1126  0.2280
  112OSM   H12F11660   5.599   6.449   8.969 -2.0232 -0.2521 -1.6157
  112OSM   H12G11661   5.422   6.416   9.005 -0.9275 -2.5365  0.5576
  112OSM   C13F11662   5.561   6.251   9.055 -0.3767  0.0392  0.7612
  112OSM   H13F11663   5.579   6.221   9.161  1.3907 -3.7276 -0.4290
  112OSM   H13G11664   5.639   6.221   8.982  0.3777 -0.3550  1.6934
  112OSM   C14F11665   5.437   6.162   9.041  0.8272  0.4578  0.1874
  112OSM   H14F11666   5.387   6.173   8.943 -2.1436 -2.3637  1.1992
  112OSM   H14G11667   5.359   6.190   9.116  1.0885  0.0047  0.6396
  112OSM   C15F11668   5.459   6.009   9.066  0.1252 -0.4093 -0.2637
  112OSM   H15F11669   5.368   5.953   9.099 -0.0950  0.4767  0.6751
  112OSM   H15G11670   5.536   5.998   9.145 -0.4513  3.3196  0.9905
  112OSM   C16F11671   5.519   5.946   8.937 -0.2384  0.3054  0.3654
  112OSM   H16F11672   5.611   6.005   8.918 -0.2038  0.4451  0.9351
  112OSM   H16G11673   5.447   5.963   8.854 -0.3618 -1.7798  0.0005
  112OSM   C17F11674   5.555   5.798   8.970 -0.5776  0.0258  0.2282
  112OSM   H17F11675   5.643   5.794   9.038 -1.2541  2.1418  1.3039
  112OSM   H17G11676   5.593   5.759   8.873  2.7077 -1.2974  1.8778
  112OSM   C18F11677   5.443   5.703   9.022  0.2039  0.1016 -0.2053
  112OSM   H18F11678   5.484   5.601   9.035 -1.2860 -0.5170 -0.2223
  112OSM   H18G11679   5.364   5.706   8.944 -0.4734  1.0526  0.4869
  112OSM   H18H11680   5.421   5.728   9.129  0.0502  1.9623 -0.6271
  113OSM      N11681   2.903   1.617  11.066 -0.3963  0.0939  0.4495
  113OSM    C1511682   2.894   1.751  11.116 -0.1175  0.4055 -0.4708
  113OSM   H15A11683   2.994   1.788  11.131 -0.1108  0.1908  0.0292
  113OSM   H15B11684   2.863   1.750  11.220  1.4052 -3.4579  0.1122
  113OSM   H15C11685   2.831   1.809  11.050  0.9535 -1.5491 -3.3844
  113OSM    C1411686   2.981   1.540  11.167  0.0849  0.1073 -0.1798
  113OSM   H14A11687   2.990   1.437  11.136 -2.1317  0.2596 -1.5436
  113OSM   H14B11688   2.927   1.541  11.261 -0.9385  1.3728 -0.7604
  113OSM   H14C11689   3.082   1.575  11.185 -0.0693  0.7650 -0.5821
  113OSM    C1311690   2.764   1.571  11.055  0.0724  0.0365  0.1985
  113OSM   H13A11691   2.720   1.638  10.982  2.5405  2.8065  1.0254
  113OSM   H13B11692   2.711   1.577  11.149 -3.2158  2.3769 -1.5834
  113OSM   H13C11693   2.760   1.469  11.019 -0.9862  0.6439 -1.5621
  113OSM    C1211694   2.980   1.613  10.931 -0.4494  0.1993 -0.1791
  113OSM   H12A11695   2.978   1.511  10.896 -0.2090  0.2103 -0.2311
  113OSM   H12B11696   3.081   1.642  10.957 -0.5342 -0.0405  0.4352
  113OSM    C1111697   2.932   1.711  10.819 -0.0789 -0.3760 -0.4859
  113OSM   H11A11698   2.821   1.710  10.822 -0.1993  2.6012  2.5706
  113OSM   H11B11699   2.964   1.676  10.719  1.4818 -0.3955  0.0002
  113OSM      P11700   3.113   1.886  10.803 -0.4443 -0.5156  0.3595
  113OSM    O1311701   3.116   2.034  10.807  1.0004  0.7894  0.0966
  113OSM    O1411702   3.212   1.814  10.884 -0.3556 -0.2502  0.4549
  113OSM    O1111703   3.134   1.840  10.655  0.0416  0.1602 -0.2583
  113OSM    O1211704   2.971   1.844  10.850 -0.0541 -0.0495  0.3828
  113OSM    C1S11705   3.059   1.903  10.549 -0.3055  0.4957 -0.5526
  113OSM    H1S11706   2.991   1.987  10.578 -1.0484 -0.2546 -0.0814
  113OSM    H1T11707   2.997   1.822  10.505  0.1852 -1.5829  2.2911
  113OSM     NF11708   3.069   1.948  10.312 -0.0669  0.0291 -0.2082
  113OSM    HNF11709   3.112   1.895  10.239  3.1839  3.0082 -0.7394
  113OSM    C2S11710   3.143   1.968  10.436 -0.2745  0.5785 -0.2126
  113OSM    H2S11711   3.152   2.073  10.471 -1.3389  0.0394  1.8607
  113OSM    C3S11712   3.291   1.918  10.428 -0.5159 -0.6409 -0.1380
  113OSM    H3S11713   3.270   1.810  10.412 -3.3915 -0.3424  1.0350
  113OSM     O311714   3.356   1.938  10.557 -0.2260 -0.9252  0.4773
  113OSM    HO311715   3.297   1.994  10.608 -0.2806  0.8335 -1.3727
  113OSM    C4S11716   3.371   1.970  10.309  0.3866 -0.1340 -0.5836
  113OSM    H4S11717   3.353   1.918  10.213  1.0867  0.1338 -0.8717
  113OSM    C5S11718   3.447   2.083  10.297  0.1635 -0.4806 -0.6129
  113OSM    H5S11719   3.438   2.148  10.386 -1.0063  0.7227 -1.5705
  113OSM    C6S11720   3.532   2.135  10.184 -0.2984  0.0499  0.6155
  113OSM    H6S11721   3.642   2.129  10.202 -0.1892  0.6631  0.2088
  113OSM    H6T11722   3.516   2.242  10.158  0.7404 -0.2399 -1.4070
  113OSM    C7S11723   3.486   2.071  10.050 -0.8075  0.2259  0.7713
  113OSM    H7S11724   3.375   2.064  10.047 -0.8001 -0.0334  1.0598
  113OSM    H7T11725   3.520   1.965  10.054 -1.9606 -0.3560 -2.4600
  113OSM    C8S11726   3.525   2.154   9.929 -0.3832 -0.4275  0.5250
  113OSM    H8S11727   3.634   2.172   9.925 -0.6343  1.9967  2.2631
  113OSM    H8T11728   3.487   2.258   9.941 -0.9371 -0.7279  1.5295
  113OSM    C9S11729   3.483   2.103   9.795 -0.4733 -0.0675 -0.3817
  113OSM    H9S11730   3.503   2.194   9.735  1.1410  0.2907  0.6351
  113OSM    H9T11731   3.373   2.087   9.788 -0.5866  0.7563 -0.5769
  113OSM   C10S11732   3.564   1.983   9.757 -0.2945 -0.3703 -0.8043
  113OSM   H10S11733   3.555   1.910   9.840 -0.3546 -0.5807 -0.9973
  113OSM   H10T11734   3.669   2.012   9.736 -0.0704 -0.6241 -0.0694
  113OSM   C11S11735   3.518   1.906   9.630  0.0059  0.4441 -0.1976
  113OSM   H11S11736   3.408   1.889   9.624 -0.0181 -0.8398  2.4742
  113OSM   H11T11737   3.565   1.806   9.629 -1.2134 -0.1446 -1.1755
  113OSM   C12S11738   3.554   1.981   9.506  0.0346  0.3976  0.6968
  113OSM   H12S11739   3.649   2.037   9.515  0.2558  0.3976 -1.1936
  113OSM   H12T11740   3.482   2.065   9.492  1.8723  1.6543 -2.2878
  113OSM   C13S11741   3.539   1.901   9.369 -0.3853 -0.3246  0.0259
  113OSM   H13S11742   3.436   1.861   9.359 -0.0655 -1.6420  1.5543
  113OSM   H13T11743   3.614   1.820   9.375 -0.7928 -0.8182 -1.3053
  113OSM   C14S11744   3.584   1.982   9.246  0.3665  0.2874 -0.4823
  113OSM   H14S11745   3.690   2.012   9.258  0.0689  1.3882 -0.4739
  113OSM   H14T11746   3.512   2.066   9.232 -0.9824 -0.0853  3.0718
  113OSM   C15S11747   3.569   1.898   9.115 -0.7146  0.5927 -0.8888
  113OSM   H15S11748   3.488   1.824   9.133  0.8251 -1.2359 -1.2381
  113OSM   H15T11749   3.663   1.839   9.108  0.1436  1.6503  0.9096
  113OSM   C16S11750   3.565   1.979   8.982 -0.1824  0.8611 -0.2164
  113OSM   H16S11751   3.472   2.038   8.983 -1.5226 -1.1456  0.1038
  113OSM   H16T11752   3.569   1.903   8.900 -0.6125 -0.7566  1.2117
  113OSM   C17S11753   3.678   2.086   8.988  0.7415  0.4633  0.3204
  113OSM   H17S11754   3.764   2.017   8.980 -0.1699 -1.3795  4.1735
  113OSM   H17T11755   3.675   2.142   9.084  0.8683  0.1652  0.4983
  113OSM   C18S11756   3.668   2.175   8.864 -0.8609 -0.1247 -0.5466
  113OSM   H18S11757   3.597   2.261   8.870 -1.2372 -0.3382 -1.7662
  113OSM   H18T11758   3.633   2.110   8.781  0.0701 -1.5318  0.1263
  113OSM   H18U11759   3.767   2.210   8.830  1.8883 -3.5950  2.9387
  113OSM    C1F11760   2.946   1.999  10.288 -0.3804  0.5141 -0.1916
  113OSM     OF11761   2.886   2.078  10.354  0.2613 -0.4193  0.7047
  113OSM    C2F11762   2.880   1.930  10.166 -0.3826  0.6324 -0.0379
  113OSM    H2F11763   2.930   1.833  10.141 -1.3479 -0.1287  0.8854
  113OSM    H2G11764   2.908   1.991  10.078  1.9711  2.0530  1.5737
  113OSM    C3F11765   2.726   1.914  10.179 -0.9234 -0.3468 -0.5695
  113OSM    H3F11766   2.689   2.016  10.202 -1.2608 -0.4238 -0.7595
  113OSM    H3G11767   2.694   1.846  10.261 -1.0396  1.1326  0.6543
  113OSM    C4F11768   2.661   1.860  10.052  0.1194 -0.3308  0.2554
  113OSM    H4F11769   2.551   1.877  10.053  0.5444  3.0945  0.8021
  113OSM    H4G11770   2.673   1.750  10.056 -0.5036 -0.5298 -2.0473
  113OSM    C5F11771   2.711   1.916   9.921 -0.1494 -0.3619 -0.3575
  113OSM    H5F11772   2.813   1.881   9.894 -0.1706  0.2435 -1.2419
  113OSM    H5G11773   2.724   2.026   9.926  0.8095 -0.4438 -0.7843
  113OSM    C6F11774   2.629   1.886   9.794  0.4962  0.4598  0.0692
  113OSM    H6F11775   2.527   1.929   9.807 -0.0012 -0.6914  0.1246
  113OSM    H6G11776   2.621   1.775   9.787 -1.1303  0.5293  0.4151
  113OSM    C7F11777   2.687   1.928   9.656 -1.0521 -0.1876 -0.2135
  113OSM    H7F11778   2.779   1.867   9.642 -2.6148 -3.4576  2.3571
  113OSM    H7G11779   2.724   2.033   9.652 -5.0042  1.4819  2.0220
  113OSM    C8F11780   2.591   1.898   9.538 -0.2328 -0.4829  0.2146
  113OSM    H8F11781   2.495   1.954   9.537  1.2213  2.1885 -0.9678
  113OSM    H8G11782   2.567   1.790   9.550  1.6218 -1.8293 -5.3478
  113OSM    C9F11783   2.652   1.942   9.405 -0.4887  0.7981 -0.0130
  113OSM    H9F11784   2.679   2.048   9.413  2.0745  0.1155  1.6894
  113OSM   C10F11785   2.692   1.861   9.301  0.5813 -0.5001  0.5577
  113OSM   H10F11786   2.750   1.905   9.218  0.5141  0.5907  1.0640
  113OSM   C11F11787   2.664   1.713   9.280 -0.2333 -0.6259  0.0114
  113OSM   H11F11788   2.571   1.683   9.333  1.0734 -0.8914  2.2594
  113OSM   H11G11789   2.748   1.652   9.320  1.2483  1.3590  0.0587
  113OSM   C12F11790   2.634   1.680   9.132 -0.4771  0.4028 -0.5468
  113OSM   H12F11791   2.714   1.718   9.065  0.5337 -0.9396 -0.1407
  113OSM   H12G11792   2.537   1.722   9.098 -1.0124 -1.5137 -1.5246
  113OSM   C13F11793   2.611   1.528   9.126  0.1968  0.5412  0.5358
  113OSM   H13F11794   2.528   1.500   9.194 -2.0400  0.7635 -1.9108
  113OSM   H13G11795   2.703   1.474   9.155  1.1906  0.0586 -3.0366
  113OSM   C14F11796   2.574   1.481   8.982 -0.9977  0.0720 -0.8537
  113OSM   H14F11797   2.490   1.546   8.953 -0.1619  2.2530  1.3059
  113OSM   H14G11798   2.543   1.376   9.002 -0.4301  0.2008  0.9237
  113OSM   C15F11799   2.694   1.498   8.890 -0.1924 -0.1794 -0.1698
  113OSM   H15F11800   2.786   1.456   8.936  0.5976 -0.7447 -2.1448
  113OSM   H15G11801   2.721   1.605   8.879  0.7577 -0.4934 -1.1426
  113OSM   C16F11802   2.680   1.429   8.758 -0.0435 -0.0869  0.7308
  113OSM   H16F11803   2.651   1.324   8.781  1.6286 -1.1212 -1.4889
  113OSM   H16G11804   2.778   1.435   8.706 -0.9840  0.3320 -1.1188
  113OSM   C17F11805   2.562   1.488   8.671 -0.0183  0.9377  0.3455
  113OSM   H17F11806   2.565   1.598   8.683  1.2264  0.8023  1.5077
  113OSM   H17G11807   2.459   1.452   8.693 -0.4501  0.9632 -1.4800
  113OSM   C18F11808   2.607   1.448   8.527  0.2747  0.4463 -0.3278
  113OSM   H18F11809   2.705   1.491   8.500  1.6087 -2.6197 -0.7451
  113OSM   H18G11810   2.531   1.482   8.454  0.5738  1.7788 -0.0412
  113OSM   H18H11811   2.624   1.339   8.518  2.0827  0.5468  1.3331
  114OSM      N11812   4.575   1.971  11.203  0.4409  0.1737  0.6492
  114OSM    C1511813   4.595   1.931  11.341 -0.0134  0.0964 -1.0217
  114OSM   H15A11814   4.539   1.847  11.379 -0.2136  1.2572  1.4787
  114OSM   H15B11815   4.565   2.013  11.404  0.8462  1.5827 -2.4583
  114OSM   H15C11816   4.695   1.912  11.377 -0.8409 -1.1888  0.7546
  114OSM    C1411817   4.669   2.089  11.180 -0.0482 -0.3098  0.2444
  114OSM   H14A11818   4.770   2.060  11.152  0.7495  1.5714  0.9920
  114OSM   H14B11819   4.678   2.158  11.263 -0.2037  1.4762 -1.1478
  114OSM   H14C11820   4.621   2.154  11.108  0.7759  1.4374  1.1851
  114OSM    C1311821   4.600   1.861  11.105  0.4871 -0.4763 -0.1696
  114OSM   H13A11822   4.706   1.846  11.087  0.8104  1.8072 -0.4319
  114OSM   H13B11823   4.565   1.884  11.006  0.1332  0.9691  0.2716
  114OSM   H13C11824   4.557   1.765  11.131 -2.1730  0.3164 -1.3698
  114OSM    C1211825   4.427   2.010  11.186  0.6097 -0.3653 -0.0158
  114OSM   H12A11826   4.419   2.105  11.237 -0.8860 -0.1069 -0.6973
  114OSM   H12B11827   4.379   1.938  11.250  0.6314  0.0393  0.4611
  114OSM    C1111828   4.359   2.015  11.046  0.0088 -0.0679 -0.1515
  114OSM   H11A11829   4.250   2.036  11.049 -0.7448 -3.2859 -1.3568
  114OSM   H11B11830   4.369   1.918  10.993 -2.2217 -1.3355  1.5589
  114OSM      P11831   4.379   2.265  10.994 -0.1182 -0.5405 -0.1087
  114OSM    O1311832   4.269   2.278  11.096  0.2512  0.2583  0.3920
  114OSM    O1411833   4.500   2.344  11.018 -0.0673 -0.3293 -0.4227
  114OSM    O1111834   4.334   2.307  10.848 -0.4170  0.0384 -0.3142
  114OSM    O1211835   4.421   2.116  10.965  0.0482 -0.2795 -0.1893
  114OSM    C1S11836   4.416   2.351  10.745 -0.2242  0.3975 -0.1981
  114OSM    H1S11837   4.433   2.263  10.679 -0.3197 -1.5808  2.2583
  114OSM    H1T11838   4.520   2.380  10.770  1.1684 -1.8640 -2.8205
  114OSM     NF11839   4.413   2.458  10.525  0.3152  0.5726 -0.4151
  114OSM    HNF11840   4.491   2.517  10.505  1.0351 -0.2158 -0.0158
  114OSM    C2S11841   4.352   2.463  10.660  0.6932  0.9269 -0.1500
  114OSM    H2S11842   4.246   2.432  10.659  1.4952 -2.0920  0.9238
  114OSM    C3S11843   4.363   2.596  10.728  0.3755  0.1508 -0.7774
  114OSM    H3S11844   4.470   2.624  10.739  0.2265  0.1081  1.0496
  114OSM     O311845   4.324   2.594  10.870 -0.7201 -0.2100  0.1585
  114OSM    HO311846   4.342   2.504  10.901  3.0085  0.2109 -0.3246
  114OSM    C4S11847   4.286   2.700  10.646  0.7562  0.2080 -0.1258
  114OSM    H4S11848   4.355   2.756  10.582 -1.1964  1.4480 -1.2428
  114OSM    C5S11849   4.163   2.757  10.653 -0.1846  0.1168  0.0266
  114OSM    H5S11850   4.093   2.713  10.725 -0.8643 -0.4635 -0.9730
  114OSM    C6S11851   4.107   2.866  10.560  0.5230 -0.1695 -0.0469
  114OSM    H6S11852   4.128   2.962  10.612 -0.0971 -0.5137  0.8871
  114OSM    H6T11853   3.996   2.865  10.552  0.5739 -0.7501 -0.7196
  114OSM    C7S11854   4.176   2.875  10.423  0.0965  0.3372  0.3492
  114OSM    H7S11855   4.281   2.907  10.439 -0.1677  2.1079 -1.0014
  114OSM    H7T11856   4.138   2.959  10.361  2.3141  0.5691 -0.7882
  114OSM    C8S11857   4.174   2.753  10.331  0.2626 -0.1303 -0.0416
  114OSM    H8S11858   4.084   2.767  10.268  1.7932  2.3495 -1.8353
  114OSM    H8T11859   4.153   2.659  10.386 -4.5903  1.0918  0.6130
  114OSM    C9S11860   4.295   2.745  10.238  0.6525 -0.0129 -0.4910
  114OSM    H9S11861   4.375   2.698  10.300  0.5705 -0.9981 -1.1101
  114OSM    H9T11862   4.330   2.837  10.187 -0.3197  0.7167  0.1315
  114OSM   C10S11863   4.277   2.638  10.126  0.3441  0.1142 -0.4411
  114OSM   H10S11864   4.192   2.674  10.064  0.5131 -0.3355 -0.9393
  114OSM   H10T11865   4.254   2.541  10.175  0.4825  1.4186  2.3851
  114OSM   C11S11866   4.392   2.640  10.029 -0.1694 -0.0284 -0.1153
  114OSM   H11S11867   4.395   2.545   9.972 -0.5358 -1.0861  1.5507
  114OSM   H11T11868   4.490   2.651  10.082  0.8477 -0.8803 -1.7337
  114OSM   C12S11869   4.384   2.761   9.931  0.8206  0.3078 -0.0158
  114OSM   H12S11870   4.428   2.852   9.977  4.1486 -1.0693 -0.1948
  114OSM   H12T11871   4.277   2.756   9.901  0.7657 -1.7270  0.3633
  114OSM   C13S11872   4.466   2.752   9.807  0.4710 -0.0874 -0.1048
  114OSM   H13S11873   4.427   2.659   9.762  1.0659 -0.2846 -0.2228
  114OSM   H13T11874   4.573   2.737   9.832  0.0341 -0.4756  1.6424
  114OSM   C14S11875   4.444   2.865   9.705  0.0645 -0.8834 -0.8577
  114OSM   H14S11876   4.470   2.966   9.744  1.3794 -1.3012 -0.6022
  114OSM   H14T11877   4.335   2.868   9.681 -0.0137  0.8472 -0.4118
  114OSM   C15S11878   4.527   2.838   9.583  0.0036  0.0554 -0.3649
  114OSM   H15S11879   4.488   2.744   9.538 -1.7925  1.2880 -1.5631
  114OSM   H15T11880   4.636   2.830   9.598  0.0474  1.0198 -0.1096
  114OSM   C16S11881   4.514   2.949   9.471  0.1319  0.2037  0.4186
  114OSM   H16S11882   4.566   3.034   9.519  0.1724  2.5896 -3.3932
  114OSM   H16T11883   4.407   2.975   9.461 -1.0400 -3.4511  1.6056
  114OSM   C17S11884   4.580   2.911   9.336 -0.6829 -0.4805 -0.1027
  114OSM   H17S11885   4.602   3.003   9.279  0.0766 -0.6689 -0.1204
  114OSM   H17T11886   4.511   2.862   9.264  1.6749 -1.4719 -1.7980
  114OSM   C18S11887   4.715   2.836   9.354  0.1464 -0.2036  0.7603
  114OSM   H18S11888   4.775   2.825   9.261 -0.7392 -3.0343  0.4185
  114OSM   H18T11889   4.701   2.729   9.379 -1.4292  0.1835  1.7559
  114OSM   H18U11890   4.776   2.885   9.433  0.9062  0.2743 -0.1030
  114OSM    C1F11891   4.395   2.355  10.441  0.7925  0.1267  0.4446
  114OSM     OF11892   4.317   2.265  10.462  0.2582  0.0129 -0.7915
  114OSM    C2F11893   4.474   2.360  10.318 -0.8383  0.0332 -0.4841
  114OSM    H2F11894   4.582   2.380  10.338 -1.0013  0.6818 -0.2270
  114OSM    H2G11895   4.449   2.448  10.256  0.3261  1.1566  0.5950
  114OSM    C3F11896   4.471   2.224  10.247  0.5888 -0.3241  0.4788
  114OSM    H3F11897   4.377   2.219  10.188  1.1349  0.7018 -0.5101
  114OSM    H3G11898   4.474   2.140  10.320  2.7619 -1.1860 -0.5004
  114OSM    C4F11899   4.584   2.199  10.143  0.3598  1.0678  0.1362
  114OSM    H4F11900   4.553   2.099  10.105 -0.8486  0.6252  2.1225
  114OSM    H4G11901   4.685   2.187  10.189  0.9910  3.5999 -0.4642
  114OSM    C5F11902   4.586   2.299  10.029 -0.1266  0.4831  0.0942
  114OSM    H5F11903   4.651   2.386  10.055  1.2373 -0.6344  0.5938
  114OSM    H5G11904   4.484   2.335  10.005 -0.1842  0.4674  0.3210
  114OSM    C6F11905   4.653   2.249   9.897 -0.2193 -0.8212 -0.3716
  114OSM    H6F11906   4.589   2.172   9.849 -1.0869 -0.3925  0.0724
  114OSM    H6G11907   4.753   2.206   9.921  0.5489  0.9287 -0.2701
  114OSM    C7F11908   4.674   2.367   9.798  0.1423  0.4758 -0.7104
  114OSM    H7F11909   4.719   2.458   9.843 -1.8274  0.5294  1.3509
  114OSM    H7G11910   4.573   2.402   9.767  0.0868  1.8413  0.8640
  114OSM    C8F11911   4.752   2.324   9.674 -0.5756  0.1758  0.1711
  114OSM    H8F11912   4.746   2.399   9.592 -2.2768 -0.1368 -0.0148
  114OSM    H8G11913   4.694   2.239   9.633 -0.1451  0.7351 -1.6643
  114OSM    C9F11914   4.898   2.279   9.701  0.4205 -0.0966  0.0381
  114OSM    H9F11915   4.913   2.183   9.754  1.9198  0.1250  0.0425
  114OSM   C10F11916   5.008   2.345   9.672 -0.4525  0.7166  0.5484
  114OSM   H10F11917   5.107   2.310   9.704 -0.3141  0.4858 -0.1156
  114OSM   C11F11918   5.022   2.471   9.588  0.4004 -0.0080 -0.3889
  114OSM   H11F11919   5.094   2.530   9.648 -0.4800 -1.7484  2.5885
  114OSM   H11G11920   4.930   2.533   9.581  0.0520 -0.1799  2.0161
  114OSM   C12F11921   5.074   2.453   9.446 -0.3004  0.7608  0.0244
  114OSM   H12F11922   5.034   2.358   9.405 -0.8116  1.0920 -0.2604
  114OSM   H12G11923   5.183   2.431   9.439 -0.7344 -1.2392 -1.4833
  114OSM   C13F11924   5.041   2.568   9.354 -0.1200 -0.6952  0.0299
  114OSM   H13F11925   5.088   2.661   9.392  1.0808 -1.5455  0.6766
  114OSM   H13G11926   4.934   2.589   9.377 -0.0307  1.4179 -1.2315
  114OSM   C14F11927   5.073   2.547   9.207 -0.0409 -0.3579 -0.4361
  114OSM   H14F11928   5.020   2.453   9.180  1.7435 -0.7381 -2.9372
  114OSM   H14G11929   5.179   2.515   9.197 -0.3167 -1.9364  1.2960
  114OSM   C15F11930   5.046   2.656   9.102  0.4603 -0.2471  0.3302
  114OSM   H15F11931   4.935   2.654   9.108  0.2224 -0.6840 -2.5951
  114OSM   H15G11932   5.078   2.624   9.001 -0.0073 -2.2636  0.7920
  114OSM   C16F11933   5.094   2.796   9.145  0.3425 -0.4460 -0.4514
  114OSM   H16F11934   5.197   2.775   9.180 -0.1866 -3.5018 -0.5196
  114OSM   H16G11935   5.035   2.834   9.231 -3.3885 -0.9635 -2.5756
  114OSM   C17F11936   5.088   2.885   9.022  0.0677 -0.3334 -1.0413
  114OSM   H17F11937   4.982   2.907   9.001 -0.9342 -3.2506  0.3441
  114OSM   H17G11938   5.105   2.828   8.928 -2.1759  0.3152 -1.8916
  114OSM   C18F11939   5.179   3.007   9.038  0.0566 -0.3444  0.9398
  114OSM   H18F11940   5.137   3.069   9.121  1.2297 -1.7879  2.7064
  114OSM   H18G11941   5.188   3.064   8.944 -3.1805  0.7168  1.1513
  114OSM   H18H11942   5.278   2.967   9.070  0.4280 -1.7579 -1.7275
  115OSM      N11943   5.162   4.525   5.717 -0.1543  0.0304  0.0320
  115OSM    C1511944   5.277   4.610   5.752  0.0662 -0.0992 -0.8007
  115OSM   H15A11945   5.245   4.713   5.746 -1.6179 -0.2361  2.9379
  115OSM   H15B11946   5.365   4.593   5.692  0.1647  2.9154 -1.6701
  115OSM   H15C11947   5.300   4.596   5.857  2.4518  0.8912 -1.1435
  115OSM    C1411948   5.129   4.549   5.569  1.2087  0.7132 -0.7187
  115OSM   H14A11949   5.216   4.531   5.507  0.8939  1.1638 -1.3010
  115OSM   H14B11950   5.094   4.651   5.559  0.1280  0.4978  0.6163
  115OSM   H14C11951   5.055   4.477   5.540  1.2763  1.0636 -1.8095
  115OSM    C1311952   5.214   4.382   5.721 -0.4629 -0.4679 -0.5142
  115OSM   H13A11953   5.241   4.358   5.823  0.2681 -0.8176 -0.7851
  115OSM   H13B11954   5.301   4.377   5.658 -0.2172  0.8163 -0.2919
  115OSM   H13C11955   5.143   4.310   5.682 -1.2278 -0.6252  1.0993
  115OSM    C1211956   5.044   4.539   5.813  0.1468  0.3487  0.3525
  115OSM   H12A11957   4.967   4.473   5.778  1.0108 -0.1940 -0.5857
  115OSM   H12B11958   5.006   4.639   5.800 -2.5774 -0.2919  2.4492
  115OSM    C1111959   5.073   4.518   5.963  0.2089 -0.9053  0.1646
  115OSM   H11A11960   5.129   4.426   5.990  0.8006  0.1456  2.7596
  115OSM   H11B11961   4.972   4.515   6.009  0.0934  1.8829  0.2444
  115OSM      P11962   5.082   4.764   6.047  0.3578 -0.0587 -0.1328
  115OSM    O1311963   5.178   4.840   6.126  0.4194 -0.5039 -0.5522
  115OSM    O1411964   5.031   4.840   5.928 -0.3809  0.5961  0.1954
  115OSM    O1111965   4.967   4.706   6.136  0.2608  0.5599  0.0782
  115OSM    O1211966   5.152   4.627   6.011  0.2957  0.1831 -0.1192
  115OSM    C1S11967   4.996   4.659   6.268 -0.4140  0.0111  0.0664
  115OSM    H1S11968   5.104   4.658   6.297 -1.4086 -0.7568  4.5859
  115OSM    H1T11969   4.960   4.557   6.295 -1.4451  0.0770 -0.9926
  115OSM     NF11970   4.920   4.680   6.504  0.6532 -0.1466  0.5198
  115OSM    HNF11971   4.833   4.663   6.548 -0.2288  1.3434 -0.5283
  115OSM    C2S11972   4.916   4.749   6.374 -0.0431  0.0331 -1.0433
  115OSM    H2S11973   4.971   4.844   6.391  0.1705 -0.4391  1.3424
  115OSM    C3S11974   4.769   4.793   6.327 -0.5606  0.3650  0.0558
  115OSM    H3S11975   4.712   4.705   6.292 -0.7033  0.4130  0.1644
  115OSM     O311976   4.768   4.883   6.218  0.5332  0.3041 -0.1214
  115OSM    HO311977   4.845   4.856   6.167  0.9154  0.6485  0.2686
  115OSM    C4S11978   4.695   4.858   6.438 -0.0702  0.2726  0.7930
  115OSM    H4S11979   4.686   4.967   6.433  0.1735  0.2746  0.4462
  115OSM    C5S11980   4.610   4.800   6.523 -0.1848 -0.0648 -0.1521
  115OSM    H5S11981   4.577   4.695   6.518  1.7745 -0.7892  1.1346
  115OSM    C6S11982   4.522   4.874   6.621  0.1549  0.2155 -0.6417
  115OSM    H6S11983   4.423   4.824   6.619 -0.0891  0.5469  1.4333
  115OSM    H6T11984   4.502   4.981   6.600 -0.9840 -0.0093 -0.7688
  115OSM    C7S11985   4.566   4.874   6.772  0.4202  0.4720 -0.3629
  115OSM    H7S11986   4.508   4.933   6.845 -0.3708  0.6457 -1.1205
  115OSM    H7T11987   4.668   4.918   6.778  0.8394 -0.6680  1.8467
  115OSM    C8S11988   4.582   4.728   6.815 -0.5741 -0.3670 -0.4518
  115OSM    H8S11989   4.622   4.656   6.741  0.4552 -0.9221  0.6195
  115OSM    H8T11990   4.487   4.681   6.849 -0.9233  0.0121 -0.8806
  115OSM    C9S11991   4.673   4.729   6.941  0.2586  0.2474 -0.5238
  115OSM    H9S11992   4.769   4.781   6.924  0.0392  1.3715  1.3570
  115OSM    H9T11993   4.692   4.621   6.959  0.2986  0.5633  1.5768
  115OSM   C10S11994   4.613   4.790   7.072 -0.1307  0.8500  0.6112
  115OSM   H10S11995   4.514   4.742   7.085  0.4278 -0.1903  1.1153
  115OSM   H10T11996   4.589   4.898   7.061 -1.0879  0.5449 -0.5193
  115OSM   C11S11997   4.699   4.778   7.199 -0.0059 -0.1194 -0.0679
  115OSM   H11S11998   4.777   4.854   7.179 -0.6272  0.4649 -0.3096
  115OSM   H11T11999   4.743   4.676   7.195  0.0381 -0.0732 -0.8168
  115OSM   C12S12000   4.618   4.804   7.325  0.1834 -0.0753 -0.3702
  115OSM   H12S12001   4.517   4.759   7.335  0.4260 -0.5778 -0.1668
  115OSM   H12T12002   4.609   4.915   7.325  0.2035 -0.0445  1.1981
  115OSM   C13S12003   4.689   4.754   7.453 -0.4148 -0.8156 -1.0574
  115OSM   H13S12004   4.769   4.828   7.472 -2.5105  1.0981  1.0104
  115OSM   H13T12005   4.735   4.655   7.433  0.2079 -0.5876 -0.7692
  115OSM   C14S12006   4.597   4.753   7.577  0.6639 -0.0053  0.0514
  115OSM   H14S12007   4.512   4.682   7.562  1.9246 -1.4020 -0.7768
  115OSM   H14T12008   4.557   4.851   7.610  0.0049  1.1110 -3.6012
  115OSM   C15S12009   4.665   4.681   7.694  0.6156  0.7130 -0.2267
  115OSM   H15S12010   4.755   4.743   7.710 -0.0743  1.8174 -0.5375
  115OSM   H15T12011   4.699   4.578   7.670 -0.7645 -0.0021  0.7568
  115OSM   C16S12012   4.573   4.664   7.813 -1.0740  0.0244  0.0283
  115OSM   H16S12013   4.481   4.607   7.787 -1.2011 -0.2056  0.9651
  115OSM   H16T12014   4.535   4.763   7.844 -0.8459 -0.3499  1.5857
  115OSM   C17S12015   4.643   4.605   7.935 -0.1876  0.3680 -1.1167
  115OSM   H17S12016   4.725   4.673   7.967 -0.6652  1.4189 -2.0570
  115OSM   H17T12017   4.691   4.506   7.917 -1.0047 -0.2812  0.1208
  115OSM   C18S12018   4.546   4.604   8.052  0.1539 -0.0681  0.6715
  115OSM   H18S12019   4.590   4.571   8.148 -1.1153  2.3946  2.2090
  115OSM   H18T12020   4.451   4.548   8.040  0.5597 -0.6637  0.2516
  115OSM   H18U12021   4.514   4.710   8.063  0.5386  0.1209  0.0030
  115OSM    C1F12022   5.028   4.645   6.575  0.3177 -0.0648 -0.5798
  115OSM     OF12023   5.141   4.679   6.542 -0.6109  0.4432 -0.2730
  115OSM    C2F12024   5.004   4.563   6.708  0.1808 -1.0184  0.1522
  115OSM    H2F12025   5.070   4.476   6.729  0.5523 -1.1406 -1.4516
  115OSM    H2G12026   4.898   4.531   6.702 -0.2640  0.1590  1.1046
  115OSM    C3F12027   4.999   4.653   6.833  0.3737 -0.4284  0.5272
  115OSM    H3F12028   4.952   4.595   6.915  2.8073 -0.1430  2.2403
  115OSM    H3G12029   4.936   4.743   6.815 -1.6554 -1.8575  0.1783
  115OSM    C4F12030   5.135   4.704   6.881  0.3397  0.5040  0.3591
  115OSM    H4F12031   5.176   4.779   6.811 -2.6911 -0.0902 -2.3012
  115OSM    H4G12032   5.203   4.616   6.889  0.2054  0.4677  1.2216
  115OSM    C5F12033   5.135   4.768   7.020 -0.0969 -0.2954  0.4144
  115OSM    H5F12034   5.067   4.856   7.011 -0.1400 -0.4729 -1.1499
  115OSM    H5G12035   5.228   4.818   7.052 -0.8140  1.8896 -0.7612
  115OSM    C6F12036   5.099   4.675   7.132 -0.1922 -1.3209 -0.1537
  115OSM    H6F12037   5.188   4.608   7.142  1.9204  1.4375  0.8144
  115OSM    H6G12038   5.002   4.623   7.117 -1.7010 -0.0986  3.8957
  115OSM    C7F12039   5.093   4.740   7.267  0.4036 -0.1464 -0.4317
  115OSM    H7F12040   5.014   4.816   7.250 -1.4373 -1.9401 -0.3342
  115OSM    H7G12041   5.186   4.796   7.289 -0.0314  0.2388  0.4951
  115OSM    C8F12042   5.053   4.645   7.376  0.1864  0.3396  0.3140
  115OSM    H8F12043   4.959   4.600   7.337 -0.0940  1.8931 -0.9447
  115OSM    H8G12044   5.014   4.706   7.461  1.4744  0.5116  0.8013
  115OSM    C9F12045   5.162   4.544   7.413 -0.1206 -0.3771  0.1315
  115OSM    H9F12046   5.206   4.488   7.329  2.5989 -1.3894  2.1124
  115OSM   C10F12047   5.218   4.527   7.531  0.1717  0.3503  0.1127
  115OSM   H10F12048   5.285   4.441   7.540  0.5129  0.3246 -2.2225
  115OSM   C11F12049   5.188   4.591   7.667  0.0277  0.2336 -0.1827
  115OSM   H11F12050   5.102   4.661   7.663  0.2747  0.5639  0.1991
  115OSM   H11G12051   5.270   4.660   7.696 -2.9060  3.5249  0.8776
  115OSM   C12F12052   5.173   4.488   7.780  0.0790 -0.2865 -0.3147
  115OSM   H12F12053   5.198   4.542   7.874  1.6755 -1.6998  0.1078
  115OSM   H12G12054   5.254   4.413   7.774  0.9313  0.6649 -1.1605
  115OSM   C13F12055   5.030   4.434   7.786 -0.0114 -1.0187  0.2151
  115OSM   H13F12056   4.995   4.385   7.693 -1.2531  3.3087 -1.8891
  115OSM   H13G12057   4.967   4.523   7.809  1.0191  0.0418 -0.9429
  115OSM   C14F12058   5.016   4.330   7.898  0.5005  0.0742 -0.3835
  115OSM   H14F12059   5.112   4.281   7.924 -0.9334 -1.5101  2.4492
  115OSM   H14G12060   4.945   4.256   7.857 -0.0903  1.9000 -2.8853
  115OSM   C15F12061   4.962   4.381   8.035  0.0444 -0.9673  0.1165
  115OSM   H15F12062   4.863   4.425   8.014  0.4341  0.7041  1.5154
  115OSM   H15G12063   5.042   4.448   8.073  1.3195 -1.1955 -2.0126
  115OSM   C16F12064   4.939   4.280   8.154 -0.3404  0.2628  0.4027
  115OSM   H16F12065   5.030   4.217   8.167  1.0671  1.9506 -0.8240
  115OSM   H16G12066   4.854   4.213   8.127  0.5195 -0.6805 -0.0152
  115OSM   C17F12067   4.913   4.354   8.286 -0.3067  0.1995  0.3459
  115OSM   H17F12068   4.828   4.424   8.275 -1.0152 -0.5936  0.6739
  115OSM   H17G12069   5.007   4.411   8.302 -0.8216  1.1186  0.1201
  115OSM   C18F12070   4.901   4.263   8.401 -0.3737 -0.2862 -0.1505
  115OSM   H18F12071   4.892   4.312   8.501  2.3811 -1.2797  0.6838
  115OSM   H18G12072   4.999   4.211   8.414  0.8088  1.5541 -1.3253
  115OSM   H18H12073   4.823   4.190   8.372 -0.3758 -0.1789 -0.4146
  116OSM      N12074   6.084   2.817   6.155  0.3096 -0.2129 -0.0722
  116OSM    C1512075   6.159   2.753   6.034 -0.4581 -0.2023 -0.2297
  116OSM   H15A12076   6.152   2.646   6.044 -2.0753 -0.1231 -0.2634
  116OSM   H15B12077   6.259   2.788   6.013 -0.4089  0.6205  1.2648
  116OSM   H15C12078   6.103   2.786   5.948 -0.5890  0.5869  0.1470
  116OSM    C1412079   5.955   2.736   6.183  0.0367  0.3371 -0.0253
  116OSM   H14A12080   5.982   2.641   6.227  1.0112 -0.1558 -1.6096
  116OSM   H14B12081   5.903   2.733   6.088  1.2202 -1.5155 -0.6661
  116OSM   H14C12082   5.886   2.793   6.244 -1.0660  0.6794 -1.5269
  116OSM    C1312083   6.170   2.809   6.276 -0.2636 -0.3568  0.0414
  116OSM   H13A12084   6.270   2.844   6.255 -1.4288  3.6236  0.2992
  116OSM   H13B12085   6.194   2.707   6.302  2.2683 -0.2885 -1.6976
  116OSM   H13C12086   6.118   2.847   6.363 -1.1361  1.6088 -1.2687
  116OSM    C1212087   6.064   2.968   6.119 -0.0809  0.4120 -0.2230
  116OSM   H12A12088   6.028   2.970   6.017  1.9382 -0.8102 -1.0222
  116OSM   H12B12089   6.156   3.023   6.127 -1.6670  3.3186 -0.5748
  116OSM    C1112090   5.959   3.044   6.200  0.0971  0.2305 -0.4675
  116OSM   H11A12091   5.960   3.152   6.176 -1.9254  0.4202  0.1036
  116OSM   H11B12092   5.982   3.047   6.308  2.0728  1.7822 -0.8740
  116OSM      P12093   5.708   3.022   6.260  0.0768 -0.1368 -0.7432
  116OSM    O1312094   5.662   3.162   6.242  0.1261 -0.3620  0.1973
  116OSM    O1412095   5.609   2.911   6.254  0.2130  0.2707  0.0362
  116OSM    O1112096   5.775   3.006   6.402 -0.1689 -0.1858  0.2209
  116OSM    O1212097   5.832   2.992   6.164 -0.1117  0.0869 -0.5053
  116OSM    C1S12098   5.701   3.052   6.514  0.3587 -0.6812  0.2746
  116OSM    H1S12099   5.606   2.995   6.527  0.4742 -0.4223  2.8290
  116OSM    H1T12100   5.690   3.163   6.513 -0.5362 -0.6360  3.2659
  116OSM     NF12101   5.685   3.087   6.751  0.1280 -0.0021 -0.0396
  116OSM    HNF12102   5.715   3.179   6.773 -0.8272 -0.5064  4.2203
  116OSM    C2S12103   5.768   3.031   6.652  0.0961  0.5859  0.5990
  116OSM    H2S12104   5.771   2.922   6.675 -4.5513  0.2502  0.7156
  116OSM    C3S12105   5.913   3.084   6.643  0.0046  0.3195 -0.4313
  116OSM    H3S12106   5.906   3.188   6.605  0.4529 -0.2905 -2.3032
  116OSM     O312107   5.995   3.026   6.548  0.1481  0.2730 -0.3280
  116OSM    HO312108   5.940   2.979   6.485  0.7964 -0.1130 -0.6096
  116OSM    C4S12109   5.966   3.064   6.776 -0.5773  0.8303  0.4414
  116OSM    H4S12110   6.007   2.965   6.801 -0.2135  0.3185 -1.9696
  116OSM    C5S12111   5.986   3.158   6.869 -0.4365 -0.5740 -0.7819
  116OSM    H5S12112   5.928   3.251   6.855 -0.3661 -0.6097 -1.3420
  116OSM    C6S12113   6.046   3.152   7.007 -0.0457 -0.3846 -0.4771
  116OSM    H6S12114   6.127   3.228   7.006  0.3002 -0.7518 -1.4363
  116OSM    H6T12115   6.081   3.049   7.029  0.8967 -0.1668 -0.9153
  116OSM    C7S12116   5.948   3.178   7.127 -0.1732  1.0425 -0.2565
  116OSM    H7S12117   5.868   3.101   7.130  0.5678  0.3154  1.5977
  116OSM    H7T12118   5.906   3.281   7.124 -0.8841  0.7484 -0.9563
  116OSM    C8S12119   6.016   3.150   7.266  0.8343  0.3385 -0.6939
  116OSM    H8S12120   5.948   3.169   7.351  0.2994 -0.4949 -0.9208
  116OSM    H8T12121   6.103   3.220   7.269  0.4555  0.9188 -2.1803
  116OSM    C9S12122   6.055   2.999   7.278 -0.1729 -0.2181 -0.1350
  116OSM    H9S12123   6.141   2.981   7.210 -0.8011  1.2668 -1.3927
  116OSM    H9T12124   5.973   2.935   7.239 -0.0644 -1.6020  1.7652
  116OSM   C10S12125   6.082   2.962   7.426  0.0735 -0.5507 -0.8176
  116OSM   H10S12126   6.137   3.050   7.467  3.0595 -1.7081 -2.0682
  116OSM   H10T12127   6.157   2.881   7.437 -0.5150 -0.8942  1.0094
  116OSM   C11S12128   5.955   2.930   7.509  0.2622  0.6290  0.2705
  116OSM   H11S12129   5.895   3.024   7.511 -0.3347  0.2375  1.1232
  116OSM   H11T12130   5.982   2.911   7.615  0.7611 -2.1915 -0.2947
  116OSM   C12S12131   5.874   2.810   7.447 -0.1036  0.1562 -0.2966
  116OSM   H12S12132   5.846   2.823   7.340  0.4258 -0.2535 -0.4898
  116OSM   H12T12133   5.782   2.804   7.509  0.3262 -0.2523  0.3081
  116OSM   C13S12134   5.954   2.677   7.444  1.0306  0.5464 -0.3334
  116OSM   H13S12135   5.983   2.638   7.544 -0.2762 -4.2878 -1.5395
  116OSM   H13T12136   6.041   2.696   7.378  1.6079  2.3983  0.9079
  116OSM   C14S12137   5.875   2.565   7.374  0.1802  0.4913  0.2917
  116OSM   H14S12138   5.942   2.491   7.324  0.5879 -0.8205  2.6631
  116OSM   H14T12139   5.819   2.618   7.294  0.4701  0.0283 -0.2296
  116OSM   C15S12140   5.770   2.496   7.451 -0.2358  0.6418  0.1418
  116OSM   H15S12141   5.701   2.569   7.497  1.5728  1.6245  1.3909
  116OSM   H15T12142   5.820   2.446   7.536  0.7370  3.5120  1.3420
  116OSM   C16S12143   5.694   2.385   7.376  0.6671 -0.1711  0.4294
  116OSM   H16S12144   5.769   2.304   7.363  0.5694 -0.0551 -1.0304
  116OSM   H16T12145   5.671   2.409   7.270  0.7562 -1.6240  0.0543
  116OSM   C17S12146   5.573   2.342   7.450  0.5273 -0.1066 -1.1001
  116OSM   H17S12147   5.566   2.399   7.545 -0.0557  0.5426 -1.5222
  116OSM   H17T12148   5.596   2.237   7.477  2.5367  0.3886 -0.7635
  116OSM   C18S12149   5.435   2.347   7.381 -0.9027 -0.2389 -0.1580
  116OSM   H18S12150   5.416   2.455   7.363 -0.5959  0.0005  0.8486
  116OSM   H18T12151   5.359   2.316   7.455 -0.5220  0.8477  0.7111
  116OSM   H18U12152   5.443   2.288   7.287  1.6991  0.0290 -0.1929
  116OSM    C1F12153   5.572   3.035   6.797 -0.0816  0.4550  0.7475
  116OSM     OF12154   5.541   2.923   6.762 -0.0077 -0.2512  0.2164
  116OSM    C2F12155   5.478   3.122   6.873  0.9151 -0.1590 -0.5788
  116OSM    H2F12156   5.392   3.160   6.813  0.0912 -1.4051 -0.2331
  116OSM    H2G12157   5.533   3.209   6.913 -0.9910  1.5110 -1.3894
  116OSM    C3F12158   5.415   3.061   7.002 -0.2016  0.0175 -0.5657
  116OSM    H3F12159   5.358   2.975   6.959  0.6464 -0.3296 -1.0323
  116OSM    H3G12160   5.348   3.141   7.039  0.8048  1.5352 -1.8720
  116OSM    C4F12161   5.517   3.018   7.113 -0.1936 -0.2759 -0.1308
  116OSM    H4F12162   5.590   2.944   7.076  0.1239 -0.3831  0.6769
  116OSM    H4G12163   5.457   2.969   7.193 -1.7010 -1.1298 -1.7109
  116OSM    C5F12164   5.590   3.142   7.174  0.4684  0.4349  0.4434
  116OSM    H5F12165   5.646   3.209   7.106  1.4797  0.4925  1.3113
  116OSM    H5G12166   5.659   3.099   7.249 -1.3526  1.3976  2.8213
  116OSM    C6F12167   5.498   3.227   7.261  0.3540  0.4530  0.3691
  116OSM    H6F12168   5.404   3.254   7.210  0.5947  1.4896  0.4406
  116OSM    H6G12169   5.552   3.321   7.286 -0.5524  1.3084 -0.8085
  116OSM    C7F12170   5.460   3.155   7.395  0.3291  0.1966 -0.3801
  116OSM    H7F12171   5.519   3.063   7.417  2.4884  1.9852  1.9058
  116OSM    H7G12172   5.350   3.139   7.391  0.7030 -2.7202 -2.7045
  116OSM    C8F12173   5.497   3.246   7.516  0.0141  1.1308  0.4798
  116OSM    H8F12174   5.470   3.347   7.480  1.0820  1.1949 -0.1899
  116OSM    H8G12175   5.605   3.237   7.544  0.8354 -0.2055 -2.6737
  116OSM    C9F12176   5.388   3.212   7.625 -0.5849 -0.0680  0.9881
  116OSM    H9F12177   5.288   3.203   7.580 -1.0892  2.1639  1.5458
  116OSM   C10F12178   5.407   3.197   7.760 -0.1473 -0.6522 -0.1303
  116OSM   H10F12179   5.315   3.188   7.820 -0.1060 -2.3363 -0.2660
  116OSM   C11F12180   5.537   3.205   7.834  0.5442  0.7688  0.2925
  116OSM   H11F12181   5.524   3.274   7.921 -0.3021 -0.1991  0.9642
  116OSM   H11G12182   5.614   3.238   7.761 -0.0532 -0.1825 -0.7952
  116OSM   C12F12183   5.595   3.075   7.900 -0.7366  0.3953  0.2747
  116OSM   H12F12184   5.635   3.006   7.822 -0.8004 -3.0555  3.0252
  116OSM   H12G12185   5.515   3.016   7.949 -0.2218 -1.0974 -0.6161
  116OSM   C13F12186   5.704   3.099   8.006  0.5281 -0.3286  0.5823
  116OSM   H13F12187   5.656   3.149   8.093  1.7893  0.7410  0.6939
  116OSM   H13G12188   5.781   3.168   7.966  0.7322  0.1316  1.7537
  116OSM   C14F12189   5.782   2.976   8.052  0.2162  0.5672 -0.9226
  116OSM   H14F12190   5.826   2.922   7.965  1.1723 -1.2602  0.6371
  116OSM   H14G12191   5.711   2.898   8.087  0.6087 -0.1435 -1.6745
  116OSM   C15F12192   5.889   3.002   8.157  0.3368 -0.3572  0.0825
  116OSM   H15F12193   5.957   3.082   8.121  0.6128 -0.8814 -0.5665
  116OSM   H15G12194   5.940   2.905   8.171 -0.4851 -1.1863 -2.2328
  116OSM   C16F12195   5.827   3.047   8.297 -0.6739  0.1731 -0.4143
  116OSM   H16F12196   5.753   3.130   8.289 -1.6603 -0.3973  1.9598
  116OSM   H16G12197   5.910   3.094   8.354 -0.7056 -0.0988 -0.1431
  116OSM   C17F12198   5.766   2.937   8.386 -0.2486 -0.8036  0.4473
  116OSM   H17F12199   5.846   2.862   8.404  0.2954 -0.1758  0.6918
  116OSM   H17G12200   5.683   2.888   8.329  0.1561  0.4591 -1.3001
  116OSM   C18F12201   5.721   2.995   8.516 -0.0652  0.5689 -0.4775
  116OSM   H18F12202   5.802   3.047   8.572 -0.3160  0.1758  0.2714
  116OSM   H18G12203   5.693   2.914   8.586 -1.0193  0.6977 -0.6966
  116OSM   H18H12204   5.627   3.055   8.509 -1.3147 -1.1121  0.8299
  117OSM      N12205   0.106   6.267   5.659  0.2380 -0.0185 -0.2882
  117OSM    C1512206   0.013   6.233   5.544 -0.1780 -0.0259  0.1024
  117OSM   H15A12207  -0.007   6.128   5.558 -2.1899  0.4029  0.8235
  117OSM   H15B12208   0.074   6.236   5.455  0.8599 -1.1542  0.7555
  117OSM   H15C12209  -0.083   6.283   5.548  0.4200  1.3754 -1.6802
  117OSM    C1412210   0.228   6.180   5.655 -0.1780  0.3838 -0.2666
  117OSM   H14A12211   0.281   6.185   5.561 -1.1387 -2.0682 -0.9989
  117OSM   H14B12212   0.217   6.074   5.668  1.9535  0.2512  0.8510
  117OSM   H14C12213   0.301   6.214   5.727 -0.9400  3.3152 -0.7523
  117OSM    C1312214   0.146   6.409   5.633  0.5667 -0.3232 -0.5304
  117OSM   H13A12215   0.155   6.432   5.528  3.0734 -1.0861 -0.5515
  117OSM   H13B12216   0.230   6.456   5.683  0.5347 -1.4345  0.6149
  117OSM   H13C12217   0.060   6.465   5.667  1.8140  2.4008 -1.5416
  117OSM    C1212218   0.029   6.253   5.795 -0.2443 -0.3197  0.2665
  117OSM   H12A12219  -0.001   6.149   5.802 -2.3031  0.2596  0.8410
  117OSM   H12B12220  -0.064   6.308   5.800  0.6647  1.1628  3.4745
  117OSM    C1112221   0.102   6.300   5.918  0.4497  0.1997  0.5716
  117OSM   H11A12222   0.038   6.299   6.009  1.4365  0.5265  1.2789
  117OSM   H11B12223   0.128   6.406   5.896  0.1707  0.2182  0.3195
  117OSM      P12224   0.344   6.288   6.008 -0.4904 -0.0117 -0.0232
  117OSM    O1312225   0.453   6.185   6.025  0.7665 -0.1856  0.3245
  117OSM    O1412226   0.384   6.408   5.939  0.4953 -0.0880  0.1999
  117OSM    O1112227   0.283   6.321   6.154  0.5074 -0.1944 -0.1309
  117OSM    O1212228   0.213   6.222   5.947  0.1727 -0.1498  0.1597
  117OSM    C1S12229   0.215   6.221   6.231  0.0383  0.3802 -0.4562
  117OSM    H1S12230   0.288   6.144   6.267 -0.8151 -0.2708 -0.0931
  117OSM    H1T12231   0.141   6.153   6.184  0.8624 -1.8939  1.3402
  117OSM     NF12232   0.091   6.163   6.447 -0.5568  0.1794  0.7158
  117OSM    HNF12233  -0.006   6.140   6.450 -1.0917  1.6087 -1.9190
  117OSM    C2S12234   0.144   6.273   6.361 -0.0319  0.0644  0.2922
  117OSM    H2S12235   0.221   6.327   6.421 -2.4975  1.5620  2.3141
  117OSM    C3S12236   0.034   6.377   6.326 -0.2535 -0.4272  0.3645
  117OSM    H3S12237  -0.047   6.324   6.270  0.0289 -0.3622 -0.1140
  117OSM     O312238   0.064   6.483   6.225  0.8436 -0.1577 -0.1598
  117OSM    HO312239   0.150   6.452   6.195  2.3657  1.0424  2.5274
  117OSM    C4S12240  -0.014   6.449   6.448  0.0199 -0.7981 -0.1255
  117OSM    H4S12241   0.062   6.507   6.501  0.2116  1.1613 -2.3365
  117OSM    C5S12242  -0.145   6.456   6.486 -0.6765  0.3744  0.0949
  117OSM    H5S12243  -0.216   6.400   6.424 -0.2104  0.5608 -0.6158
  117OSM    C6S12244  -0.201   6.526   6.606  0.2949 -0.3019  0.7322
  117OSM    H6S12245  -0.298   6.483   6.639  0.0582 -0.0045  0.4337
  117OSM    H6T12246  -0.221   6.632   6.580 -2.5221 -1.1481 -1.1425
  117OSM    C7S12247  -0.110   6.512   6.726 -0.4753 -0.1633 -0.4461
  117OSM    H7S12248  -0.132   6.594   6.798 -3.3984  0.2987 -1.7542
  117OSM    H7T12249  -0.000   6.529   6.715 -0.2666  0.7115  2.3177
  117OSM    C8S12250  -0.120   6.370   6.803 -0.2632 -0.7014  0.9585
  117OSM    H8S12251  -0.107   6.300   6.718  0.5378  1.0004 -0.3849
  117OSM    H8T12252  -0.225   6.362   6.837 -1.0174  2.2710 -0.3643
  117OSM    C9S12253  -0.015   6.351   6.912 -0.2796  0.7229  0.8230
  117OSM    H9S12254   0.086   6.371   6.871 -0.2033  0.1274  0.7048
  117OSM    H9T12255  -0.015   6.245   6.947  1.9527  0.4047  0.0041
  117OSM   C10S12256  -0.030   6.437   7.030  0.9491  0.5007 -0.3520
  117OSM   H10S12257  -0.001   6.544   7.018  0.7065  0.7460  1.0895
  117OSM   H10T12258   0.043   6.398   7.104  2.4922  0.2909 -1.9183
  117OSM   C11S12259  -0.174   6.440   7.092 -0.6732  0.4657  0.1071
  117OSM   H11S12260  -0.215   6.340   7.119  0.7700 -0.2193 -0.1488
  117OSM   H11T12261  -0.247   6.489   7.024 -0.6542 -2.1819 -1.9944
  117OSM   C12S12262  -0.174   6.508   7.222  0.5576 -0.1326  0.5644
  117OSM   H12S12263  -0.282   6.523   7.244  0.9406  1.1666  1.7149
  117OSM   H12T12264  -0.119   6.604   7.228 -1.7312  1.2711  0.2477
  117OSM   C13S12265  -0.122   6.408   7.328 -0.3296 -0.0655  0.6223
  117OSM   H13S12266  -0.013   6.406   7.345 -0.3572 -2.7741  0.9245
  117OSM   H13T12267  -0.141   6.308   7.285  0.4029 -0.1202  0.4117
  117OSM   C14S12268  -0.189   6.417   7.464  0.1744 -0.3392  0.2426
  117OSM   H14S12269  -0.295   6.451   7.470 -0.3263 -2.1459  3.6657
  117OSM   H14T12270  -0.133   6.488   7.529 -0.6971  0.2584  0.3570
  117OSM   C15S12271  -0.197   6.280   7.526  0.1068  0.6320  0.4528
  117OSM   H15S12272  -0.094   6.241   7.543  0.2527  0.7907 -0.0427
  117OSM   H15T12273  -0.245   6.208   7.457  0.3884  1.6557 -0.8359
  117OSM   C16S12274  -0.255   6.275   7.672 -0.4997  0.3100  0.4633
  117OSM   H16S12275  -0.237   6.177   7.719 -0.4374 -0.5718 -1.3092
  117OSM   H16T12276  -0.365   6.290   7.665 -0.5113  0.7329  1.4455
  117OSM   C17S12277  -0.197   6.385   7.777 -0.0236  0.7208 -0.1314
  117OSM   H17S12278  -0.207   6.491   7.745  0.0337  0.9371  0.5370
  117OSM   H17T12279  -0.088   6.362   7.784 -0.0370  0.8981  0.8646
  117OSM   C18S12280  -0.264   6.371   7.922 -0.1737  0.1643 -0.1299
  117OSM   H18S12281  -0.223   6.280   7.971  2.1956  1.5933  0.6831
  117OSM   H18T12282  -0.375   6.370   7.911 -0.2219 -0.7856  0.3065
  117OSM   H18U12283  -0.238   6.460   7.983 -1.7165 -0.0145  0.8382
  117OSM    C1F12284   0.180   6.093   6.524  0.6134  0.0327  0.1620
  117OSM     OF12285   0.300   6.122   6.533 -0.2793  0.7525  0.3653
  117OSM    C2F12286   0.122   5.991   6.618  0.3768  1.0763 -0.6919
  117OSM    H2F12287   0.190   5.904   6.626 -0.8456  0.0583 -1.0434
  117OSM    H2G12288   0.019   5.957   6.592 -0.2458  1.7412  0.7806
  117OSM    C3F12289   0.111   6.043   6.762 -0.0073 -0.3185 -0.2796
  117OSM    H3F12290   0.027   6.116   6.761 -0.5081 -0.7622  2.5146
  117OSM    H3G12291   0.194   6.107   6.799  0.3125  1.4627 -3.6236
  117OSM    C4F12292   0.090   5.934   6.873 -0.0098 -0.6412  0.6045
  117OSM    H4F12293   0.164   5.856   6.843  0.9274 -0.3080  1.9510
  117OSM    H4G12294  -0.011   5.889   6.860 -1.7063  3.2787 -2.0062
  117OSM    C5F12295   0.115   5.994   7.014  0.0118  0.0841  0.1717
  117OSM    H5F12296   0.050   6.083   7.025  1.0418  0.7064  1.6571
  117OSM    H5G12297   0.223   6.020   7.024 -0.0487  0.0991  0.8296
  117OSM    C6F12298   0.086   5.901   7.129 -0.8997 -0.1517 -0.4256
  117OSM    H6F12299   0.150   5.812   7.115  0.1076  0.6769 -1.2621
  117OSM    H6G12300  -0.018   5.863   7.116 -0.3495 -2.0045  0.2990
  117OSM    C7F12301   0.108   5.956   7.268 -0.3229  0.2246 -0.1976
  117OSM    H7F12302   0.042   6.041   7.295  0.3673  0.3598  1.1634
  117OSM    H7G12303   0.212   5.993   7.256 -0.7518  1.2652 -0.8880
  117OSM    C8F12304   0.099   5.856   7.383 -0.2761 -0.5052 -0.4074
  117OSM    H8F12305   0.128   5.907   7.477  0.1277 -3.2929  1.0968
  117OSM    H8G12306   0.182   5.782   7.373  1.6302  1.1383  2.0952
  117OSM    C9F12307  -0.034   5.783   7.386  0.2299 -0.4923  0.1280
  117OSM    H9F12308  -0.063   5.707   7.312  2.5030 -1.3395  0.0214
  117OSM   C10F12309  -0.114   5.793   7.496  0.6427 -0.1760 -0.3581
  117OSM   H10F12310  -0.202   5.727   7.487  0.7882 -0.2849 -1.0697
  117OSM   C11F12311  -0.090   5.881   7.614  0.3857 -0.7797  0.1804
  117OSM   H11F12312  -0.184   5.926   7.654  2.4440  2.4507  1.8001
  117OSM   H11G12313  -0.024   5.964   7.581 -1.7667  1.0308  0.1416
  117OSM   C12F12314  -0.015   5.821   7.738  1.2179  0.1339  0.6284
  117OSM   H12F12315   0.073   5.778   7.686  0.6740  0.9232 -1.0135
  117OSM   H12G12316  -0.081   5.740   7.776  2.3911 -1.6473 -0.9625
  117OSM   C13F12317   0.032   5.932   7.825  0.0537  0.4599  0.6238
  117OSM   H13F12318  -0.043   6.008   7.859  0.9275  0.8480  1.7511
  117OSM   H13G12319   0.097   5.995   7.762  2.5968 -0.6052  2.0403
  117OSM   C14F12320   0.127   5.875   7.939 -0.4974  0.0533  0.0691
  117OSM   H14F12321   0.173   5.958   7.997 -1.3789  2.3868 -2.3637
  117OSM   H14G12322   0.215   5.819   7.903 -1.7003 -2.0799  0.2664
  117OSM   C15F12323   0.045   5.798   8.044  0.4759  0.3696  0.1644
  117OSM   H15F12324  -0.020   5.727   7.989 -0.3636  0.3323  1.1683
  117OSM   H15G12325  -0.029   5.864   8.094  0.8806  0.7894  0.2213
  117OSM   C16F12326   0.124   5.738   8.157 -0.0821 -0.1129  0.5899
  117OSM   H16F12327   0.175   5.816   8.218  1.0677 -0.5720  0.2418
  117OSM   H16G12328   0.206   5.673   8.121  1.5112  3.2827 -2.4001
  117OSM   C17F12329   0.043   5.657   8.260  0.2346  0.0250  0.1265
  117OSM   H17F12330  -0.035   5.732   8.283  0.8506  1.7371 -2.7871
  117OSM   H17G12331   0.001   5.570   8.205  0.4787 -0.3078  0.4611
  117OSM   C18F12332   0.119   5.609   8.385  0.2767 -0.3458  0.1697
  117OSM   H18F12333   0.191   5.528   8.362  0.8080 -0.3486  1.6922
  117OSM   H18G12334   0.051   5.568   8.463 -0.5021 -0.9849 -0.8130
  117OSM   H18H12335   0.183   5.689   8.428  0.5936 -0.5846  0.1487
  118OSM      N12336   3.301   5.023   5.994 -0.5477  1.2330  0.1693
  118OSM    C1512337   3.283   5.125   5.893 -0.0949 -0.4087  0.0471
  118OSM   H15A12338   3.194   5.098   5.837  1.7953 -4.2835 -1.3848
  118OSM   H15B12339   3.358   5.129   5.816 -2.1956  0.5278 -2.0753
  118OSM   H15C12340   3.266   5.222   5.939 -0.5716  0.0158 -0.9854
  118OSM    C1412341   3.195   5.031   6.107 -0.3079 -0.2037 -0.2837
  118OSM   H14A12342   3.198   5.120   6.169 -1.4461 -0.0768 -0.3924
  118OSM   H14B12343   3.209   4.965   6.192  0.2089  1.1766  0.7485
  118OSM   H14C12344   3.095   5.011   6.073 -0.5472 -0.3338  0.4649
  118OSM    C1312345   3.289   4.885   5.932 -0.3887  0.2305 -0.2049
  118OSM   H13A12346   3.347   4.868   5.843 -3.3980 -2.0504 -1.9050
  118OSM   H13B12347   3.190   4.867   5.895 -0.9835  0.6758  1.1016
  118OSM   H13C12348   3.309   4.796   5.990  1.1051  0.6511 -0.0141
  118OSM    C1212349   3.433   5.028   6.056  0.0437 -0.5994 -0.3869
  118OSM   H12A12350   3.509   5.017   5.980  0.2742 -2.3888  0.0437
  118OSM   H12B12351   3.444   4.942   6.121 -0.2283  0.0725  0.5606
  118OSM    C1112352   3.466   5.156   6.139  0.4917  0.6744  0.2569
  118OSM   H11A12353   3.560   5.152   6.199  0.8037 -0.4045 -0.2804
  118OSM   H11B12354   3.382   5.172   6.210 -0.5588 -1.7645 -0.3390
  118OSM      P12355   3.580   5.351   5.995  0.0071  0.2267  0.3225
  118OSM    O1312356   3.655   5.271   5.900  0.1860  0.0574  0.6331
  118OSM    O1412357   3.530   5.482   5.947  0.0464 -0.3310 -0.4505
  118OSM    O1112358   3.671   5.385   6.115 -0.1691  0.7151  0.4689
  118OSM    O1212359   3.460   5.269   6.059  0.4100  0.0277  0.2504
  118OSM    C1S12360   3.633   5.469   6.227 -0.5336  0.0264 -0.0288
  118OSM    H1S12361   3.541   5.531   6.218 -0.4413  0.0289 -1.0316
  118OSM    H1T12362   3.720   5.538   6.235  0.1852 -1.0277  2.0478
  118OSM     NF12363   3.608   5.508   6.469  0.6192  0.2092 -0.2058
  118OSM    HNF12364   3.692   5.521   6.521  0.8390  0.7088 -0.6759
  118OSM    C2S12365   3.621   5.402   6.367 -0.2775  0.5189 -0.4988
  118OSM    H2S12366   3.525   5.346   6.368 -0.1162  0.2361  0.1637
  118OSM    C3S12367   3.734   5.301   6.396  0.2413  0.4130  0.1928
  118OSM    H3S12368   3.828   5.360   6.402 -0.2623  1.2724 -0.2165
  118OSM     O312369   3.760   5.223   6.279  0.0783 -0.1208 -0.1022
  118OSM    HO312370   3.731   5.279   6.207 -0.7738 -0.5121 -0.0835
  118OSM    C4S12371   3.699   5.222   6.516  0.6561 -0.9373 -0.2559
  118OSM    H4S12372   3.716   5.262   6.616 -2.2834 -2.2707  0.9150
  118OSM    C5S12373   3.661   5.092   6.517 -0.5399  0.0179  0.6084
  118OSM    H5S12374   3.640   5.037   6.424 -1.3345 -0.7347  1.2229
  118OSM    C6S12375   3.636   5.007   6.632  0.4548  0.1840  0.4609
  118OSM    H6S12376   3.697   4.913   6.629  2.4031  1.2384  3.1690
  118OSM    H6T12377   3.527   4.990   6.643  0.8397 -1.4215  2.5055
  118OSM    C7S12378   3.684   5.073   6.762 -0.2268 -0.4696 -0.0308
  118OSM    H7S12379   3.629   5.166   6.783  0.4708  0.2368 -1.2066
  118OSM    H7T12380   3.790   5.101   6.746  0.3153 -2.5257 -0.3515
  118OSM    C8S12381   3.662   4.986   6.882 -0.1136  0.7893 -0.3644
  118OSM    H8S12382   3.719   4.891   6.872 -2.5485 -0.7686 -0.4222
  118OSM    H8T12383   3.558   4.945   6.881  0.8334 -1.7947 -1.2349
  118OSM    C9S12384   3.691   5.050   7.021 -0.2430  0.6715  0.0860
  118OSM    H9S12385   3.603   5.116   7.036 -0.8517  0.0226 -0.6197
  118OSM    H9T12386   3.781   5.113   7.002 -0.2699  0.6867  0.0125
  118OSM   C10S12387   3.721   4.954   7.142 -0.3931 -0.1583  0.4573
  118OSM   H10S12388   3.803   4.886   7.111 -1.1031  1.1510 -5.4250
  118OSM   H10T12389   3.631   4.888   7.149  0.0316 -1.0177 -1.4833
  118OSM   C11S12390   3.755   5.035   7.266  0.5525  0.4640 -0.0654
  118OSM   H11S12391   3.672   5.107   7.287  1.7911  2.3169 -1.1565
  118OSM   H11T12392   3.844   5.099   7.250  0.7191  0.7181  1.7712
  118OSM   C12S12393   3.771   4.942   7.387  0.4135  0.5373  0.6619
  118OSM   H12S12394   3.847   4.864   7.364 -1.4335 -0.9213 -0.9194
  118OSM   H12T12395   3.682   4.874   7.392  1.5501 -1.2174 -1.1211
  118OSM   C13S12396   3.789   5.027   7.517  0.7042 -0.9519  0.2233
  118OSM   H13S12397   3.700   5.094   7.519 -0.3690 -2.2605 -1.1879
  118OSM   H13T12398   3.876   5.094   7.501  0.4032 -0.6744 -0.3104
  118OSM   C14S12399   3.808   4.955   7.646 -0.6583  0.2182  0.0766
  118OSM   H14S12400   3.830   5.042   7.711 -2.9428  0.4548  0.6114
  118OSM   H14T12401   3.896   4.889   7.630  0.0547  0.7615  1.5730
  118OSM   C15S12402   3.698   4.879   7.700  0.0129  0.1229  0.3082
  118OSM   H15S12403   3.684   4.789   7.636  0.7658  0.8983 -0.9893
  118OSM   H15T12404   3.605   4.940   7.702  0.9800  1.6378  0.8363
  118OSM   C16S12405   3.735   4.836   7.842 -0.2788 -0.0448  0.3467
  118OSM   H16S12406   3.755   4.918   7.914  0.8676 -1.4207  1.6775
  118OSM   H16T12407   3.831   4.780   7.834 -0.0551  0.5590 -1.7492
  118OSM   C17S12408   3.626   4.744   7.892  0.5817  0.2852  0.4207
  118OSM   H17S12409   3.585   4.683   7.809 -1.5491 -0.0893  1.6585
  118OSM   H17T12410   3.543   4.807   7.929  1.1417  1.0166  0.4383
  118OSM   C18S12411   3.667   4.645   7.999  0.9160  0.2573  0.0342
  118OSM   H18S12412   3.576   4.601   8.046  1.1549  0.9470  1.1968
  118OSM   H18T12413   3.733   4.697   8.072 -0.6456  2.9036 -0.3068
  118OSM   H18U12414   3.730   4.567   7.951  1.0146 -0.7031  1.6341
  118OSM    C1F12415   3.494   5.574   6.479  0.0596 -0.3984 -0.6126
  118OSM     OF12416   3.391   5.549   6.419 -0.4637 -0.4652  0.2775
  118OSM    C2F12417   3.490   5.671   6.598  0.2815  0.2429  0.5332
  118OSM    H2F12418   3.571   5.662   6.674  1.5565  2.4551 -0.4692
  118OSM    H2G12419   3.402   5.639   6.658 -0.8494  0.9411 -0.7116
  118OSM    C3F12420   3.472   5.820   6.568  0.3761  0.6396 -0.1621
  118OSM    H3F12421   3.365   5.840   6.548 -0.0510 -0.3764  0.9410
  118OSM    H3G12422   3.524   5.832   6.471 -0.9832  1.8008 -0.7838
  118OSM    C4F12423   3.522   5.915   6.676 -0.6161 -0.3589 -0.2010
  118OSM    H4F12424   3.524   6.018   6.635 -2.2264 -0.4290 -0.4991
  118OSM    H4G12425   3.626   5.878   6.688 -0.4923  0.2744  0.8548
  118OSM    C5F12426   3.460   5.900   6.819  0.4634  0.6135 -0.1175
  118OSM    H5F12427   3.457   5.791   6.840  1.4751  0.5509 -0.2684
  118OSM    H5G12428   3.355   5.938   6.821  0.0246 -0.5444  1.4993
  118OSM    C6F12429   3.540   5.984   6.917  0.3963 -0.4559  0.0187
  118OSM    H6F12430   3.552   6.092   6.892  2.8062 -1.1212 -2.0599
  118OSM    H6G12431   3.649   5.962   6.920  0.5542  0.2195 -0.6208
  118OSM    C7F12432   3.492   5.975   7.062  0.3442 -0.8309  0.6800
  118OSM    H7F12433   3.462   5.870   7.080 -1.6922 -0.1944  1.2061
  118OSM    H7G12434   3.396   6.030   7.074  0.1625 -1.5745  3.3031
  118OSM    C8F12435   3.591   6.028   7.169 -0.4968  0.5549 -0.9529
  118OSM    H8F12436   3.691   5.982   7.152 -1.6201 -1.8531 -1.4747
  118OSM    H8G12437   3.552   5.985   7.264  0.1687 -0.8947 -1.3086
  118OSM    C9F12438   3.607   6.177   7.175  0.0015  0.3107 -0.1963
  118OSM    H9F12439   3.652   6.223   7.086 -0.6482  0.2235 -0.5776
  118OSM   C10F12440   3.569   6.255   7.282  0.6582  0.7023 -0.0792
  118OSM   H10F12441   3.589   6.363   7.276  0.9386  0.6074 -0.8777
  118OSM   C11F12442   3.504   6.211   7.420  0.5564  0.7711 -0.3345
  118OSM   H11F12443   3.437   6.125   7.402 -0.9959  2.3644 -2.8542
  118OSM   H11G12444   3.446   6.295   7.463 -0.2323  0.3579 -0.5738
  118OSM   C12F12445   3.606   6.182   7.532 -1.1157 -0.3802  0.8915
  118OSM   H12F12446   3.672   6.268   7.556 -0.9386  0.6415 -2.6815
  118OSM   H12G12447   3.677   6.099   7.512 -0.0971  0.5537  0.5229
  118OSM   C13F12448   3.527   6.152   7.660  0.3549  0.2749  0.0791
  118OSM   H13F12449   3.454   6.068   7.646 -0.0342  0.6658 -0.2732
  118OSM   H13G12450   3.462   6.236   7.692  0.3722 -1.2938  5.0809
  118OSM   C14F12451   3.620   6.133   7.781 -0.0133  0.2136 -0.6303
  118OSM   H14F12452   3.568   6.149   7.878  3.7060 -0.3831  1.6611
  118OSM   H14G12453   3.708   6.201   7.783  0.5198 -0.4763  0.2314
  118OSM   C15F12454   3.677   5.982   7.793 -0.6027 -0.5123  0.1259
  118OSM   H15F12455   3.737   5.964   7.702  2.2737  3.5248  0.9373
  118OSM   H15G12456   3.582   5.926   7.785 -0.9077  0.0376 -0.1908
  118OSM   C16F12457   3.754   5.962   7.921 -0.4338 -0.2786  0.2578
  118OSM   H16F12458   3.840   6.033   7.925  0.8679 -1.8231  1.2580
  118OSM   H16G12459   3.800   5.861   7.920  0.5410  0.1357 -1.5229
  118OSM   C17F12460   3.664   5.975   8.048 -1.1869 -0.0977 -0.0259
  118OSM   H17F12461   3.567   5.928   8.021 -0.0834 -2.4191 -0.1637
  118OSM   H17G12462   3.642   6.081   8.070 -1.2358 -0.0343 -0.3755
  118OSM   C18F12463   3.701   5.897   8.178  0.7430  0.2848 -0.6606
  118OSM   H18F12464   3.618   5.917   8.250  2.6692  0.2910  1.6755
  118OSM   H18G12465   3.795   5.934   8.223  1.0118  0.4978 -1.3792
  118OSM   H18H12466   3.708   5.787   8.169 -2.6338 -0.0372 -0.9577
  119OSM      N12467   4.227   0.916   5.917  0.4314  0.2005 -0.8539
  119OSM    C1512468   4.308   1.003   5.826  0.2868 -0.6143  0.5172
  119OSM   H15A12469   4.399   1.043   5.868  0.3423  2.7404 -2.3774
  119OSM   H15B12470   4.248   1.087   5.794  0.7146 -0.3928  0.3049
  119OSM   H15C12471   4.337   0.959   5.732 -0.2125  0.6943 -0.2770
  119OSM    C1412472   4.198   0.990   6.050 -0.0260  0.8378  0.7168
  119OSM   H14A12473   4.139   0.937   6.123 -1.6798  0.0802 -1.0730
  119OSM   H14B12474   4.138   1.073   6.017 -0.1774  0.1710 -0.8161
  119OSM   H14C12475   4.294   1.018   6.090  2.1473 -2.9741 -1.2266
  119OSM    C1312476   4.098   0.874   5.846 -0.1348  0.8793 -0.2500
  119OSM   H13A12477   4.059   0.788   5.898 -0.3769  2.5320  2.5462
  119OSM   H13B12478   4.126   0.837   5.749 -0.4170 -0.5270  0.1805
  119OSM   H13C12479   4.021   0.948   5.830 -0.7055  0.1908 -0.7393
  119OSM    C1212480   4.321   0.795   5.955 -0.0829 -0.2796  0.7898
  119OSM   H12A12481   4.419   0.839   5.965 -0.5974  1.5554 -1.3899
  119OSM   H12B12482   4.332   0.732   5.868 -1.5426 -0.9128  1.0341
  119OSM    C1112483   4.270   0.697   6.065 -0.7928 -0.3266  0.1931
  119OSM   H11A12484   4.247   0.754   6.158  1.0742  1.8701 -0.5676
  119OSM   H11B12485   4.348   0.620   6.084  0.3714  0.8198  0.2386
  119OSM      P12486   4.125   0.499   5.959  0.3558 -0.3600 -0.0518
  119OSM    O1312487   3.985   0.497   5.908 -1.3149  0.0753  0.4906
  119OSM    O1412488   4.228   0.476   5.856  0.2122  0.4672 -0.4374
  119OSM    O1112489   4.139   0.398   6.083  0.5108  0.0725 -0.5620
  119OSM    O1212490   4.144   0.638   6.034  0.0218  0.2461  0.3293
  119OSM    C1S12491   4.065   0.411   6.204  0.8683 -0.6863 -0.1929
  119OSM    H1S12492   3.960   0.397   6.169  0.8214 -0.5372 -0.1157
  119OSM    H1T12493   4.066   0.514   6.246 -0.5683 -1.8776  3.1626
  119OSM     NF12494   4.008   0.300   6.422  0.3038 -1.0680  0.1899
  119OSM    HNF12495   4.009   0.357   6.504  1.2125  1.1950 -1.3129
  119OSM    C2S12496   4.108   0.319   6.322  0.0170 -0.5192  0.3209
  119OSM    H2S12497   4.129   0.221   6.274 -0.9297 -1.0336  0.9343
  119OSM    C3S12498   4.238   0.373   6.383 -0.1122 -0.7955  0.6336
  119OSM    H3S12499   4.222   0.474   6.427  1.2175 -1.3844  2.6307
  119OSM     O312500   4.341   0.404   6.285  0.6364 -0.1102 -0.0763
  119OSM    HO312501   4.295   0.401   6.201  2.0373  1.9542 -1.0013
  119OSM    C4S12502   4.281   0.282   6.494  0.1600 -0.2741  0.1465
  119OSM    H4S12503   4.214   0.302   6.579  0.2044 -1.1609  0.4043
  119OSM    C5S12504   4.370   0.185   6.502 -0.7688 -1.3686 -0.1986
  119OSM    H5S12505   4.424   0.168   6.408  2.4744  0.7972  1.0776
  119OSM    C6S12506   4.407   0.106   6.624  0.8569 -0.1592 -0.2687
  119OSM    H6S12507   4.423  -0.000   6.595  1.8831  0.2793 -1.3831
  119OSM    H6T12508   4.323   0.089   6.695 -0.2899  0.9440 -1.3441
  119OSM    C7S12509   4.527   0.171   6.700  0.6964 -0.1337  0.4545
  119OSM    H7S12510   4.614   0.185   6.633 -0.4295  0.7939 -0.8830
  119OSM    H7T12511   4.555   0.103   6.782  0.7409 -1.5996 -0.7325
  119OSM    C8S12512   4.488   0.308   6.760 -0.2651  0.5847 -0.0708
  119OSM    H8S12513   4.404   0.286   6.829 -0.5804 -0.2098 -0.6848
  119OSM    H8T12514   4.433   0.363   6.681 -2.5076 -0.7955  0.4170
  119OSM    C9S12515   4.595   0.396   6.813 -0.2000 -0.0708 -0.0818
  119OSM    H9S12516   4.565   0.503   6.803  1.0293  0.1655 -1.4658
  119OSM    H9T12517   4.681   0.391   6.744 -0.2013  0.4722 -0.1245
  119OSM   C10S12518   4.647   0.386   6.956 -0.4147 -0.1877  0.1974
  119OSM   H10S12519   4.721   0.468   6.972 -0.5841  0.1071 -0.5255
  119OSM   H10T12520   4.687   0.283   6.952  0.7146  0.1661  1.5827
  119OSM   C11S12521   4.539   0.392   7.064  0.0833 -1.1175  0.3123
  119OSM   H11S12522   4.461   0.317   7.039 -2.6937  1.0791  1.8400
  119OSM   H11T12523   4.481   0.487   7.057 -1.4156 -2.0755 -1.2884
  119OSM   C12S12524   4.591   0.354   7.202 -0.5365 -0.5300  0.3870
  119OSM   H12S12525   4.667   0.428   7.235 -4.0794  1.8278  4.2461
  119OSM   H12T12526   4.626   0.249   7.211 -0.9181 -0.6867  0.0616
  119OSM   C13S12527   4.491   0.381   7.313  0.1697 -0.0865 -0.3406
  119OSM   H13S12528   4.402   0.314   7.305 -0.3668  0.2800  1.8092
  119OSM   H13T12529   4.443   0.481   7.309 -0.2660 -0.1834  1.3981
  119OSM   C14S12530   4.539   0.393   7.458  0.2503 -0.0018  0.0261
  119OSM   H14S12531   4.586   0.494   7.457 -1.4317  0.9102  2.8171
  119OSM   H14T12532   4.612   0.312   7.477 -0.1182 -0.2820  0.2577
  119OSM   C15S12533   4.417   0.394   7.559  0.2975 -0.0032  0.6279
  119OSM   H15S12534   4.365   0.297   7.545  1.7835 -0.8571  0.8299
  119OSM   H15T12535   4.346   0.470   7.521  0.7033 -0.0183 -0.1790
  119OSM   C16S12536   4.446   0.405   7.704 -0.9356 -0.3896  0.0804
  119OSM   H16S12537   4.523   0.331   7.734 -1.2475  0.9915  5.3594
  119OSM   H16T12538   4.357   0.378   7.765 -1.9455 -0.1764 -1.2588
  119OSM   C17S12539   4.506   0.543   7.746 -0.2266 -0.1676 -0.4071
  119OSM   H17S12540   4.419   0.612   7.735  1.6828  2.2211 -1.5011
  119OSM   H17T12541   4.577   0.570   7.664  0.5892 -0.9749  0.0142
  119OSM   C18S12542   4.576   0.558   7.880  0.6357 -0.1063 -0.3111
  119OSM   H18S12543   4.671   0.500   7.882  0.8656  0.1989 -1.6433
  119OSM   H18T12544   4.504   0.524   7.958 -0.7451  0.6968 -1.1946
  119OSM   H18U12545   4.598   0.666   7.893 -0.9721  0.2837 -0.6432
  119OSM    C1F12546   3.891   0.242   6.400  0.0269  0.5598 -0.5663
  119OSM     OF12547   3.859   0.192   6.292  0.2021 -0.2852  0.7141
  119OSM    C2F12548   3.789   0.253   6.519 -0.5276  0.7482  0.4477
  119OSM    H2F12549   3.695   0.283   6.466 -0.4059  2.2400  1.0108
  119OSM    H2G12550   3.820   0.332   6.592  1.5262  0.1742  0.2429
  119OSM    C3F12551   3.760   0.121   6.595  0.5454  0.2010  0.0553
  119OSM    H3F12552   3.737   0.042   6.520 -1.4262  0.7648  0.0061
  119OSM    H3G12553   3.677   0.141   6.666  0.4382 -0.1865  0.0381
  119OSM    C4F12554   3.882   0.066   6.680  1.3865  0.5472  0.1654
  119OSM    H4F12555   3.975   0.066   6.620  1.7817  1.2989  0.7556
  119OSM    H4G12556   3.854  -0.038   6.709  1.9890  0.3633  0.0952
  119OSM    C5F12557   3.911   0.152   6.802  0.3431  0.1025  0.0634
  119OSM    H5F12558   3.829   0.156   6.878  0.0402 -1.2790 -0.1659
  119OSM    H5G12559   3.929   0.256   6.768 -3.0686  1.4357  1.7909
  119OSM    C6F12560   4.025   0.087   6.886  1.1655 -0.2715 -0.3009
  119OSM    H6F12561   4.110   0.090   6.814  1.4745  3.1031  0.0090
  119OSM    H6G12562   4.003  -0.020   6.904  1.5136 -0.3502 -0.3315
  119OSM    C7F12563   4.065   0.155   7.016  0.2672  0.1935 -0.2052
  119OSM    H7F12564   3.989   0.121   7.090  2.3392  0.3095  2.1202
  119OSM    H7G12565   4.056   0.265   7.003 -1.1730  0.0362 -0.7119
  119OSM    C8F12566   4.186   0.086   7.083  0.2647 -0.0661 -0.1535
  119OSM    H8F12567   4.277   0.111   7.023  0.5367 -0.2937  0.1658
  119OSM    H8G12568   4.162  -0.022   7.076 -0.3641  0.0980 -0.6889
  119OSM    C9F12569   4.202   0.156   7.219 -0.1290  0.1722  0.3354
  119OSM    H9F12570   4.206   0.266   7.221  1.3012  0.1550 -0.0641
  119OSM   C10F12571   4.204   0.100   7.338 -0.5139  0.2751 -0.4286
  119OSM   H10F12572   4.207   0.168   7.424 -1.5287  1.2007 -1.1079
  119OSM   C11F12573   4.197  -0.042   7.381 -0.2819 -0.8522  0.0206
  119OSM   H11F12574   4.243  -0.101   7.300  1.3684 -1.9661  1.6759
  119OSM   H11G12575   4.088  -0.061   7.395 -0.5075  0.6908  0.6273
  119OSM   C12F12576   4.280  -0.072   7.506  0.3621 -0.0164  0.2781
  119OSM   H12F12577   4.390  -0.055   7.501  0.2215  1.0989  0.7957
  119OSM   H12G12578   4.265  -0.181   7.522  0.3144 -0.1034 -0.3368
  119OSM   C13F12579   4.226   0.003   7.634 -0.1481 -0.0167  0.1653
  119OSM   H13F12580   4.115   0.001   7.641 -0.1498  1.6023  1.2117
  119OSM   H13G12581   4.257   0.110   7.623  0.2733 -0.0958  0.5902
  119OSM   C14F12582   4.291  -0.060   7.760  0.7357  0.8153  0.0747
  119OSM   H14F12583   4.400  -0.079   7.769  0.7399  1.7745  2.9579
  119OSM   H14G12584   4.241  -0.159   7.767  0.9866  0.5388 -1.6313
  119OSM   C15F12585   4.265   0.018   7.890  0.7435 -0.1823  0.3837
  119OSM   H15F12586   4.155   0.015   7.899  0.7253 -0.1028  0.1994
  119OSM   H15G12587   4.304   0.122   7.876  3.1230 -0.9449  0.8026
  119OSM   C16F12588   4.336  -0.035   8.017 -0.1136  0.4861  0.2555
  119OSM   H16F12589   4.277   0.008   8.101  0.0623 -2.3072  1.9208
  119OSM   H16G12590   4.440   0.003   8.009 -0.3470  0.9944 -0.5938
  119OSM   C17F12591   4.336  -0.188   8.024 -0.5307 -0.2567 -0.4275
  119OSM   H17F12592   4.400  -0.229   7.943  0.2030 -0.1763  0.1015
  119OSM   H17G12593   4.231  -0.224   8.013 -0.5250 -2.1078  3.5668
  119OSM   C18F12594   4.400  -0.240   8.162 -0.0566  0.4215 -0.5250
  119OSM   H18F12595   4.506  -0.210   8.148 -0.6494  2.9346 -0.1947
  119OSM   H18G12596   4.366  -0.346   8.168 -1.6069  0.7237 -2.7255
  119OSM   H18H12597   4.362  -0.187   8.252 -0.1981  0.2360 -0.4755
  120OSM      N12598   2.428   5.175   6.158  0.7191  0.2301 -0.2173
  120OSM    C1512599   2.498   5.076   6.077 -1.0904  0.0423 -0.1095
  120OSM   H15A12600   2.602   5.105   6.086 -0.9895 -0.1302 -0.6893
  120OSM   H15B12601   2.470   5.072   5.973  0.9054  2.5683 -0.8596
  120OSM   H15C12602   2.488   4.973   6.109 -1.2289 -0.5516 -1.9315
  120OSM    C1412603   2.453   5.299   6.077 -0.1405 -0.6610  0.4871
  120OSM   H14A12604   2.555   5.328   6.098 -0.3600 -0.6824  1.6495
  120OSM   H14B12605   2.389   5.381   6.107  0.1760 -0.3020  0.1949
  120OSM   H14C12606   2.422   5.280   5.976 -1.7762 -1.7061  1.1361
  120OSM    C1312607   2.280   5.142   6.161  0.1703 -0.2487  0.7285
  120OSM   H13A12608   2.256   5.046   6.204 -0.8490 -0.3572 -0.0442
  120OSM   H13B12609   2.238   5.149   6.062 -0.6600  0.4218  1.1151
  120OSM   H13C12610   2.221   5.212   6.219  1.0661  0.1165  1.2087
  120OSM    C1212611   2.492   5.160   6.296  0.0838 -0.2541 -0.3450
  120OSM   H12A12612   2.515   5.056   6.314  1.4341  0.1924  0.7096
  120OSM   H12B12613   2.417   5.187   6.368 -1.3235 -3.1420 -0.5741
  120OSM    C1112614   2.626   5.247   6.317  0.1205 -0.1191 -0.4021
  120OSM   H11A12615   2.662   5.229   6.421 -0.7371  2.2889  0.3877
  120OSM   H11B12616   2.596   5.354   6.320  0.4307 -0.0497  1.2560
  120OSM      P12617   2.841   5.112   6.223 -0.0425  0.5958 -0.4536
  120OSM    O1312618   2.773   4.985   6.250 -0.0312  0.2621 -0.5135
  120OSM    O1412619   2.913   5.127   6.095 -0.2370  0.5183 -0.7281
  120OSM    O1112620   2.929   5.154   6.346  0.2838  0.5499 -0.2760
  120OSM    O1212621   2.726   5.221   6.219 -0.3489 -0.0082 -0.0012
  120OSM    C1S12622   2.993   5.279   6.343 -0.4458  0.5406  0.2424
  120OSM    H1S12623   2.922   5.362   6.321  0.3742  0.6471 -2.2215
  120OSM    H1T12624   3.067   5.283   6.261 -1.0874 -0.4709 -0.4027
  120OSM     NF12625   3.117   5.457   6.458  0.4728 -0.0095 -0.1287
  120OSM    HNF12626   3.206   5.487   6.427  0.5594 -0.4842 -0.3406
  120OSM    C2S12627   3.084   5.313   6.460  0.1272  0.7432  0.4030
  120OSM    H2S12628   3.023   5.306   6.553 -0.2925  0.8137  0.1346
  120OSM    C3S12629   3.204   5.207   6.470  1.0955  1.2370  0.2843
  120OSM    H3S12630   3.268   5.208   6.380  1.3553 -1.7087  0.3285
  120OSM     O312631   3.163   5.064   6.455  0.5164 -0.2109 -0.3160
  120OSM    HO312632   3.068   5.066   6.447  0.4707 -2.6332 -1.1683
  120OSM    C4S12633   3.283   5.234   6.598  0.0094  0.1590  0.2469
  120OSM    H4S12634   3.380   5.280   6.576  0.2192 -1.6524 -3.2512
  120OSM    C5S12635   3.259   5.190   6.724 -0.6859  0.2849 -0.0851
  120OSM    H5S12636   3.169   5.127   6.733 -0.3231 -0.2281  0.0207
  120OSM    C6S12637   3.334   5.222   6.857  0.7489  0.7145  1.0557
  120OSM    H6S12638   3.417   5.148   6.853 -1.1520 -1.4949 -0.9638
  120OSM    H6T12639   3.270   5.202   6.945  0.8548  1.0461  1.2081
  120OSM    C7S12640   3.378   5.369   6.857  0.4894  0.1098  0.4214
  120OSM    H7S12641   3.286   5.431   6.858 -1.2533 -2.1802 -2.1648
  120OSM    H7T12642   3.427   5.403   6.763 -2.1350  2.0166 -0.3680
  120OSM    C8S12643   3.476   5.409   6.965  0.0605 -0.3700  0.5431
  120OSM    H8S12644   3.487   5.519   6.955 -1.4153 -0.1948  0.6980
  120OSM    H8T12645   3.574   5.364   6.936  0.6796  1.9627 -1.2822
  120OSM    C9S12646   3.434   5.375   7.108 -0.7910  0.7115  0.2286
  120OSM    H9S12647   3.446   5.265   7.101  1.1052  0.9759 -1.7825
  120OSM    H9T12648   3.332   5.411   7.134 -0.2239  1.2930  1.7194
  120OSM   C10S12649   3.530   5.432   7.215 -0.1887 -0.3149 -0.3743
  120OSM   H10S12650   3.516   5.542   7.220  0.4687 -0.2939  3.3019
  120OSM   H10T12651   3.632   5.391   7.198 -0.2110 -0.0580 -1.1577
  120OSM   C11S12652   3.487   5.362   7.344 -0.2820  0.2370 -0.7622
  120OSM   H11S12653   3.471   5.252   7.337 -0.9165  0.1347  1.6071
  120OSM   H11T12654   3.391   5.410   7.370  0.6339  1.3279  0.7492
  120OSM   C12S12655   3.585   5.378   7.459 -1.0585  0.9017  0.2189
  120OSM   H12S12656   3.598   5.488   7.473  3.3367  0.9080 -2.2283
  120OSM   H12T12657   3.685   5.343   7.424 -1.5444 -0.2390 -0.0662
  120OSM   C13S12658   3.535   5.323   7.592  0.3982  0.1185 -0.1386
  120OSM   H13S12659   3.504   5.216   7.584  0.6329 -0.4608  4.3109
  120OSM   H13T12660   3.448   5.380   7.630  0.7208 -1.0355  2.5917
  120OSM   C14S12661   3.638   5.338   7.709  0.2245 -0.2508  0.8832
  120OSM   H14S12662   3.649   5.447   7.725 -0.1681  0.0261 -0.5442
  120OSM   H14T12663   3.735   5.286   7.697  1.1785  1.7048 -0.3541
  120OSM   C15S12664   3.570   5.279   7.830  0.0899  0.3948 -0.5531
  120OSM   H15S12665   3.548   5.171   7.820 -1.1098  0.4259  1.3838
  120OSM   H15T12666   3.473   5.328   7.854  0.7111 -0.0224  3.3604
  120OSM   C16S12667   3.652   5.296   7.959 -0.1930 -0.8637 -0.3870
  120OSM   H16S12668   3.662   5.397   8.005 -0.3638 -0.9792 -0.0884
  120OSM   H16T12669   3.755   5.261   7.942  0.3529  0.7559 -0.6087
  120OSM   C17S12670   3.590   5.211   8.066  0.1256  0.2695 -0.2909
  120OSM   H17S12671   3.643   5.246   8.157 -0.2415  0.6761 -0.2305
  120OSM   H17T12672   3.618   5.105   8.047  4.2559  1.0523  0.4034
  120OSM   C18S12673   3.441   5.223   8.077 -0.4183 -0.8153 -0.5312
  120OSM   H18S12674   3.418   5.332   8.081  1.4330  0.0123 -5.4238
  120OSM   H18T12675   3.404   5.173   8.169 -0.0121  0.7363  0.5129
  120OSM   H18U12676   3.400   5.183   7.982 -1.2447  0.8441 -0.9053
  120OSM    C1F12677   3.025   5.550   6.493 -0.7576 -0.1407  0.0051
  120OSM     OF12678   2.912   5.519   6.527  0.3212 -0.4641  0.5145
  120OSM    C2F12679   3.072   5.689   6.490 -0.7371 -0.0049  0.2380
  120OSM    H2F12680   3.014   5.746   6.413 -1.6318  0.7629  1.4417
  120OSM    H2G12681   3.181   5.691   6.467 -0.6529 -0.6823  0.5820
  120OSM    C3F12682   3.059   5.757   6.622  0.1804  0.0648  0.0118
  120OSM    H3F12683   2.950   5.764   6.643  0.0211 -2.5833  0.3709
  120OSM    H3G12684   3.091   5.864   6.620 -3.0833  1.1383 -1.1555
  120OSM    C4F12685   3.126   5.691   6.746 -0.3957 -0.0165  0.5168
  120OSM    H4F12686   3.232   5.725   6.746 -0.8790  1.6127 -0.2626
  120OSM    H4G12687   3.100   5.584   6.748  2.6251 -0.9264 -1.4977
  120OSM    C5F12688   3.072   5.744   6.876 -0.2795  0.1549 -0.9156
  120OSM    H5F12689   2.964   5.730   6.901 -0.4978  0.3999 -1.7040
  120OSM    H5G12690   3.095   5.853   6.878  0.3416  0.0291  1.0690
  120OSM    C6F12691   3.139   5.692   7.002 -0.5368 -0.3113  0.2632
  120OSM    H6F12692   3.247   5.690   6.979 -0.7447 -1.1373 -0.7539
  120OSM    H6G12693   3.110   5.585   7.013 -0.6207 -0.1325  1.9073
  120OSM    C7F12694   3.097   5.768   7.128 -0.9515 -0.3866 -0.2535
  120OSM    H7F12695   2.988   5.788   7.132 -0.4448  2.5807  1.1504
  120OSM    H7G12696   3.146   5.867   7.120  0.5109 -1.1300 -0.8297
  120OSM    C8F12697   3.143   5.708   7.258  0.0204  1.0312  0.5120
  120OSM    H8F12698   3.250   5.679   7.263 -0.0689  0.8682  1.8733
  120OSM    H8G12699   3.091   5.613   7.283  2.6372 -0.4094  0.7450
  120OSM    C9F12700   3.123   5.794   7.377 -0.1315 -0.7724 -0.3190
  120OSM    H9F12701   3.044   5.871   7.378  1.5899  1.0969  0.7452
  120OSM   C10F12702   3.218   5.801   7.476 -0.0939  0.6352 -0.2786
  120OSM   H10F12703   3.183   5.859   7.563 -0.7708 -0.0474 -0.0899
  120OSM   C11F12704   3.332   5.711   7.495 -0.9900 -0.4363 -1.2642
  120OSM   H11F12705   3.410   5.716   7.417  1.4961 -2.4520  0.8812
  120OSM   H11G12706   3.297   5.605   7.490  0.0689 -0.7705 -1.9018
  120OSM   C12F12707   3.402   5.726   7.630 -0.2697  0.1262 -0.2232
  120OSM   H12F12708   3.441   5.830   7.638  0.7572 -0.0529 -2.2501
  120OSM   H12G12709   3.493   5.663   7.621  0.4321  1.0903 -0.0880
  120OSM   C13F12710   3.321   5.674   7.745  0.1449  0.2933 -0.6165
  120OSM   H13F12711   3.304   5.566   7.726 -2.1098  0.4284  0.2678
  120OSM   H13G12712   3.223   5.728   7.748  0.6259  1.1299  0.5637
  120OSM   C14F12713   3.393   5.711   7.874 -0.0399  0.3928  0.0237
  120OSM   H14F12714   3.402   5.821   7.866 -1.8545  0.4583 -1.8872
  120OSM   H14G12715   3.494   5.665   7.887 -0.2617  0.4387  2.3671
  120OSM   C15F12716   3.304   5.659   7.988 -0.7061  0.1244 -0.3143
  120OSM   H15F12717   3.317   5.549   7.989 -0.0989  0.1855  0.9896
  120OSM   H15G12718   3.198   5.693   7.980 -0.6486  0.0018 -1.7848
  120OSM   C16F12719   3.356   5.706   8.136  0.5969  0.3326  0.1692
  120OSM   H16F12720   3.382   5.814   8.142  2.0903  0.1480 -2.0385
  120OSM   H16G12721   3.453   5.652   8.142 -0.0142 -0.8035 -0.0500
  120OSM   C17F12722   3.267   5.663   8.248 -0.5905 -0.0619  0.6803
  120OSM   H17F12723   3.223   5.564   8.224  1.7614 -0.7127 -1.2925
  120OSM   H17G12724   3.172   5.721   8.250 -0.8376 -0.4577  2.0879
  120OSM   C18F12725   3.347   5.671   8.387  0.4164 -0.1508  0.3298
  120OSM   H18F12726   3.438   5.610   8.368 -0.4462 -0.5517 -3.2363
  120OSM   H18G12727   3.283   5.627   8.467 -1.0668  1.6756  0.2025
  120OSM   H18H12728   3.363   5.778   8.408 -1.4906  0.5134 -1.3218
  121OSM      N12729   5.457   5.317   5.883 -0.1550  0.4940  0.1087
  121OSM    C1512730   5.327   5.329   5.807  0.5834  0.3347 -0.3857
  121OSM   H15A12731   5.272   5.236   5.811 -0.6057  1.0404  0.5019
  121OSM   H15B12732   5.362   5.348   5.707  0.1228  1.4778 -0.3425
  121OSM   H15C12733   5.273   5.412   5.850  0.9100  1.1147 -1.4402
  121OSM    C1412734   5.445   5.211   5.980  0.0185  0.0782  0.3715
  121OSM   H14A12735   5.533   5.166   6.023 -0.2827  0.0623  0.9771
  121OSM   H14B12736   5.391   5.129   5.934  1.3209  0.7945 -2.7021
  121OSM   H14C12737   5.393   5.256   6.063  0.8508  0.7824  0.5260
  121OSM    C1312738   5.558   5.278   5.780 -0.1255 -0.1847  0.5674
  121OSM   H13A12739   5.576   5.351   5.703 -0.1945  0.1006  0.8196
  121OSM   H13B12740   5.524   5.183   5.743 -1.0956  0.4035 -0.1078
  121OSM   H13C12741   5.649   5.254   5.832 -1.5066 -1.8615  2.3838
  121OSM    C1212742   5.495   5.453   5.946 -0.5864 -0.7795  0.2894
  121OSM   H12A12743   5.485   5.516   5.858 -0.2501 -2.0419 -0.6808
  121OSM   H12B12744   5.597   5.452   5.980  0.2413 -1.4070 -2.0161
  121OSM    C1112745   5.410   5.496   6.063 -0.1340 -0.3396  0.4291
  121OSM   H11A12746   5.460   5.591   6.092 -2.7121  1.3331 -0.2064
  121OSM   H11B12747   5.424   5.426   6.148  2.5252  0.7470  0.9770
  121OSM      P12748   5.204   5.647   6.037  0.2089 -0.2695  0.1952
  121OSM    O1312749   5.256   5.737   5.927 -0.1653  0.2161 -0.3433
  121OSM    O1412750   5.061   5.625   6.047 -0.2664 -0.0949 -0.3379
  121OSM    O1112751   5.252   5.696   6.175 -0.0459 -0.7454  0.4565
  121OSM    O1212752   5.276   5.512   6.022  0.3971  0.2594 -0.4267
  121OSM    C1S12753   5.222   5.638   6.302 -0.4903 -0.1791 -0.2655
  121OSM    H1S12754   5.224   5.527   6.303  1.0703 -0.1869  1.2554
  121OSM    H1T12755   5.117   5.654   6.333 -0.7612 -1.7093 -0.2995
  121OSM     NF12756   5.272   5.609   6.546 -0.2565  0.5715  0.1733
  121OSM    HNF12757   5.256   5.664   6.627 -0.2946  0.5506  0.1799
  121OSM    C2S12758   5.315   5.676   6.426  0.0698  0.3849 -0.6111
  121OSM    H2S12759   5.417   5.636   6.412  0.2950  0.3001  1.0729
  121OSM    C3S12760   5.320   5.835   6.447 -0.1532  0.3821  0.3181
  121OSM    H3S12761   5.220   5.860   6.489 -0.0865 -0.3311  0.9308
  121OSM     O312762   5.340   5.912   6.328 -0.3658  0.6903  0.4494
  121OSM    HO312763   5.328   5.847   6.259 -0.3516 -0.6148  1.6400
  121OSM    C4S12764   5.423   5.871   6.550 -0.3376 -0.4683 -0.2723
  121OSM    H4S12765   5.366   5.864   6.644  0.2077 -1.4332  0.0002
  121OSM    C5S12766   5.555   5.913   6.541 -0.7919 -0.0686  0.9987
  121OSM    H5S12767   5.605   5.920   6.443 -1.9126  0.6959  0.4514
  121OSM    C6S12768   5.645   5.957   6.651  0.9435  0.1008 -0.6876
  121OSM    H6S12769   5.708   6.036   6.605 -0.4697  1.0057 -1.1286
  121OSM    H6T12770   5.713   5.875   6.682  0.0196  0.4967  2.7748
  121OSM    C7S12771   5.573   6.015   6.776 -0.2410 -0.1605  1.0828
  121OSM    H7S12772   5.482   6.073   6.751  0.2563 -0.1473 -0.8400
  121OSM    H7T12773   5.637   6.096   6.818  0.7299  0.2862 -1.1216
  121OSM    C8S12774   5.545   5.906   6.884  0.1000 -0.7542  1.0497
  121OSM    H8S12775   5.649   5.866   6.888  0.3445 -0.6374 -1.9102
  121OSM    H8T12776   5.472   5.833   6.842 -0.9931  0.2086  1.2183
  121OSM    C9S12777   5.495   5.948   7.017  0.7190  0.3940 -0.3280
  121OSM    H9S12778   5.401   6.006   7.005 -0.3006 -1.3364 -1.0674
  121OSM    H9T12779   5.569   6.017   7.062  1.1993 -1.1494  1.3700
  121OSM   C10S12780   5.475   5.830   7.115 -0.1113 -0.8207  0.5217
  121OSM   H10S12781   5.577   5.788   7.130  0.4742  0.4804  0.3334
  121OSM   H10T12782   5.416   5.746   7.072 -1.2495 -1.1347  2.6013
  121OSM   C11S12783   5.405   5.875   7.239  0.4374 -0.0931 -0.4650
  121OSM   H11S12784   5.302   5.908   7.213  0.6730 -0.6875 -2.3541
  121OSM   H11T12785   5.451   5.969   7.277 -2.3848  2.0369 -1.8637
  121OSM   C12S12786   5.399   5.758   7.337  0.6433 -0.3992  0.5380
  121OSM   H12S12787   5.487   5.690   7.340  1.4018  0.4537 -1.0794
  121OSM   H12T12788   5.318   5.696   7.294 -1.0113  1.9649  0.0422
  121OSM   C13S12789   5.356   5.805   7.473 -0.2173 -0.0678 -0.1850
  121OSM   H13S12790   5.248   5.831   7.470 -0.2816 -0.3518 -0.4364
  121OSM   H13T12791   5.419   5.890   7.505 -1.2769  1.1479 -1.2171
  121OSM   C14S12792   5.360   5.701   7.578  0.0882  0.1043 -0.3134
  121OSM   H14S12793   5.456   5.645   7.580 -0.3729 -0.7747  2.8717
  121OSM   H14T12794   5.278   5.631   7.554  0.0780  0.8477 -2.7057
  121OSM   C15S12795   5.358   5.759   7.722  0.1241  0.0370 -0.2258
  121OSM   H15S12796   5.283   5.840   7.731 -0.5745 -0.7730  1.7725
  121OSM   H15T12797   5.460   5.799   7.737 -0.2790  0.5840  1.2898
  121OSM   C16S12798   5.335   5.653   7.827 -0.3918 -0.1515 -0.0221
  121OSM   H16S12799   5.409   5.572   7.812 -1.3661 -0.8924 -0.9645
  121OSM   H16T12800   5.244   5.594   7.807  0.5863 -1.9492  0.6271
  121OSM   C17S12801   5.334   5.694   7.972 -0.3202 -0.0494 -0.3385
  121OSM   H17S12802   5.309   5.608   8.039 -2.5042 -0.1009 -1.1743
  121OSM   H17T12803   5.246   5.759   7.990  0.7557  1.0918  1.0614
  121OSM   C18S12804   5.463   5.766   8.025 -0.3011  0.2404 -0.2492
  121OSM   H18S12805   5.492   5.844   7.951  2.0817 -0.2147  0.1285
  121OSM   H18T12806   5.544   5.692   8.036 -0.4425  0.2969  1.3352
  121OSM   H18U12807   5.445   5.823   8.119  1.2739  0.3177  0.0338
  121OSM    C1F12808   5.278   5.479   6.554 -0.6407 -0.9974  0.8396
  121OSM     OF12809   5.331   5.411   6.466  0.0568  0.0647 -0.2174
  121OSM    C2F12810   5.235   5.416   6.677  0.0706 -0.0786 -0.3957
  121OSM    H2F12811   5.187   5.316   6.666 -0.0903  0.0301 -0.6925
  121OSM    H2G12812   5.159   5.479   6.728 -0.1390 -2.1035  1.9946
  121OSM    C3F12813   5.361   5.402   6.763 -0.5553  0.9406 -0.1238
  121OSM    H3F12814   5.408   5.502   6.777  0.6012  0.1437  2.3006
  121OSM    H3G12815   5.429   5.338   6.703 -2.1092 -1.9569  1.0472
  121OSM    C4F12816   5.324   5.331   6.897  0.3738 -0.2659  0.8244
  121OSM    H4F12817   5.284   5.228   6.882 -0.8542  0.0508  1.7720
  121OSM    H4G12818   5.244   5.396   6.938  0.5827  0.8740 -0.4952
  121OSM    C5F12819   5.442   5.310   6.995  0.4403 -0.0722  0.2439
  121OSM    H5F12820   5.501   5.401   7.014  2.3694 -1.4743  1.3282
  121OSM    H5G12821   5.511   5.243   6.939  1.3365 -0.2466  1.5251
  121OSM    C6F12822   5.413   5.250   7.131 -0.6296  0.1985 -0.2277
  121OSM    H6F12823   5.505   5.201   7.168  0.2994  2.4469  0.6508
  121OSM    H6G12824   5.344   5.164   7.121  1.0811 -1.1009 -1.4936
  121OSM    C7F12825   5.377   5.352   7.236  0.6543 -0.0060  0.5096
  121OSM    H7F12826   5.296   5.421   7.204  2.1952  2.1789  1.0940
  121OSM    H7G12827   5.467   5.417   7.244 -0.1493  1.2498 -0.2901
  121OSM    C8F12828   5.337   5.290   7.368  0.1631  0.0908 -0.7615
  121OSM    H8F12829   5.339   5.378   7.436  2.1690  0.3530 -1.1165
  121OSM    H8G12830   5.424   5.229   7.401  1.2866  1.1718 -1.6681
  121OSM    C9F12831   5.205   5.211   7.369 -0.1556 -0.3290  0.2842
  121OSM    H9F12832   5.151   5.204   7.273  0.0003  2.2496 -0.0726
  121OSM   C10F12833   5.153   5.157   7.477 -0.7467  0.5287 -0.1818
  121OSM   H10F12834   5.057   5.106   7.464 -0.3446  0.0796 -1.5600
  121OSM   C11F12835   5.218   5.156   7.614  0.1111 -0.2866  0.3494
  121OSM   H11F12836   5.329   5.153   7.615  0.1905  0.4786  3.1530
  121OSM   H11G12837   5.205   5.056   7.661 -0.0623  0.8702  2.9578
  121OSM   C12F12838   5.170   5.267   7.710  0.6148  0.3026 -0.3789
  121OSM   H12F12839   5.176   5.365   7.658 -0.5661  1.1068  0.9260
  121OSM   H12G12840   5.251   5.273   7.786 -0.8399  1.4518  1.1551
  121OSM   C13F12841   5.029   5.252   7.760  0.4082  0.3227 -0.6644
  121OSM   H13F12842   4.961   5.248   7.673  0.5044  2.6321 -0.8901
  121OSM   H13G12843   5.003   5.345   7.815 -0.0562 -0.9920  1.4945
  121OSM   C14F12844   4.994   5.132   7.853 -0.2896  0.5083  0.1008
  121OSM   H14F12845   5.002   5.038   7.794  0.0641  1.6328 -1.7257
  121OSM   H14G12846   4.887   5.151   7.876 -0.2224  2.8831 -1.2254
  121OSM   C15F12847   5.066   5.132   7.987 -0.1378  0.1979 -0.3724
  121OSM   H15F12848   5.054   5.238   8.020 -0.2913  0.1496 -0.2753
  121OSM   H15G12849   5.172   5.101   7.976 -0.2880 -0.0749 -1.0662
  121OSM   C16F12850   4.998   5.046   8.090  0.2784 -0.0905  0.6551
  121OSM   H16F12851   4.888   5.063   8.093  0.1190 -0.9334 -0.0076
  121OSM   H16G12852   5.044   5.067   8.189  1.0838 -1.2802  0.5542
  121OSM   C17F12853   5.023   4.897   8.063 -0.2885 -0.0275 -0.1689
  121OSM   H17F12854   5.133   4.883   8.052 -0.1514  1.2124 -0.5926
  121OSM   H17G12855   4.979   4.883   7.962 -1.6547  4.1292 -0.3501
  121OSM   C18F12856   4.960   4.799   8.154 -0.1437 -0.3853  0.3782
  121OSM   H18F12857   4.851   4.806   8.131  0.3642  1.9454 -1.7744
  121OSM   H18G12858   4.972   4.828   8.261  1.4517 -0.4242  0.2371
  121OSM   H18H12859   4.995   4.696   8.136  1.3217 -0.1686  1.7435
  122OSM      N12860   1.346   0.122   5.943  0.0379  0.5865  0.0484
  122OSM    C1512861   1.480   0.098   6.012 -0.6203  0.1479  0.0494
  122OSM   H15A12862   1.490   0.143   6.110 -0.3703 -0.6110  0.3737
  122OSM   H15B12863   1.557   0.137   5.946  0.5450 -2.0390  0.0472
  122OSM   H15C12864   1.497  -0.007   6.029  0.8443  0.4597  0.7097
  122OSM    C1412865   1.334   0.038   5.817  0.3620  0.0561  1.0560
  122OSM   H14A12866   1.233   0.020   5.783  1.6229 -1.1135 -2.4222
  122OSM   H14B12867   1.365  -0.061   5.846 -2.6092 -1.0558  0.7230
  122OSM   H14C12868   1.401   0.068   5.738  0.8827 -0.9297  1.1070
  122OSM    C1312869   1.226   0.085   6.033 -0.5919  0.0146  0.0255
  122OSM   H13A12870   1.217  -0.018   6.063 -1.8674 -0.0121 -0.4085
  122OSM   H13B12871   1.132   0.102   5.984 -1.5215 -3.6788  0.2035
  122OSM   H13C12872   1.227   0.147   6.121  0.0192  0.1291 -0.0532
  122OSM    C1212873   1.334   0.278   5.917  0.2799  0.6896 -0.2078
  122OSM   H12A12874   1.246   0.296   5.857 -0.4914 -0.6599  0.4918
  122OSM   H12B12875   1.408   0.306   5.843 -0.0301  0.1393 -0.7390
  122OSM    C1112876   1.321   0.383   6.032  0.1699 -0.8630  0.6450
  122OSM   H11A12877   1.239   0.352   6.099 -2.9744  2.0307 -1.5541
  122OSM   H11B12878   1.289   0.477   5.983  0.3685 -0.7809  0.6693
  122OSM      P12879   1.573   0.481   6.021  0.2451 -0.3575 -0.2308
  122OSM    O1312880   1.607   0.415   5.894 -0.5164  0.5633  0.2153
  122OSM    O1412881   1.516   0.621   6.014 -0.5537 -0.8670  0.0225
  122OSM    O1112882   1.700   0.473   6.116  0.3785 -0.0027  0.5009
  122OSM    O1212883   1.455   0.400   6.091  0.7672 -0.2809 -0.0027
  122OSM    C1S12884   1.685   0.534   6.245  0.2749 -0.0550  0.0669
  122OSM    H1S12885   1.583   0.574   6.260  0.9655  1.2331  1.5446
  122OSM    H1T12886   1.741   0.629   6.255  1.0751 -0.6367  1.2734
  122OSM     NF12887   1.699   0.521   6.486 -0.0614  0.3603 -0.8993
  122OSM    HNF12888   1.776   0.580   6.511  1.0491 -2.2736  2.8303
  122OSM    C2S12889   1.726   0.444   6.363  0.3570 -0.1855 -0.7466
  122OSM    H2S12890   1.654   0.359   6.357  1.4874 -1.1489 -0.8979
  122OSM    C3S12891   1.872   0.398   6.352  0.7072 -0.2301 -0.3727
  122OSM    H3S12892   1.930   0.492   6.366 -1.4166  1.2379 -0.8379
  122OSM     O312893   1.907   0.347   6.226  0.3678  0.1831  0.1629
  122OSM    HO312894   1.839   0.380   6.167 -0.1277 -0.2345  0.4971
  122OSM    C4S12895   1.904   0.309   6.466  0.5368 -0.1201 -0.4867
  122OSM    H4S12896   1.930   0.367   6.556 -0.3124  1.3316 -1.1406
  122OSM    C5S12897   1.891   0.176   6.471  0.9891 -0.0859 -0.2287
  122OSM    H5S12898   1.854   0.112   6.390 -2.2430 -5.1103  4.5193
  122OSM    C6S12899   1.904   0.094   6.597 -0.9102  0.0208  0.4406
  122OSM    H6S12900   2.003   0.044   6.592 -0.4609  0.7596  1.5301
  122OSM    H6T12901   1.826   0.015   6.587 -0.0849 -0.6866 -0.5397
  122OSM    C7S12902   1.899   0.172   6.729 -0.2318  0.4226 -0.3779
  122OSM    H7S12903   1.806   0.232   6.724  0.3701  1.4341  0.0442
  122OSM    H7T12904   1.975   0.254   6.728 -1.5714  1.8539 -4.2704
  122OSM    C8S12905   1.884   0.076   6.855  0.4862  0.4029  0.3675
  122OSM    H8S12906   1.943  -0.014   6.827 -2.8830 -2.0709  0.6606
  122OSM    H8T12907   1.781   0.038   6.865  0.9684 -0.7834  1.0010
  122OSM    C9S12908   1.936   0.128   6.988  0.3315 -1.1582  0.6218
  122OSM    H9S12909   2.035   0.178   6.986  0.0321 -0.5563  0.6702
  122OSM    H9T12910   1.938   0.039   7.055  1.1147  0.0863  2.3226
  122OSM   C10S12911   1.835   0.238   7.052 -0.4510  0.2360  0.2981
  122OSM   H10S12912   1.735   0.193   7.033 -0.9100  0.6871  1.5876
  122OSM   H10T12913   1.852   0.338   7.006  0.7329  0.6631  1.5943
  122OSM   C11S12914   1.849   0.257   7.205 -0.0018 -0.4963 -0.6174
  122OSM   H11S12915   1.769   0.330   7.232 -1.4737 -1.2384 -2.7170
  122OSM   H11T12916   1.948   0.306   7.217  0.9649 -2.0925 -1.6666
  122OSM   C12S12917   1.853   0.133   7.295  0.5449  0.2616  0.3278
  122OSM   H12S12918   1.941   0.072   7.267 -1.7563 -4.3660  2.1459
  122OSM   H12T12919   1.764   0.070   7.278  1.8891 -1.8830  0.8048
  122OSM   C13S12920   1.851   0.174   7.444  0.3279  0.0263 -0.0193
  122OSM   H13S12921   1.782   0.261   7.447 -0.3017 -0.3719 -1.7774
  122OSM   H13T12922   1.940   0.233   7.475 -0.4630  1.7816 -0.9473
  122OSM   C14S12923   1.827   0.051   7.530  0.6775 -0.6354 -1.0806
  122OSM   H14S12924   1.899  -0.030   7.507 -0.5047 -2.4251  1.0572
  122OSM   H14T12925   1.725   0.014   7.508 -1.4538  2.2032  2.6953
  122OSM   C15S12926   1.841   0.074   7.680  0.7552  0.3897  0.2785
  122OSM   H15S12927   1.742   0.109   7.715  0.1395 -0.7934 -0.1988
  122OSM   H15T12928   1.922   0.147   7.698  1.1814  0.1254 -0.5090
  122OSM   C16S12929   1.877  -0.047   7.769 -0.4181  0.7390  0.0037
  122OSM   H16S12930   1.965  -0.089   7.715 -1.2516 -0.2641 -0.6168
  122OSM   H16T12931   1.790  -0.116   7.761  0.6869 -0.5371 -1.8173
  122OSM   C17S12932   1.908  -0.016   7.915 -0.3461  0.3593 -0.0003
  122OSM   H17S12933   1.987   0.060   7.897 -0.7971  1.2562  1.6239
  122OSM   H17T12934   1.947  -0.106   7.968 -1.3833 -0.3011 -0.3316
  122OSM   C18S12935   1.792   0.041   8.003  0.1763 -0.1277  0.2240
  122OSM   H18S12936   1.740  -0.044   8.051 -2.7367  1.4536  0.0826
  122OSM   H18T12937   1.726   0.095   7.932  0.8481  0.1892 -0.1706
  122OSM   H18U12938   1.828   0.120   8.072 -1.6260  0.2155  0.8395
  122OSM    C1F12939   1.580   0.538   6.539  0.0485 -0.0433  0.1125
  122OSM     OF12940   1.476   0.499   6.487  0.1129 -0.9080  0.0307
  122OSM    C2F12941   1.573   0.604   6.677  0.0860  0.4246 -0.4260
  122OSM    H2F12942   1.527   0.704   6.664 -1.3308 -0.0681  0.5187
  122OSM    H2G12943   1.675   0.625   6.714 -0.5112  3.4581 -0.2632
  122OSM    C3F12944   1.506   0.514   6.786 -0.1782  0.3065  0.2103
  122OSM    H3F12945   1.556   0.415   6.781 -0.2320  0.2757  0.2828
  122OSM    H3G12946   1.401   0.499   6.755 -0.6743 -1.7099  2.5482
  122OSM    C4F12947   1.527   0.563   6.930 -0.3774 -0.6922 -0.3532
  122OSM    H4F12948   1.477   0.662   6.930 -1.2910 -1.1411 -0.5680
  122OSM    H4G12949   1.636   0.576   6.949  0.4523 -3.6176 -2.3126
  122OSM    C5F12950   1.463   0.472   7.016 -0.1552 -0.1351  0.1595
  122OSM    H5F12951   1.504   0.371   6.995  2.2333  0.6615  0.7278
  122OSM    H5G12952   1.353   0.475   7.001 -0.5527  0.8611  2.7892
  122OSM    C6F12953   1.484   0.493   7.164 -0.1698  0.2905 -0.1168
  122OSM    H6F12954   1.466   0.600   7.187 -2.2072 -0.2539  1.0713
  122OSM    H6G12955   1.588   0.459   7.183 -0.5960 -2.2406 -1.7775
  122OSM    C7F12956   1.380   0.404   7.236 -0.1920  0.0079  0.6698
  122OSM    H7F12957   1.417   0.300   7.223 -2.2680 -0.8942  1.5192
  122OSM    H7G12958   1.285   0.417   7.181 -0.7020  0.1943  1.5655
  122OSM    C8F12959   1.361   0.441   7.382  0.3998  0.4051 -0.6007
  122OSM    H8F12960   1.266   0.399   7.421  0.4760  1.0894  0.3532
  122OSM    H8G12961   1.365   0.552   7.386  1.0199  0.3625  0.3399
  122OSM    C9F12962   1.459   0.390   7.480 -0.1993 -0.8092 -0.0051
  122OSM    H9F12963   1.539   0.332   7.431  1.3258 -0.2387  1.6933
  122OSM   C10F12964   1.441   0.381   7.613 -0.1573 -0.3317 -0.5138
  122OSM   H10F12965   1.521   0.344   7.678 -0.8605 -1.5497 -0.3086
  122OSM   C11F12966   1.313   0.420   7.687  0.4173  0.5550 -0.1225
  122OSM   H11F12967   1.219   0.425   7.627 -1.3738  1.4029  2.5736
  122OSM   H11G12968   1.340   0.524   7.718  1.5652 -0.2057  1.5771
  122OSM   C12F12969   1.293   0.342   7.814  0.1902  0.0209 -0.0420
  122OSM   H12F12970   1.269   0.235   7.798  0.7421 -0.1990  0.5528
  122OSM   H12G12971   1.205   0.386   7.867 -1.6160 -2.6277 -0.6165
  122OSM   C13F12972   1.409   0.357   7.916  0.2800  0.6455  0.0701
  122OSM   H13F12973   1.439   0.464   7.920 -1.7742  1.2361  0.5604
  122OSM   H13G12974   1.499   0.297   7.892  0.5115  1.5791 -1.5324
  122OSM   C14F12975   1.367   0.317   8.063  0.3873  0.2283  0.5935
  122OSM   H14F12976   1.326   0.215   8.074 -1.2265  0.8348  0.5524
  122OSM   H14G12977   1.298   0.392   8.107  0.4532  0.6538 -0.0132
  122OSM   C15F12978   1.490   0.318   8.149 -0.0177 -0.0679 -0.3968
  122OSM   H15F12979   1.545   0.409   8.117 -1.3051 -0.1468 -3.1154
  122OSM   H15G12980   1.540   0.221   8.132 -1.1768 -1.1810  2.0122
  122OSM   C16F12981   1.470   0.328   8.304  0.1650 -0.1933  0.4174
  122OSM   H16F12982   1.542   0.265   8.362  0.0669  0.0480  0.8068
  122OSM   H16G12983   1.365   0.297   8.321  0.2688 -1.3221 -0.8427
  122OSM   C17F12984   1.490   0.469   8.362 -0.1057 -0.3963 -0.2874
  122OSM   H17F12985   1.597   0.496   8.354 -0.0701 -0.8794 -1.8794
  122OSM   H17G12986   1.461   0.456   8.468 -1.0023  1.4992 -0.2703
  122OSM   C18F12987   1.402   0.580   8.307 -0.2034  0.6284  0.4605
  122OSM   H18F12988   1.421   0.611   8.202  1.0054 -1.3953  0.0304
  122OSM   H18G12989   1.386   0.659   8.383  0.2829 -0.4973  1.7655
  122OSM   H18H12990   1.300   0.538   8.293  0.7732 -1.7455 -0.0028
  123OSM      N12991   0.771   4.620   5.984  0.0162  0.2690  0.0305
  123OSM    C1512992   0.695   4.492   6.021  0.9134  0.3151 -0.2737
  123OSM   H15A12993   0.745   4.399   5.998 -2.1664 -1.9197  1.4323
  123OSM   H15B12994   0.599   4.483   5.972  0.8986 -0.1783 -0.1542
  123OSM   H15C12995   0.680   4.482   6.127  3.2215  1.0740  0.1825
  123OSM    C1412996   0.799   4.630   5.838  0.8237  0.0353 -0.4234
  123OSM   H14A12997   0.849   4.722   5.813  0.0290  0.3651 -0.8494
  123OSM   H14B12998   0.704   4.620   5.787 -1.4619  1.6860  3.0756
  123OSM   H14C12999   0.872   4.556   5.809  0.4955 -0.7265  0.6411
  123OSM    C1313000   0.699   4.746   6.036  0.8323 -0.0155  0.4397
  123OSM   H13A13001   0.695   4.737   6.144  2.0506 -2.0430  0.3663
  123OSM   H13B13002   0.599   4.757   5.995  0.7200 -0.5726  0.5512
  123OSM   H13C13003   0.755   4.833   6.008  0.1819 -0.2353 -1.7248
  123OSM    C1213004   0.911   4.621   6.049  0.3731  0.2545 -0.2044
  123OSM   H12A13005   0.963   4.709   6.014  1.0874 -0.8632 -2.1258
  123OSM   H12B13006   0.966   4.535   6.015  3.0976  0.6956  2.6388
  123OSM    C1113007   0.937   4.606   6.205  0.6864 -0.4325 -0.2851
  123OSM   H11A13008   0.877   4.691   6.243  2.6381  1.7475 -1.8136
  123OSM   H11B13009   1.041   4.631   6.237 -0.5205  2.1816  1.9711
  123OSM      P13010   0.977   4.354   6.231 -0.0112 -0.0267  0.0373
  123OSM    O1313011   0.902   4.233   6.257  0.1215 -0.1156  0.1468
  123OSM    O1413012   1.061   4.361   6.113 -0.1081  0.7973  0.5094
  123OSM    O1113013   1.080   4.372   6.356 -0.4655  0.4954 -0.2867
  123OSM    O1213014   0.883   4.485   6.243 -0.7187  0.1540 -0.4508
  123OSM    C1S13015   1.020   4.398   6.487 -0.3849 -0.1076  1.3472
  123OSM    H1S13016   0.926   4.456   6.480 -0.4602 -0.2272  1.3600
  123OSM    H1T13017   1.095   4.458   6.543  2.1007 -1.4459 -0.3281
  123OSM     NF13018   0.913   4.308   6.682 -0.1423  0.3389 -0.0945
  123OSM    HNF13019   0.970   4.297   6.763  2.0088 -3.6851 -1.8186
  123OSM    C2S13020   0.975   4.266   6.558 -0.1796  0.4582  0.1452
  123OSM    H2S13021   0.900   4.209   6.500  1.1608 -0.6335 -0.5611
  123OSM    C3S13022   1.099   4.171   6.581  0.3491  0.4866 -0.4030
  123OSM    H3S13023   1.168   4.209   6.660  0.1620 -1.1813  0.6160
  123OSM     O313024   1.179   4.159   6.465  0.3197 -0.5352  0.0203
  123OSM    HO313025   1.151   4.233   6.411 -0.4067 -0.8653 -0.0658
  123OSM    C4S13026   1.054   4.038   6.625  0.0004 -0.0884 -0.1601
  123OSM    H4S13027   1.014   3.965   6.552 -0.9133 -0.8566  1.0593
  123OSM    C5S13028   1.045   3.995   6.754  0.0440  0.5233  0.1847
  123OSM    H5S13029   1.074   4.058   6.839 -2.8644  0.3224  1.4448
  123OSM    C6S13030   0.999   3.857   6.793 -0.6830 -0.4120  0.5181
  123OSM    H6S13031   1.069   3.815   6.869 -0.5905  1.1870  1.3600
  123OSM    H6T13032   1.011   3.794   6.702  1.0671  0.5607  0.0215
  123OSM    C7S13033   0.857   3.854   6.849 -0.0843 -0.3827  0.1976
  123OSM    H7S13034   0.827   3.750   6.874  0.1334 -0.3268  0.6962
  123OSM    H7T13035   0.782   3.885   6.773  0.8813 -1.2553 -1.1463
  123OSM    C8S13036   0.831   3.935   6.982  0.1544  0.0418 -0.3254
  123OSM    H8S13037   0.850   4.044   6.968  2.5585  0.0074  1.8552
  123OSM    H8T13038   0.909   3.893   7.049 -0.2758 -0.0682  0.1110
  123OSM    C9S13039   0.696   3.919   7.057  0.0293  0.2601  0.5985
  123OSM    H9S13040   0.708   3.813   7.088 -0.5922 -0.4834 -1.4794
  123OSM    H9T13041   0.624   3.925   6.972 -0.6559  2.0913  1.2504
  123OSM   C10S13042   0.678   4.005   7.178  0.1342  0.3204  0.0896
  123OSM   H10S13043   0.572   3.984   7.203 -0.1313  0.8071 -0.5961
  123OSM   H10T13044   0.701   4.111   7.152 -0.9184  0.9276  1.5135
  123OSM   C11S13045   0.763   3.967   7.293 -0.5735  0.4054 -0.4993
  123OSM   H11S13046   0.874   3.968   7.287 -0.4462  0.7533  1.5347
  123OSM   H11T13047   0.723   3.864   7.302 -1.3306  0.6196 -1.2549
  123OSM   C12S13048   0.738   4.045   7.417 -0.0217  0.6338 -0.1274
  123OSM   H12S13049   0.633   4.041   7.450 -0.0651  2.5010  0.0869
  123OSM   H12T13050   0.767   4.153   7.416  1.0168  0.3683 -1.0236
  123OSM   C13S13051   0.813   3.980   7.533 -0.1262  0.3961 -0.2282
  123OSM   H13S13052   0.922   3.996   7.517 -0.4800  1.3288 -2.0244
  123OSM   H13T13053   0.778   3.876   7.549  2.3292 -0.8658 -2.2981
  123OSM   C14S13054   0.781   4.050   7.666 -0.3566  0.7076  0.3341
  123OSM   H14S13055   0.674   4.041   7.695 -0.4456  3.0448  0.9854
  123OSM   H14T13056   0.811   4.157   7.663  1.1631  0.4089  2.3046
  123OSM   C15S13057   0.864   3.989   7.780  1.1803  0.0867 -0.9373
  123OSM   H15S13058   0.971   4.016   7.781  1.9457 -2.6326 -0.9664
  123OSM   H15T13059   0.854   3.879   7.772  1.4403  0.0621 -0.9169
  123OSM   C16S13060   0.803   4.039   7.913 -0.7342 -0.0488 -0.3118
  123OSM   H16S13061   0.693   4.036   7.923 -0.6231  1.5464  2.4516
  123OSM   H16T13062   0.813   4.149   7.906 -0.2088 -0.1837 -2.7120
  123OSM   C17S13063   0.874   3.989   8.044  0.5739 -0.3335 -0.1771
  123OSM   H17S13064   0.823   4.045   8.125  1.8553  2.2535 -1.0471
  123OSM   H17T13065   0.979   4.025   8.035  0.9810 -1.6269 -0.8381
  123OSM   C18S13066   0.878   3.837   8.061  0.1647 -0.3106  0.3101
  123OSM   H18S13067   0.777   3.793   8.056 -0.1848  0.5946 -2.1180
  123OSM   H18T13068   0.938   3.824   8.154  0.3999  1.2612  0.4094
  123OSM   H18U13069   0.928   3.790   7.974 -2.6242 -0.5194 -1.3065
  123OSM    C1F13070   0.804   4.374   6.685  0.0880  0.4453  0.3620
  123OSM     OF13071   0.721   4.363   6.594  0.5471 -0.6260  0.2901
  123OSM    C2F13072   0.776   4.466   6.801  1.2172  0.1725  0.1225
  123OSM    H2F13073   0.708   4.544   6.760  0.8415  0.1455  0.6941
  123OSM    H2G13074   0.874   4.509   6.831  0.0051  2.0985  1.5180
  123OSM    C3F13075   0.712   4.389   6.919  0.2813  0.0905  0.5875
  123OSM    H3F13076   0.765   4.295   6.946  1.8437  1.1253  1.3011
  123OSM    H3G13077   0.610   4.362   6.884  0.9736 -0.4603 -1.1124
  123OSM    C4F13078   0.695   4.458   7.051  0.8531 -0.1468  0.3120
  123OSM    H4F13079   0.799   4.488   7.075  0.7934  0.2643  0.0654
  123OSM    H4G13080   0.665   4.391   7.134 -1.6027  1.8959  1.2100
  123OSM    C5F13081   0.609   4.583   7.042  0.5833 -0.4231  0.2094
  123OSM    H5F13082   0.527   4.579   6.966  1.0649 -0.3691 -0.3194
  123OSM    H5G13083   0.663   4.678   7.023 -0.4612  0.2153  0.3872
  123OSM    C6F13084   0.522   4.603   7.170 -0.0434 -0.1289  0.0200
  123OSM    H6F13085   0.446   4.521   7.169 -0.8250  0.5802  0.2903
  123OSM    H6G13086   0.446   4.684   7.163 -0.0725 -0.1489  0.1047
  123OSM    C7F13087   0.593   4.595   7.304  0.6743  0.1094 -0.1535
  123OSM    H7F13088   0.668   4.677   7.310 -0.6970  1.3379  1.5975
  123OSM    H7G13089   0.650   4.500   7.307  1.5489  0.5755 -1.1590
  123OSM    C8F13090   0.490   4.602   7.422  0.5599  0.7008  0.2107
  123OSM    H8F13091   0.434   4.698   7.417  0.2786  0.7743  3.1814
  123OSM    H8G13092   0.554   4.599   7.513  1.4402  2.0205 -0.3268
  123OSM    C9F13093   0.404   4.477   7.413 -0.1531  0.3252 -0.5637
  123OSM    H9F13094   0.303   4.492   7.374  0.0874  1.6209 -0.7447
  123OSM   C10F13095   0.428   4.362   7.475 -0.2314  0.4666 -0.5093
  123OSM   H10F13096   0.354   4.284   7.455 -1.3012  1.8516 -2.2258
  123OSM   C11F13097   0.549   4.319   7.557  0.5692 -0.1805  0.0769
  123OSM   H11F13098   0.644   4.352   7.511 -0.3529 -0.2563 -2.0233
  123OSM   H11G13099   0.553   4.208   7.557  1.7456 -0.1887 -2.2146
  123OSM   C12F13100   0.532   4.368   7.702  0.5554  0.1810  0.0157
  123OSM   H12F13101   0.496   4.473   7.709 -0.9103 -0.0510 -2.6127
  123OSM   H12G13102   0.634   4.370   7.747  0.1323 -0.0589  0.9949
  123OSM   C13F13103   0.428   4.276   7.773 -0.3605 -0.6723 -0.2651
  123OSM   H13F13104   0.477   4.179   7.794  0.0307 -0.6662 -1.1240
  123OSM   H13G13105   0.332   4.256   7.721 -0.4392 -0.6643 -0.1232
  123OSM   C14F13106   0.387   4.342   7.905 -0.2629  0.1842 -0.4069
  123OSM   H14F13107   0.305   4.277   7.941 -0.2807  0.9789  1.0542
  123OSM   H14G13108   0.355   4.448   7.896 -0.7005  0.3026  1.8145
  123OSM   C15F13109   0.495   4.340   8.014  0.5237 -0.3864 -0.1493
  123OSM   H15F13110   0.584   4.400   7.985  0.8022 -1.4506 -1.6194
  123OSM   H15G13111   0.522   4.237   8.044 -1.7856 -0.4208  2.2306
  123OSM   C16F13112   0.436   4.420   8.137 -0.1614  0.6949  0.5214
  123OSM   H16F13113   0.339   4.371   8.159  0.9606 -1.7629  0.3469
  123OSM   H16G13114   0.425   4.525   8.103  0.0002  0.6040  0.1852
  123OSM   C17F13115   0.539   4.424   8.251  0.3714  0.4566  0.3125
  123OSM   H17F13116   0.617   4.500   8.233 -0.2704  0.6504 -1.8759
  123OSM   H17G13117   0.589   4.324   8.253  0.3747  0.4028 -1.2321
  123OSM   C18F13118   0.476   4.455   8.385  0.4711  0.4471  0.6990
  123OSM   H18F13119   0.553   4.467   8.465  0.6901 -0.9551  0.7223
  123OSM   H18G13120   0.410   4.370   8.415  1.2705 -0.2428  0.5480
  123OSM   H18H13121   0.413   4.546   8.379 -0.0882  0.2815  2.9111
  124OSM      N13122   1.257   6.255   5.957 -0.0010  0.4640  0.3368
  124OSM    C1513123   1.111   6.237   5.922 -0.1018 -0.5162  0.4325
  124OSM   H15A13124   1.063   6.332   5.906 -1.3951 -1.2610 -0.3054
  124OSM   H15B13125   1.054   6.202   6.007 -1.9367  2.0368  0.3852
  124OSM   H15C13126   1.104   6.180   5.831  3.1954  0.6492 -0.7075
  124OSM    C1413127   1.309   6.124   6.002  0.4297 -0.4598  0.1852
  124OSM   H14A13128   1.245   6.080   6.077 -2.9501 -1.1068 -2.7825
  124OSM   H14B13129   1.412   6.130   6.032  0.5287  0.2951 -0.3054
  124OSM   H14C13130   1.304   6.064   5.912 -1.3517  1.5762 -1.1725
  124OSM    C1313131   1.318   6.290   5.823  0.1490 -0.2634 -0.2495
  124OSM   H13A13132   1.284   6.389   5.798 -1.6348 -0.9695 -0.7771
  124OSM   H13B13133   1.296   6.223   5.741 -0.7939  0.9785 -1.0361
  124OSM   H13C13134   1.425   6.300   5.831 -0.0823  1.1943  2.0975
  124OSM    C1213135   1.266   6.370   6.056 -0.1169  0.0378  0.0132
  124OSM   H12A13136   1.196   6.349   6.136  1.7199 -0.1233  1.6676
  124OSM   H12B13137   1.233   6.460   6.007  0.4001 -0.0423 -0.4970
  124OSM    C1113138   1.403   6.398   6.126  0.1571 -0.6232  0.0609
  124OSM   H11A13139   1.442   6.308   6.178  0.2708 -0.6121 -0.0046
  124OSM   H11B13140   1.388   6.477   6.203  0.1101 -1.3369  0.7996
  124OSM      P13141   1.528   6.570   5.971 -0.3456  0.2239 -0.2814
  124OSM    O1313142   1.652   6.563   5.894 -0.1576 -0.5084  0.2482
  124OSM    O1413143   1.412   6.621   5.894  0.1648  0.1138  0.1322
  124OSM    O1113144   1.542   6.660   6.100  0.4543 -0.0091  0.3615
  124OSM    O1213145   1.504   6.426   6.030  0.6312 -0.1043  0.0261
  124OSM    C1S13146   1.650   6.631   6.188  0.9941 -0.2182 -0.2524
  124OSM    H1S13147   1.746   6.660   6.140  0.9190 -0.6146 -0.6553
  124OSM    H1T13148   1.649   6.522   6.209  3.0170 -0.5220 -1.4614
  124OSM     NF13149   1.740   6.657   6.413  0.4198 -0.3387 -0.4340
  124OSM    HNF13150   1.711   6.579   6.468 -0.9710  1.0319  0.8640
  124OSM    C2S13151   1.637   6.708   6.321 -0.7084 -0.1122 -0.0470
  124OSM    H2S13152   1.664   6.815   6.309  1.9805 -0.3771  2.5167
  124OSM    C3S13153   1.493   6.700   6.381 -0.3782 -0.3591  0.8120
  124OSM    H3S13154   1.467   6.594   6.398 -0.7903 -0.7423 -1.7609
  124OSM     O313155   1.388   6.749   6.301 -0.1327  0.0405 -0.4514
  124OSM    HO313156   1.419   6.759   6.210 -1.9842 -1.0884 -1.2629
  124OSM    C4S13157   1.491   6.767   6.519 -0.1834  0.1979 -0.0564
  124OSM    H4S13158   1.511   6.691   6.596 -1.2929 -1.3737 -1.2459
  124OSM    C5S13159   1.476   6.896   6.555 -0.1446 -1.0325 -0.2156
  124OSM    H5S13160   1.430   6.962   6.480  0.0176 -2.0904 -1.2709
  124OSM    C6S13161   1.456   6.941   6.693  0.0327 -0.2686 -0.2745
  124OSM    H6S13162   1.358   6.993   6.696 -0.0620 -0.4896  1.0226
  124OSM    H6T13163   1.531   7.019   6.720  0.2109  0.5390 -2.8344
  124OSM    C7S13164   1.447   6.834   6.806 -0.2916  0.1534  0.1882
  124OSM    H7S13165   1.547   6.786   6.812 -0.2615  0.3614  1.9488
  124OSM    H7T13166   1.367   6.759   6.790  0.3857 -0.5808  0.2007
  124OSM    C8S13167   1.417   6.906   6.943 -0.5781 -0.0961  0.3456
  124OSM    H8S13168   1.319   6.956   6.935 -0.9100 -0.6955  0.6274
  124OSM    H8T13169   1.488   6.986   6.973  0.2139 -0.5663 -0.2217
  124OSM    C9S13170   1.403   6.808   7.059 -0.5520  0.1589  0.3859
  124OSM    H9S13171   1.501   6.764   7.086 -0.2551  0.7503  0.2861
  124OSM    H9T13172   1.330   6.729   7.029 -0.4120 -0.8585  2.5105
  124OSM   C10S13173   1.345   6.870   7.188  0.2378 -0.2001 -0.0697
  124OSM   H10S13174   1.234   6.870   7.190  0.2491 -0.8008  0.7145
  124OSM   H10T13175   1.379   6.975   7.201 -2.1495  0.8239 -1.3421
  124OSM   C11S13176   1.374   6.810   7.322  0.6758  0.5466 -0.3072
  124OSM   H11S13177   1.482   6.799   7.346  0.0968 -1.5627  1.7221
  124OSM   H11T13178   1.343   6.703   7.327 -0.9823  1.0209 -0.0890
  124OSM   C12S13179   1.291   6.877   7.435  0.0859  0.3221  0.5165
  124OSM   H12S13180   1.185   6.861   7.406  0.0605 -1.4919  1.4315
  124OSM   H12T13181   1.305   6.987   7.433  0.5530  0.2595 -0.0422
  124OSM   C13S13182   1.319   6.826   7.574  0.5544  0.5191 -0.3959
  124OSM   H13S13183   1.276   6.724   7.586  1.6159  0.3088  2.6070
  124OSM   H13T13184   1.251   6.881   7.643 -1.6110 -0.6285 -1.5298
  124OSM   C14S13185   1.462   6.836   7.628 -0.5031 -0.1677 -0.3623
  124OSM   H14S13186   1.485   6.944   7.640  0.0053 -0.3373  0.2743
  124OSM   H14T13187   1.536   6.789   7.559  0.1075  0.7048 -0.3161
  124OSM   C15S13188   1.487   6.774   7.766  0.7486  0.4120 -0.1341
  124OSM   H15S13189   1.591   6.800   7.794  0.7140  2.3140 -1.5612
  124OSM   H15T13190   1.488   6.663   7.755 -0.1260 -0.0401  3.1599
  124OSM   C16S13191   1.381   6.808   7.873 -0.6811 -0.5775 -0.0565
  124OSM   H16S13192   1.289   6.758   7.836 -0.6104 -0.6878 -0.0859
  124OSM   H16T13193   1.368   6.917   7.887  0.8964 -0.2959 -0.6401
  124OSM   C17S13194   1.419   6.735   8.000 -0.3291 -0.7516 -0.3426
  124OSM   H17S13195   1.523   6.763   8.028 -0.5133 -0.3994  0.0116
  124OSM   H17T13196   1.422   6.626   7.981 -0.1321 -0.4903 -1.9213
  124OSM   C18S13197   1.318   6.766   8.112 -1.4535  0.4289  0.1853
  124OSM   H18S13198   1.218   6.730   8.077 -0.7668 -0.5819 -0.8124
  124OSM   H18T13199   1.323   6.873   8.140  1.0387  0.3298  0.3310
  124OSM   H18U13200   1.351   6.708   8.200 -2.7420  0.5916  0.8083
  124OSM    C1F13201   1.874   6.674   6.392  0.0001 -0.1307 -0.5745
  124OSM     OF13202   1.907   6.762   6.313  0.6390  0.1459  0.2267
  124OSM    C2F13203   1.976   6.577   6.461 -0.0493 -0.6949  0.5831
  124OSM    H2F13204   2.050   6.560   6.379 -0.7414  5.2829 -1.7968
  124OSM    H2G13205   1.928   6.480   6.485  0.0453 -0.1302  3.3888
  124OSM    C3F13206   2.036   6.635   6.591 -0.1526 -0.4575 -0.3390
  124OSM    H3F13207   1.947   6.662   6.652 -0.5740  1.6600 -1.7602
  124OSM    H3G13208   2.083   6.736   6.593  0.7803 -0.8892  1.0284
  124OSM    C4F13209   2.122   6.540   6.663 -0.0055 -0.2364 -0.1368
  124OSM    H4F13210   2.187   6.487   6.590  0.8795 -3.2505  2.6017
  124OSM    H4G13211   2.072   6.462   6.724  2.4935 -0.2864  2.0226
  124OSM    C5F13212   2.226   6.591   6.768  0.1086 -0.2752 -0.4237
  124OSM    H5F13213   2.293   6.663   6.715  1.8245 -1.3546  0.2133
  124OSM    H5G13214   2.279   6.503   6.809  1.7755  1.2879  0.9357
  124OSM    C6F13215   2.155   6.651   6.893 -0.6140 -0.5695  0.0591
  124OSM    H6F13216   2.099   6.565   6.936  0.0332 -0.9180  0.2171
  124OSM    H6G13217   2.089   6.734   6.860  1.8209  1.0404 -1.0864
  124OSM    C7F13218   2.253   6.704   7.004  0.0923  0.1623 -0.6115
  124OSM    H7F13219   2.330   6.625   7.011 -0.7624 -0.7278 -0.9100
  124OSM    H7G13220   2.195   6.701   7.099 -1.5267 -0.9493 -1.5749
  124OSM    C8F13221   2.309   6.846   6.973  0.4602  0.4957  0.2376
  124OSM    H8F13222   2.228   6.921   6.983  0.2558  0.3666 -0.3910
  124OSM    H8G13223   2.338   6.851   6.866 -0.8778  0.3121 -0.1606
  124OSM    C9F13224   2.438   6.886   7.039 -0.1137  0.2784  0.3078
  124OSM    H9F13225   2.523   6.820   7.018 -1.0612 -1.0098  0.3585
  124OSM   C10F13226   2.463   6.988   7.122 -0.8163  0.1515 -0.1685
  124OSM   H10F13227   2.567   6.999   7.156 -0.9009  1.5175 -0.2955
  124OSM   C11F13228   2.358   7.085   7.175 -0.2572 -0.2862  0.6576
  124OSM   H11F13229   2.306   7.119   7.083 -0.8840 -0.6858  0.8586
  124OSM   H11G13230   2.418   7.174   7.204  0.5637 -0.2799 -0.9543
  124OSM   C12F13231   2.247   7.054   7.274 -0.0653  0.4475 -0.1020
  124OSM   H12F13232   2.193   6.965   7.235  0.9815 -1.1214  1.8720
  124OSM   H12G13233   2.177   7.140   7.280  0.6784  1.3012 -2.4477
  124OSM   C13F13234   2.306   7.024   7.414 -0.3936 -0.4487  0.2214
  124OSM   H13F13235   2.364   7.107   7.461 -0.1115  0.5852 -1.8195
  124OSM   H13G13236   2.387   6.950   7.394 -0.9957 -1.2884  0.8397
  124OSM   C14F13237   2.195   6.958   7.506 -0.1285  0.0001 -0.8036
  124OSM   H14F13238   2.138   6.895   7.434  0.2626  1.1992 -2.2059
  124OSM   H14G13239   2.118   7.034   7.528 -2.9806 -1.6023 -4.2832
  124OSM   C15F13240   2.245   6.881   7.627  0.6502 -0.1952  0.6161
  124OSM   H15F13241   2.309   6.797   7.591  1.0782  0.2866  0.2369
  124OSM   H15G13242   2.160   6.833   7.679  1.1261 -1.1564  0.5389
  124OSM   C16F13243   2.333   6.972   7.712 -0.2310  0.9262  0.2071
  124OSM   H16F13244   2.293   7.075   7.718  1.7588  1.6693  2.2266
  124OSM   H16G13245   2.436   6.967   7.672  0.0758 -0.2424  1.0760
  124OSM   C17F13246   2.334   6.927   7.856 -0.2976  0.0181 -0.6911
  124OSM   H17F13247   2.302   6.821   7.855 -2.5147  0.6284 -1.4334
  124OSM   H17G13248   2.272   6.993   7.920 -0.2488 -0.7909  0.2023
  124OSM   C18F13249   2.477   6.934   7.923 -0.4153  0.5233 -0.3241
  124OSM   H18F13250   2.472   6.921   8.033  0.8790  2.0656 -0.0534
  124OSM   H18G13251   2.521   7.034   7.904  3.5538 -1.1714 -1.1402
  124OSM   H18H13252   2.550   6.864   7.876  1.1155  0.1969  2.3360
  125OSM      N13253   6.855   0.367   5.898 -0.6114 -0.4252  0.0324
  125OSM    C1513254   6.819   0.261   5.801  0.7671 -0.5297  0.2033
  125OSM   H15A13255   6.843   0.167   5.848 -0.2486 -0.6662  0.4747
  125OSM   H15B13256   6.877   0.278   5.711  0.0303  0.5981 -0.0699
  125OSM   H15C13257   6.716   0.262   5.770  0.9206  1.5847 -0.4092
  125OSM    C1413258   6.997   0.340   5.930 -0.5079  0.3092 -0.1286
  125OSM   H14A13259   7.063   0.348   5.845  1.1297 -0.1116  1.0562
  125OSM   H14B13260   7.014   0.238   5.959  3.9016  1.2165  1.1728
  125OSM   H14C13261   7.042   0.407   6.001 -0.1388  0.5104 -0.5435
  125OSM    C1313262   6.846   0.502   5.834  0.6255 -0.3143  0.1009
  125OSM   H13A13263   6.891   0.504   5.736 -0.1237 -1.0302 -0.2776
  125OSM   H13B13264   6.884   0.577   5.902 -1.5516 -0.6047  1.7639
  125OSM   H13C13265   6.741   0.521   5.814  0.3525 -3.1026 -1.7678
  125OSM    C1213266   6.785   0.359   6.029  1.2891  0.0693  0.3581
  125OSM   H12A13267   6.819   0.442   6.089 -2.0394  1.4090  0.5916
  125OSM   H12B13268   6.803   0.258   6.064  1.4417 -0.9254 -2.3308
  125OSM    C1113269   6.630   0.377   6.029 -0.1681  0.6215 -0.3562
  125OSM   H11A13270   6.603   0.476   5.988 -0.6519  0.2328 -1.0038
  125OSM   H11B13271   6.599   0.381   6.135  0.1260  0.6883 -0.2715
  125OSM      P13272   6.511   0.140   6.021 -0.5647 -0.5680  0.1370
  125OSM    O1313273   6.431   0.051   5.930 -0.2357 -0.1648  1.0748
  125OSM    O1413274   6.621   0.081   6.098 -0.0031 -0.3534  0.5055
  125OSM    O1113275   6.421   0.184   6.132 -0.5247 -0.3125  0.0535
  125OSM    O1213276   6.556   0.277   5.950  0.1386 -0.0876 -0.3148
  125OSM    C1S13277   6.349   0.099   6.220 -0.2488 -0.5424 -0.3370
  125OSM    H1S13278   6.371  -0.010   6.217 -0.9096 -0.6899 -3.3065
  125OSM    H1T13279   6.245   0.114   6.183  0.7346  0.8738 -2.8372
  125OSM     NF13280   6.275   0.047   6.452 -0.1434  0.1666  0.3636
  125OSM    HNF13281   6.189   0.090   6.479 -0.0603  1.6358 -1.5191
  125OSM    C2S13282   6.353   0.134   6.371  0.0056  0.6361  0.6516
  125OSM    H2S13283   6.459   0.121   6.402  0.2263 -0.5300 -0.4893
  125OSM    C3S13284   6.301   0.273   6.391 -0.8698 -1.0358  0.6037
  125OSM    H3S13285   6.199   0.276   6.348 -1.2239 -1.8135  1.3611
  125OSM     O313286   6.367   0.379   6.316 -0.2655  0.1698 -0.5078
  125OSM    HO313287   6.426   0.329   6.260  0.6616  0.2536  0.3495
  125OSM    C4S13288   6.296   0.319   6.531 -0.6805  0.0281  0.4171
  125OSM    H4S13289   6.388   0.290   6.584  0.3485 -0.6131 -1.5951
  125OSM    C5S13290   6.192   0.386   6.586 -1.2185  0.2164  0.2956
  125OSM    H5S13291   6.093   0.388   6.539  0.1519 -0.2470 -2.8136
  125OSM    C6S13292   6.200   0.427   6.731  0.0044 -0.4161  0.2773
  125OSM    H6S13293   6.182   0.536   6.734 -0.1581 -0.3174 -2.2533
  125OSM    H6T13294   6.294   0.387   6.776 -0.8585 -1.1310  1.5172
  125OSM    C7S13295   6.092   0.359   6.817 -0.2397 -0.1348  0.3613
  125OSM    H7S13296   6.112   0.250   6.812  0.9576  0.1179 -1.1296
  125OSM    H7T13297   5.993   0.394   6.781  0.3198  2.4920  1.1902
  125OSM    C8S13298   6.113   0.397   6.967 -1.0756  0.2988  0.2905
  125OSM    H8S13299   6.099   0.506   6.977 -0.4278  0.4161 -0.0904
  125OSM    H8T13300   6.213   0.369   7.006 -1.1217 -0.1105  0.1245
  125OSM    C9S13301   6.005   0.328   7.054  0.5357 -0.2872 -0.9532
  125OSM    H9S13302   6.007   0.219   7.032 -2.8170 -0.5963 -0.2489
  125OSM    H9T13303   5.902   0.359   7.027  0.0287 -0.5141  0.6270
  125OSM   C10S13304   6.044   0.363   7.202 -0.3419 -0.4865  0.3757
  125OSM   H10S13305   6.045   0.472   7.220 -2.0754 -0.0929 -1.4981
  125OSM   H10T13306   6.147   0.323   7.214  0.4676  0.8103 -1.7208
  125OSM   C11S13307   5.942   0.289   7.294  0.3205 -0.2802 -0.3751
  125OSM   H11S13308   5.949   0.179   7.297  3.3623 -0.1411  1.0863
  125OSM   H11T13309   5.840   0.316   7.259  0.1222  0.5233  0.7607
  125OSM   C12S13310   5.971   0.304   7.444  0.1999  0.1111 -0.1809
  125OSM   H12S13311   5.884   0.304   7.512  2.8615  1.7396  3.5586
  125OSM   H12T13312   6.010   0.407   7.459  1.0175  0.0460 -1.6373
  125OSM   C13S13313   6.075   0.204   7.496 -0.4335 -0.2098 -0.5582
  125OSM   H13S13314   6.161   0.194   7.427 -0.4257 -1.3686 -0.4018
  125OSM   H13T13315   6.040   0.099   7.499 -2.0627  0.2598 -1.7256
  125OSM   C14S13316   6.128   0.232   7.635  0.2863  0.7360  0.0740
  125OSM   H14S13317   6.180   0.330   7.645  2.5122 -0.4668  1.0308
  125OSM   H14T13318   6.205   0.153   7.653  0.8590  1.4674  0.9582
  125OSM   C15S13319   6.010   0.243   7.738 -0.5766  0.4093 -0.7237
  125OSM   H15S13320   5.934   0.167   7.714 -1.8088  2.0279 -2.2545
  125OSM   H15T13321   5.961   0.341   7.720  0.4469  0.4669 -3.8594
  125OSM   C16S13322   6.040   0.233   7.889 -0.4083  0.3808 -0.9257
  125OSM   H16S13323   6.086   0.328   7.922  0.5650  0.2581 -1.8525
  125OSM   H16T13324   6.093   0.137   7.910 -1.7955 -0.6123 -1.7654
  125OSM   C17S13325   5.911   0.218   7.965 -0.2913 -0.0796 -0.2933
  125OSM   H17S13326   5.862   0.119   7.952  0.3976 -0.4174 -0.3587
  125OSM   H17T13327   5.836   0.293   7.934 -0.7447 -0.2361  0.4012
  125OSM   C18S13328   5.931   0.217   8.121 -0.4113 -0.5959  0.6039
  125OSM   H18S13329   5.971   0.314   8.155  2.6056 -1.2458 -0.7392
  125OSM   H18T13330   5.992   0.127   8.145 -0.4639 -0.5713  0.8226
  125OSM   H18U13331   5.836   0.192   8.173  0.1930 -1.4202  1.3389
  125OSM    C1F13332   6.308  -0.077   6.480  0.3061 -0.4015  0.5008
  125OSM     OF13333   6.396  -0.138   6.420 -0.3243  0.6146 -0.7321
  125OSM    C2F13334   6.212  -0.133   6.572  0.9773  0.5471  0.0713
  125OSM    H2F13335   6.123  -0.161   6.512  0.2116  3.2010 -0.1746
  125OSM    H2G13336   6.180  -0.056   6.645 -0.2430 -0.7831  0.9845
  125OSM    C3F13337   6.263  -0.262   6.644 -0.4149  0.6604 -0.5602
  125OSM    H3F13338   6.373  -0.251   6.649 -0.3147  1.4992 -3.2330
  125OSM    H3G13339   6.232  -0.349   6.582 -1.0266  1.0213 -0.7718
  125OSM    C4F13340   6.211  -0.280   6.791 -0.7547  0.2090 -0.6402
  125OSM    H4F13341   6.102  -0.301   6.794 -0.7727  0.2480 -1.0070
  125OSM    H4G13342   6.230  -0.192   6.856 -2.9707 -0.7050  1.4051
  125OSM    C5F13343   6.274  -0.394   6.869 -0.4892 -0.0014  0.1155
  125OSM    H5F13344   6.382  -0.374   6.878 -0.5428  0.6268 -0.5279
  125OSM    H5G13345   6.268  -0.479   6.798  1.2398  1.1799 -1.5492
  125OSM    C6F13346   6.212  -0.437   7.006 -0.0469 -1.0888 -0.0855
  125OSM    H6F13347   6.101  -0.431   6.996  0.2123  1.5388 -2.4280
  125OSM    H6G13348   6.236  -0.355   7.076 -0.0513 -1.2234  0.0763
  125OSM    C7F13349   6.256  -0.573   7.057  0.4920  0.5748 -0.4278
  125OSM    H7F13350   6.365  -0.585   7.039  0.7149  1.4065  0.3381
  125OSM    H7G13351   6.202  -0.652   7.000  0.4114  0.2557  0.0743
  125OSM    C8F13352   6.219  -0.600   7.202  0.1311 -0.2191 -0.1893
  125OSM    H8F13353   6.250  -0.706   7.220 -2.4891 -1.2519 -1.2225
  125OSM    H8G13354   6.109  -0.596   7.220 -0.0092 -0.9196 -0.8200
  125OSM    C9F13355   6.291  -0.516   7.308 -0.4044 -0.0451 -0.2455
  125OSM    H9F13356   6.398  -0.495   7.292  0.1985 -0.7590  2.3262
  125OSM   C10F13357   6.244  -0.462   7.422 -0.0619 -0.1862 -0.0374
  125OSM   H10F13358   6.323  -0.413   7.482  0.5607  0.1845 -1.1402
  125OSM   C11F13359   6.104  -0.464   7.470  0.2407  0.1456 -1.0512
  125OSM   H11F13360   6.034  -0.506   7.396 -2.9418  1.4758  0.9963
  125OSM   H11G13361   6.078  -0.361   7.505  0.5781 -0.7363  2.0770
  125OSM   C12F13362   6.078  -0.560   7.593  0.4211 -0.8873 -0.0733
  125OSM   H12F13363   6.108  -0.509   7.687 -3.4455  0.8780  0.3931
  125OSM   H12G13364   6.141  -0.649   7.575 -0.2874 -1.8543  1.9913
  125OSM   C13F13365   5.929  -0.596   7.611 -0.3706  0.0800  1.1381
  125OSM   H13F13366   5.904  -0.661   7.525 -0.5537  1.9082 -0.2651
  125OSM   H13G13367   5.870  -0.501   7.607  2.3345  1.8346 -0.4821
  125OSM   C14F13368   5.908  -0.671   7.737  0.4002 -0.8924  0.8975
  125OSM   H14F13369   5.935  -0.598   7.817 -1.9672  3.5529 -1.9299
  125OSM   H14G13370   5.977  -0.758   7.736 -1.2979 -2.2966  1.7897
  125OSM   C15F13371   5.767  -0.723   7.754  0.8634 -0.7090 -0.5610
  125OSM   H15F13372   5.772  -0.796   7.838 -4.1536  0.5025  1.1320
  125OSM   H15G13373   5.720  -0.774   7.667 -2.5145  0.8131  0.1870
  125OSM   C16F13374   5.663  -0.619   7.810 -0.6981 -0.1235  0.3741
  125OSM   H16F13375   5.635  -0.544   7.733  0.5542 -0.0805 -0.0507
  125OSM   H16G13376   5.709  -0.556   7.889  2.0452 -0.3848 -0.8986
  125OSM   C17F13377   5.527  -0.664   7.865  0.5544 -0.0341  0.6773
  125OSM   H17F13378   5.550  -0.738   7.945 -3.6527 -0.7958  1.4329
  125OSM   H17G13379   5.476  -0.716   7.781  3.7551 -2.5962  0.1202
  125OSM   C18F13380   5.448  -0.542   7.914 -0.4529 -0.0802  0.0494
  125OSM   H18F13381   5.502  -0.505   8.003  0.5212  0.3861 -0.7081
  125OSM   H18G13382   5.348  -0.579   7.944  0.0447 -1.0027  0.6412
  125OSM   H18H13383   5.442  -0.469   7.831 -0.9340  0.4245  0.5251
  126OSM      N13384   2.016   3.299   6.549  0.4240  0.2561  0.4464
  126OSM    C1513385   2.123   3.236   6.460  0.2906  0.1757  0.7761
  126OSM   H15A13386   2.178   3.301   6.394  2.1684 -0.7792  1.3563
  126OSM   H15B13387   2.076   3.156   6.403  1.5500  1.1404 -1.7823
  126OSM   H15C13388   2.196   3.185   6.520  2.6733  0.0080 -2.0499
  126OSM    C1413389   2.068   3.416   6.614  1.2126  0.1945 -0.2764
  126OSM   H14A13390   2.074   3.502   6.549 -1.4334  0.6154 -0.0448
  126OSM   H14B13391   2.168   3.414   6.655  1.6092  0.0343 -1.2236
  126OSM   H14C13392   1.999   3.452   6.689  0.9508 -2.4025  0.8055
  126OSM    C1313393   1.908   3.333   6.459  0.6085 -0.3839  0.2184
  126OSM   H13A13394   1.858   3.245   6.421 -0.7731  0.5540 -0.2066
  126OSM   H13B13395   1.944   3.396   6.380 -1.7997 -0.9080 -1.4274
  126OSM   H13C13396   1.838   3.388   6.520 -0.8554  0.5968 -2.1892
  126OSM    C1213397   1.972   3.192   6.650  0.3558  0.6354 -0.0174
  126OSM   H12A13398   1.910   3.242   6.723  1.0818  0.8725  0.4513
  126OSM   H12B13399   2.057   3.160   6.709  0.7076  0.3831 -0.6553
  126OSM    C1113400   1.892   3.061   6.602 -0.4090 -0.0737 -0.1441
  126OSM   H11A13401   1.790   3.082   6.565  0.2129  2.8193 -0.4351
  126OSM   H11B13402   1.874   3.004   6.696  0.6079  0.8619  0.6509
  126OSM      P13403   2.067   2.864   6.561  0.1664  0.1039 -0.2754
  126OSM    O1313404   2.095   2.768   6.445  0.1352  0.2121  0.1436
  126OSM    O1413405   2.177   2.918   6.638  0.4206  0.2115 -0.0510
  126OSM    O1113406   1.981   2.777   6.659  0.0914  0.4644  0.3456
  126OSM    O1213407   1.959   2.980   6.513 -0.2402  0.9355 -0.3834
  126OSM    C1S13408   2.009   2.638   6.678 -1.1863  0.0979 -0.1784
  126OSM    H1S13409   2.113   2.609   6.654  0.0814  0.9643  3.5620
  126OSM    H1T13410   1.937   2.594   6.605 -0.5161  0.6523 -1.1990
  126OSM     NF13411   2.058   2.468   6.854 -0.2198  0.0601  0.3711
  126OSM    HNF13412   2.003   2.387   6.870 -0.3075  0.0177 -0.1122
  126OSM    C2S13413   1.999   2.599   6.832 -0.5304  0.0334 -0.6017
  126OSM    H2S13414   2.055   2.673   6.893 -3.4759  0.2119  2.1730
  126OSM    C3S13415   1.849   2.604   6.862  0.4065  0.5072  0.6086
  126OSM    H3S13416   1.789   2.540   6.794  0.7169  1.6133 -0.7635
  126OSM     O313417   1.790   2.729   6.837 -0.6203  0.3525 -0.6868
  126OSM    HO313418   1.845   2.772   6.771 -0.1653 -1.4710 -1.5545
  126OSM    C4S13419   1.810   2.560   6.998 -0.7905 -0.1932 -0.2664
  126OSM    H4S13420   1.788   2.453   7.007 -0.9215  0.0033  3.2788
  126OSM    C5S13421   1.801   2.638   7.104 -0.3710 -0.8832 -0.8701
  126OSM    H5S13422   1.839   2.742   7.105  0.0376 -1.0228  0.4541
  126OSM    C6S13423   1.757   2.572   7.234  0.4346  0.4652  0.3364
  126OSM    H6S13424   1.707   2.474   7.221  0.7627  0.3054  0.2671
  126OSM    H6T13425   1.676   2.638   7.273 -1.1005  0.2120 -2.1990
  126OSM    C7S13426   1.866   2.564   7.337 -0.6557 -0.5896  0.3433
  126OSM    H7S13427   1.911   2.665   7.344 -1.2397 -0.2172 -0.8672
  126OSM    H7T13428   1.946   2.498   7.295  0.4399  1.4360 -0.9240
  126OSM    C8S13429   1.816   2.516   7.475 -0.2758 -0.2053  0.7463
  126OSM    H8S13430   1.903   2.495   7.540 -1.5503 -1.0305  2.2422
  126OSM    H8T13431   1.764   2.418   7.472  0.7749 -0.8538  2.4500
  126OSM    C9S13432   1.728   2.619   7.553  0.0251  0.0526  0.1281
  126OSM    H9S13433   1.630   2.637   7.505  0.0598  2.6629  0.8881
  126OSM    H9T13434   1.783   2.714   7.537 -1.0743  0.3146 -2.8446
  126OSM   C10S13435   1.717   2.579   7.705  0.0273  0.7135 -0.1852
  126OSM   H10S13436   1.815   2.574   7.757 -1.7941  1.3063  3.5866
  126OSM   H10T13437   1.661   2.485   7.726  0.9821  0.0904 -0.3135
  126OSM   C11S13438   1.637   2.687   7.780  0.3877  0.1385  0.4563
  126OSM   H11S13439   1.621   2.640   7.879 -0.1239 -0.7844 -0.0487
  126OSM   H11T13440   1.537   2.692   7.732  1.3645  0.1627 -1.6886
  126OSM   C12S13441   1.707   2.826   7.789  0.7371 -0.3349  0.1437
  126OSM   H12S13442   1.703   2.867   7.686  2.3996  1.4888  0.7288
  126OSM   H12T13443   1.814   2.810   7.815  0.5644 -1.1224  0.3969
  126OSM   C13S13444   1.632   2.926   7.891  0.2780 -0.3617  0.0032
  126OSM   H13S13445   1.523   2.905   7.899  0.0617  0.7155 -0.0756
  126OSM   H13T13446   1.642   3.030   7.855 -1.0217 -1.1310 -2.9038
  126OSM   C14S13447   1.693   2.912   8.033  1.0466  0.1917 -1.4026
  126OSM   H14S13448   1.803   2.913   8.039  1.0222  0.2326 -0.8960
  126OSM   H14T13449   1.669   2.814   8.079 -0.3922  1.6508  1.2725
  126OSM   C15S13450   1.654   3.025   8.131  0.5177 -0.1520 -0.2422
  126OSM   H15S13451   1.718   3.108   8.095 -0.0456  0.1092 -0.6558
  126OSM   H15T13452   1.691   2.992   8.230  0.3630 -1.3868 -0.5770
  126OSM   C16S13453   1.503   3.067   8.145  0.2905  1.0978  0.7284
  126OSM   H16S13454   1.471   3.091   8.040  1.5583  0.6742  0.2340
  126OSM   H16T13455   1.495   3.165   8.197 -4.0521  2.3320 -1.6727
  126OSM   C17S13456   1.409   2.959   8.198 -0.1391  0.5910 -0.0854
  126OSM   H17S13457   1.425   2.865   8.140 -1.6037  0.6897 -0.6876
  126OSM   H17T13458   1.306   2.990   8.170  0.0849 -0.0811 -1.7825
  126OSM   C18S13459   1.415   2.946   8.348 -0.4465  0.7187  0.4136
  126OSM   H18S13460   1.391   3.040   8.402 -2.9387 -0.6537  1.8648
  126OSM   H18T13461   1.516   2.909   8.379  0.1759  0.8377 -1.3654
  126OSM   H18U13462   1.340   2.869   8.376 -2.7981  1.5428 -3.0182
  126OSM    C1F13463   2.192   2.450   6.866 -0.3850  0.8996  0.0563
  126OSM     OF13464   2.263   2.546   6.834 -0.4120 -0.6699 -0.2223
  126OSM    C2F13465   2.242   2.309   6.895 -0.0189 -0.3001  0.3089
  126OSM    H2F13466   2.315   2.286   6.815  0.9950 -1.3687  1.5130
  126OSM    H2G13467   2.153   2.243   6.902 -0.8311  0.7168 -0.0505
  126OSM    C3F13468   2.327   2.315   7.025  0.2891  0.5482  0.2067
  126OSM    H3F13469   2.422   2.370   7.002 -0.1511  0.8959 -0.8445
  126OSM    H3G13470   2.361   2.210   7.035 -1.7856 -0.1367  0.3654
  126OSM    C4F13471   2.254   2.365   7.148 -0.5961  0.0394 -0.4498
  126OSM    H4F13472   2.149   2.331   7.140 -0.9143  1.1151 -1.1832
  126OSM    H4G13473   2.245   2.476   7.139 -0.2229  0.4918  3.2977
  126OSM    C5F13474   2.329   2.336   7.279 -0.3339  0.2282  0.0777
  126OSM    H5F13475   2.438   2.358   7.267  0.0815 -1.5410  0.3264
  126OSM    H5G13476   2.318   2.228   7.301 -0.2429  0.4936  1.5297
  126OSM    C6F13477   2.264   2.404   7.399 -0.3754  0.2375 -0.2076
  126OSM    H6F13478   2.159   2.368   7.406  0.1623 -1.2786  0.3997
  126OSM    H6G13479   2.266   2.513   7.379 -0.3810  0.1624 -0.6250
  126OSM    C7F13480   2.339   2.364   7.532  0.2560 -0.0644  0.5029
  126OSM    H7F13481   2.447   2.345   7.513 -0.1514 -2.0935 -0.0637
  126OSM    H7G13482   2.303   2.264   7.563  0.7261 -0.3625  0.1142
  126OSM    C8F13483   2.317   2.471   7.648  0.1618 -0.2586  0.2539
  126OSM    H8F13484   2.370   2.561   7.611  0.8196 -1.3158 -1.5276
  126OSM    H8G13485   2.372   2.446   7.741  0.6539 -1.0432 -0.2363
  126OSM    C9F13486   2.176   2.480   7.689 -0.4437  1.3077 -0.2555
  126OSM    H9F13487   2.112   2.424   7.620  0.6322 -1.6792  1.0142
  126OSM   C10F13488   2.133   2.558   7.797 -0.1697  0.0857  0.3561
  126OSM   H10F13489   2.026   2.554   7.823 -0.2763  1.8296  0.2863
  126OSM   C11F13490   2.218   2.628   7.894  0.2892  0.2475  0.1353
  126OSM   H11F13491   2.150   2.684   7.963  1.3281  1.1268  0.4632
  126OSM   H11G13492   2.289   2.704   7.857  1.1860 -0.7909 -0.3191
  126OSM   C12F13493   2.283   2.531   7.991  0.4876 -0.4181 -0.0157
  126OSM   H12F13494   2.341   2.450   7.943  2.3362  0.0626  1.2935
  126OSM   H12G13495   2.210   2.482   8.059 -1.2743  1.6894 -0.2810
  126OSM   C13F13496   2.404   2.597   8.073  0.4079  0.0286 -0.5125
  126OSM   H13F13497   2.355   2.683   8.123  2.3262  0.2326  1.1400
  126OSM   H13G13498   2.486   2.634   8.009  0.2288 -0.4390 -1.0190
  126OSM   C14F13499   2.462   2.494   8.172  0.4863 -0.5871  0.3261
  126OSM   H14F13500   2.500   2.404   8.119 -0.5588  0.2523 -2.0132
  126OSM   H14G13501   2.372   2.459   8.227 -2.6165  1.0452 -3.2711
  126OSM   C15F13502   2.569   2.548   8.275 -0.2580 -0.1123  0.3605
  126OSM   H15F13503   2.521   2.620   8.345 -0.0818  0.9552 -0.5885
  126OSM   H15G13504   2.637   2.604   8.207 -1.4629 -0.3562 -1.1037
  126OSM   C16F13505   2.651   2.432   8.329  0.2770 -0.0787 -0.3033
  126OSM   H16F13506   2.679   2.361   8.248  0.3575 -2.5395  1.7514
  126OSM   H16G13507   2.602   2.386   8.417 -0.6138 -0.4446 -0.9687
  126OSM   C17F13508   2.782   2.487   8.396 -0.5550  0.2667 -0.1291
  126OSM   H17F13509   2.740   2.564   8.463 -1.0695  0.1116 -0.2713
  126OSM   H17G13510   2.851   2.539   8.326  0.5198  0.9283  1.3637
  126OSM   C18F13511   2.855   2.382   8.480  0.1535 -0.5419  0.2083
  126OSM   H18F13512   2.965   2.399   8.487  0.1869 -0.3231 -0.7083
  126OSM   H18G13513   2.835   2.279   8.445 -0.1410 -0.6481  0.6714
  126OSM   H18H13514   2.814   2.376   8.583 -0.4194  2.4504  0.2449
  127OSM      N13515   0.684   6.525   6.210  0.2721  0.1264  0.2667
  127OSM    C1513516   0.539   6.532   6.262 -0.3290 -0.2974  0.6286
  127OSM   H15A13517   0.522   6.620   6.322 -0.7409  0.5884 -0.7219
  127OSM   H15B13518   0.506   6.445   6.316 -1.9348 -0.3608 -0.4004
  127OSM   H15C13519   0.469   6.542   6.180 -0.9949  3.8656  1.4636
  127OSM    C1413520   0.690   6.444   6.080  0.0644  0.4866 -0.3153
  127OSM   H14A13521   0.677   6.342   6.113  1.6295  0.4865  0.3591
  127OSM   H14B13522   0.783   6.454   6.026  0.9765 -2.3003  0.5854
  127OSM   H14C13523   0.613   6.459   6.006 -0.4436 -3.0715 -0.6751
  127OSM    C1313524   0.705   6.668   6.179 -0.3518 -0.5345 -0.5156
  127OSM   H13A13525   0.667   6.730   6.258 -1.1654 -0.8751 -0.6282
  127OSM   H13B13526   0.645   6.700   6.095  0.6746  0.8821 -0.7381
  127OSM   H13C13527   0.804   6.696   6.145  0.0398  0.7011  1.5197
  127OSM    C1213528   0.781   6.473   6.315  0.2082  0.4934 -0.1974
  127OSM   H12A13529   0.781   6.551   6.390 -0.7408 -1.1693  1.6150
  127OSM   H12B13530   0.878   6.462   6.269 -0.0331  6.3383 -2.9837
  127OSM    C1113531   0.742   6.336   6.376  0.0776 -0.8851 -0.3216
  127OSM   H11A13532   0.634   6.339   6.403  0.2115 -0.5388  0.1998
  127OSM   H11B13533   0.787   6.331   6.477 -0.6120 -1.8078 -0.0572
  127OSM      P13534   0.921   6.187   6.257 -0.1171  0.2892 -0.1764
  127OSM    O1313535   0.911   6.078   6.154  0.7899 -0.0711 -0.1166
  127OSM    O1413536   1.010   6.300   6.226 -0.5344 -0.7216  0.8101
  127OSM    O1113537   0.958   6.135   6.406 -0.6010 -0.0392 -0.0070
  127OSM    O1213538   0.778   6.234   6.286  0.2888  0.0029 -0.1136
  127OSM    C1S13539   0.928   6.000   6.443  0.1655 -0.6019 -0.6499
  127OSM    H1S13540   0.978   5.932   6.371 -0.7565 -1.5040 -0.4605
  127OSM    H1T13541   0.818   5.984   6.435  0.0404  0.0328 -0.2181
  127OSM     NF13542   0.954   5.821   6.610 -0.1490 -0.7139 -0.4886
  127OSM    HNF13543   0.874   5.783   6.655 -0.4524  1.1469  0.6306
  127OSM    C2S13544   0.973   5.963   6.587  0.3603  0.3272 -0.8444
  127OSM    H2S13545   1.080   5.990   6.601 -0.2639  2.6868 -0.1493
  127OSM    C3S13546   0.885   6.039   6.687 -0.3914 -0.9451 -0.0360
  127OSM    H3S13547   0.783   5.997   6.679  0.1033 -2.0164 -1.2604
  127OSM     O313548   0.863   6.178   6.663 -0.7848  0.1046  0.4837
  127OSM    HO313549   0.880   6.182   6.569 -1.5732 -1.8865  0.2127
  127OSM    C4S13550   0.928   6.012   6.827  0.7147 -1.0815 -0.1322
  127OSM    H4S13551   0.893   5.917   6.871  0.2493 -0.2628  1.3535
  127OSM    C5S13552   0.999   6.095   6.908  0.2381  0.0891  0.3250
  127OSM    H5S13553   1.040   6.192   6.876 -0.2625  0.2579  0.1827
  127OSM    C6S13554   1.049   6.055   7.045 -0.0388  0.2404 -0.3896
  127OSM    H6S13555   1.100   6.143   7.090  0.1497  0.9137 -1.8374
  127OSM    H6T13556   1.130   5.979   7.034 -0.9769 -0.9517  0.6043
  127OSM    C7S13557   0.939   5.992   7.138 -0.8089 -0.3808  0.1058
  127OSM    H7S13558   0.890   5.900   7.101 -0.4276 -0.0915 -1.1547
  127OSM    H7T13559   0.858   6.068   7.145  0.4058  1.1562 -1.6092
  127OSM    C8S13560   0.985   5.976   7.288 -0.0527 -0.0398  0.7725
  127OSM    H8S13561   0.904   5.986   7.363  0.8321  3.8532  1.4551
  127OSM    H8T13562   1.049   6.065   7.306 -0.6406  0.5556 -0.0162
  127OSM    C9S13563   1.081   5.853   7.317  0.4219 -0.0982 -0.8988
  127OSM    H9S13564   1.139   5.845   7.222  1.2382 -1.8111 -0.3051
  127OSM    H9T13565   1.039   5.751   7.328  0.8234 -0.0489  1.9910
  127OSM   C10S13566   1.169   5.866   7.445  0.2213  0.0432 -0.0008
  127OSM   H10S13567   1.251   5.940   7.428 -0.3018  0.2054 -2.0788
  127OSM   H10T13568   1.221   5.770   7.464  0.1670 -0.1066 -0.6217
  127OSM   C11S13569   1.096   5.906   7.571 -0.2026 -0.5143 -0.7344
  127OSM   H11S13570   1.045   6.000   7.542 -2.5543 -1.7169 -0.7053
  127OSM   H11T13571   1.163   5.928   7.657 -1.3699 -1.8201  0.5584
  127OSM   C12S13572   0.997   5.804   7.629  0.6516  0.8116 -0.3365
  127OSM   H12S13573   1.052   5.719   7.675  0.8731  1.5623  0.8201
  127OSM   H12T13574   0.930   5.764   7.550  1.8898 -1.0392 -0.5115
  127OSM   C13S13575   0.897   5.852   7.739 -0.3431 -0.5565 -0.3302
  127OSM   H13S13576   0.835   5.773   7.786  0.2862 -0.2941  1.0070
  127OSM   H13T13577   0.824   5.928   7.702  0.3267  1.5470  2.3450
  127OSM   C14S13578   0.959   5.918   7.865  1.0010 -0.0742 -0.7939
  127OSM   H14S13579   1.026   6.005   7.849 -1.8523  2.6114  0.6715
  127OSM   H14T13580   1.008   5.833   7.916  0.1526  0.6232  1.3086
  127OSM   C15S13581   0.845   5.947   7.965  0.9807  0.5125  0.4512
  127OSM   H15S13582   0.763   5.872   7.962 -0.5347  2.0288  1.7683
  127OSM   H15T13583   0.794   6.037   7.923 -0.6195 -0.2794  0.6280
  127OSM   C16S13584   0.910   5.965   8.101  0.0674 -0.6394  0.5418
  127OSM   H16S13585   0.992   6.041   8.102  1.5837 -2.2245  0.5801
  127OSM   H16T13586   0.957   5.867   8.121 -0.4274 -1.5676 -2.4656
  127OSM   C17S13587   0.822   6.011   8.219 -0.1200  0.0796 -0.0569
  127OSM   H17S13588   0.797   6.119   8.209 -0.2600  0.0337 -0.2105
  127OSM   H17T13589   0.888   6.006   8.308 -0.2704 -3.2898  0.0129
  127OSM   C18S13590   0.692   5.936   8.243 -0.1933  0.1610  0.2259
  127OSM   H18S13591   0.627   5.947   8.153  0.4581 -0.7994 -0.3828
  127OSM   H18T13592   0.622   5.969   8.323 -2.1351 -0.9202 -0.9467
  127OSM   H18U13593   0.716   5.829   8.255  0.4464  0.4351  1.5348
  127OSM    C1F13594   1.043   5.735   6.560 -0.2297  0.3351  0.2111
  127OSM     OF13595   1.141   5.769   6.497 -0.0362  0.4314  0.2422
  127OSM    C2F13596   0.997   5.588   6.557  0.4172 -0.7476  0.0948
  127OSM    H2F13597   0.988   5.556   6.451 -1.3740 -1.4408  0.4236
  127OSM    H2G13598   0.895   5.589   6.603  0.8434  1.2910  1.1347
  127OSM    C3F13599   1.098   5.503   6.637  0.0544  0.5121  0.0990
  127OSM    H3F13600   1.201   5.546   6.629 -0.3605  1.5879  0.3198
  127OSM    H3G13601   1.098   5.397   6.605  3.5591  0.0868  1.1077
  127OSM    C4F13602   1.069   5.497   6.792  0.6400  0.1082  0.0637
  127OSM    H4F13603   0.959   5.486   6.794  0.3113  1.3124 -4.0995
  127OSM    H4G13604   1.091   5.598   6.834 -2.8941  0.0991  2.3659
  127OSM    C5F13605   1.155   5.396   6.869 -0.9065  0.2672  0.1589
  127OSM    H5F13606   1.257   5.403   6.826 -1.0152  0.8391 -0.0107
  127OSM    H5G13607   1.101   5.301   6.849 -0.7049  0.4123 -1.1952
  127OSM    C6F13608   1.166   5.414   7.020  0.1639  0.2973 -0.7266
  127OSM    H6F13609   1.060   5.408   7.053 -0.4159  0.9765 -2.3565
  127OSM    H6G13610   1.208   5.515   7.036 -0.0366  0.1712  0.7107
  127OSM    C7F13611   1.258   5.309   7.083 -0.4550 -0.0340  0.8474
  127OSM    H7F13612   1.353   5.324   7.028 -1.8135 -0.9209 -1.9455
  127OSM    H7G13613   1.204   5.218   7.048  2.0068 -1.1053 -0.3606
  127OSM    C8F13614   1.273   5.309   7.236 -0.0797 -0.2253  0.5862
  127OSM    H8F13615   1.334   5.399   7.260 -0.7489  0.5066 -0.3955
  127OSM    H8G13616   1.334   5.223   7.271 -1.0878 -0.9965  0.4928
  127OSM    C9F13617   1.138   5.320   7.301 -0.0382 -0.6518 -0.6407
  127OSM    H9F13618   1.057   5.288   7.234  0.2989 -0.8138 -0.9739
  127OSM   C10F13619   1.110   5.380   7.417  1.5506 -0.2795 -0.5305
  127OSM   H10F13620   1.010   5.378   7.462  1.4067  0.5404 -0.7966
  127OSM   C11F13621   1.216   5.438   7.504  0.5876 -0.0049  0.5335
  127OSM   H11F13622   1.237   5.544   7.479 -0.2576 -0.0869 -0.5667
  127OSM   H11G13623   1.316   5.391   7.490  1.2363  1.6170 -0.5423
  127OSM   C12F13624   1.187   5.436   7.659 -0.1118  0.3787 -0.2080
  127OSM   H12F13625   1.171   5.332   7.695 -1.4521 -0.2144 -2.3395
  127OSM   H12G13626   1.097   5.499   7.678  0.2396  1.0312 -0.6483
  127OSM   C13F13627   1.301   5.491   7.746 -0.0921  0.5312  0.6029
  127OSM   H13F13628   1.333   5.591   7.709  0.4300  0.0328 -0.3085
  127OSM   H13G13629   1.393   5.428   7.744 -0.5254 -0.2258  2.4765
  127OSM   C14F13630   1.261   5.501   7.893  0.1372 -0.3562  0.0887
  127OSM   H14F13631   1.255   5.397   7.932 -1.6189 -1.0658 -1.8694
  127OSM   H14G13632   1.160   5.547   7.896 -0.1006 -0.9239  1.7213
  127OSM   C15F13633   1.356   5.591   7.973  0.2371 -0.6637 -0.0541
  127OSM   H15F13634   1.353   5.693   7.928 -3.0100 -0.2424  0.8553
  127OSM   H15G13635   1.462   5.560   7.981  0.5365  0.1928 -0.4824
  127OSM   C16F13636   1.317   5.593   8.125  0.1610  0.2803 -0.3413
  127OSM   H16F13637   1.323   5.493   8.173  1.7569  0.1883 -0.6619
  127OSM   H16G13638   1.209   5.616   8.122 -0.7294 -3.4250 -1.0598
  127OSM   C17F13639   1.387   5.704   8.202  0.0265 -0.0274  0.5207
  127OSM   H17F13640   1.490   5.715   8.161  0.1800 -0.5247  0.7632
  127OSM   H17G13641   1.407   5.677   8.307  3.7897  1.7600  0.4152
  127OSM   C18F13642   1.304   5.834   8.197 -0.1565 -0.2319 -0.1459
  127OSM   H18F13643   1.272   5.851   8.092 -0.2233 -1.2211 -0.2972
  127OSM   H18G13644   1.364   5.924   8.223  0.6017 -0.4580 -1.0699
  127OSM   H18H13645   1.209   5.818   8.252 -1.0678 -0.2842 -1.6961
  128OSM      N13646   6.356   1.175   5.818 -0.2253  0.3964  0.6385
  128OSM    C1513647   6.454   1.128   5.713 -0.2452  1.5843  0.0090
  128OSM   H15A13648   6.558   1.126   5.742 -0.0804 -0.2362 -0.5587
  128OSM   H15B13649   6.446   1.188   5.623  1.2014  0.6735 -0.7585
  128OSM   H15C13650   6.427   1.032   5.671  0.9027  1.4352 -0.4293
  128OSM    C1413651   6.360   1.078   5.931  0.1194  0.2110 -0.0360
  128OSM   H14A13652   6.338   0.979   5.895  1.5183 -0.6871  1.4813
  128OSM   H14B13653   6.282   1.095   6.003  0.4872 -1.0288  0.6698
  128OSM   H14C13654   6.454   1.071   5.984  1.5340  1.7704 -2.1559
  128OSM    C1313655   6.378   1.316   5.868  0.0009  0.1747 -0.1947
  128OSM   H13A13656   6.360   1.388   5.789  0.5749 -2.6283 -3.1291
  128OSM   H13B13657   6.481   1.329   5.895 -0.1311  1.5978 -0.3196
  128OSM   H13C13658   6.316   1.338   5.953  0.4600  0.3225  0.1015
  128OSM    C1213659   6.210   1.180   5.767 -0.6519 -0.3710  0.8054
  128OSM   H12A13660   6.211   1.231   5.672  0.8812 -0.7135  0.6016
  128OSM   H12B13661   6.162   1.239   5.844  0.2782  0.3467  0.8613
  128OSM    C1113662   6.142   1.052   5.740  0.2999 -0.0706 -0.2447
  128OSM   H11A13663   6.198   1.006   5.655 -0.1379  1.1111 -1.2088
  128OSM   H11B13664   6.042   1.076   5.698  0.6365  0.1572 -0.9263
  128OSM      P13665   6.015   0.970   5.952  0.3667  0.0536  0.0260
  128OSM    O1313666   5.908   1.063   5.912  0.6679  0.1251 -0.5871
  128OSM    O1413667   5.984   0.837   6.005 -0.1018 -0.5750 -0.4882
  128OSM    O1113668   6.095   1.039   6.076  0.0590 -0.3006 -0.1099
  128OSM    O1213669   6.126   0.955   5.845 -0.7578  0.6540 -0.5485
  128OSM    C1S13670   6.015   1.065   6.193  0.2112 -0.4328 -0.2276
  128OSM    H1S13671   5.908   1.090   6.174  1.0334  3.2456 -0.9793
  128OSM    H1T13672   6.061   1.155   6.239 -0.7513 -0.5618  1.0331
  128OSM     NF13673   5.966   1.010   6.425 -0.0106 -0.2612  0.3014
  128OSM    HNF13674   6.034   1.073   6.460  1.2555  0.8746 -3.6675
  128OSM    C2S13675   6.026   0.953   6.297  0.5486  0.0296 -0.6250
  128OSM    H2S13676   5.968   0.867   6.257  0.7737  0.6005 -2.2291
  128OSM    C3S13677   6.175   0.906   6.315  0.2648 -0.0340  0.2106
  128OSM    H3S13678   6.245   0.990   6.296  2.1691 -0.9069  2.8335
  128OSM     O313679   6.207   0.812   6.208  0.2935 -0.5633 -0.6251
  128OSM    HO313680   6.126   0.805   6.157  0.2263  0.5747 -0.6988
  128OSM    C4S13681   6.203   0.833   6.444 -0.0138 -0.1156 -0.0491
  128OSM    H4S13682   6.135   0.750   6.466  1.6121 -0.9452  2.3299
  128OSM    C5S13683   6.295   0.872   6.528  0.7409  0.4613  0.4511
  128OSM    H5S13684   6.354   0.965   6.523  1.0222  0.2436 -0.3117
  128OSM    C6S13685   6.305   0.802   6.664  0.1559 -0.6449 -0.2364
  128OSM    H6S13686   6.322   0.693   6.658 -1.0113 -0.8291 -0.2886
  128OSM    H6T13687   6.213   0.815   6.724  0.8801  0.4440  0.6871
  128OSM    C7S13688   6.432   0.837   6.749  0.1488  0.5524 -0.7567
  128OSM    H7S13689   6.434   0.947   6.768  1.9031  0.7562 -1.9108
  128OSM    H7T13690   6.521   0.805   6.691 -0.5986  0.2785 -1.7848
  128OSM    C8S13691   6.434   0.768   6.889  0.1197  0.0644  0.3148
  128OSM    H8S13692   6.536   0.777   6.933  0.3186  2.7610 -0.4674
  128OSM    H8T13693   6.427   0.659   6.869 -0.0161  0.2615 -0.7747
  128OSM    C9S13694   6.324   0.817   6.977  0.2020 -0.0437 -0.1346
  128OSM    H9S13695   6.224   0.810   6.930 -0.3317 -3.3534  1.2350
  128OSM    H9T13696   6.348   0.924   6.997  1.6637 -0.2079 -0.8592
  128OSM   C10S13697   6.328   0.727   7.106 -0.0442 -0.4801  0.6184
  128OSM   H10S13698   6.436   0.717   7.129  0.7746  1.3204 -1.9444
  128OSM   H10T13699   6.278   0.630   7.085 -0.1646 -0.3967  0.5176
  128OSM   C11S13700   6.249   0.788   7.221 -0.0811  0.5546 -0.2245
  128OSM   H11S13701   6.143   0.812   7.198 -0.1545  0.8828  0.4147
  128OSM   H11T13702   6.291   0.888   7.243 -0.6249  0.6957  0.1873
  128OSM   C12S13703   6.259   0.705   7.351 -0.2303  0.8248  0.1522
  128OSM   H12S13704   6.367   0.679   7.365 -0.2000  1.1061  0.4498
  128OSM   H12T13705   6.219   0.605   7.324  0.8923  0.1734  0.8127
  128OSM   C13S13706   6.203   0.760   7.481 -0.3019  0.1739 -0.3561
  128OSM   H13S13707   6.093   0.770   7.465 -0.5210 -1.4597 -0.0672
  128OSM   H13T13708   6.254   0.857   7.498  0.4291 -0.3591  0.5859
  128OSM   C14S13709   6.211   0.660   7.592  0.2047 -0.4623 -1.2162
  128OSM   H14S13710   6.320   0.655   7.612  0.0299 -1.2386 -0.3435
  128OSM   H14T13711   6.163   0.571   7.546 -3.0512 -0.8234  2.3884
  128OSM   C15S13712   6.142   0.729   7.707  0.5979 -0.4082 -0.3686
  128OSM   H15S13713   6.041   0.767   7.682  1.4017  2.3880  0.2528
  128OSM   H15T13714   6.188   0.825   7.740 -0.6498  0.4588 -1.0664
  128OSM   C16S13715   6.149   0.639   7.832  0.7579  0.5398  0.2534
  128OSM   H16S13716   6.246   0.586   7.850  0.1199 -0.6854  0.2099
  128OSM   H16T13717   6.087   0.559   7.786  0.3181  1.3427 -0.5886
  128OSM   C17S13718   6.065   0.677   7.954 -1.0783 -1.0265  0.0696
  128OSM   H17S13719   6.060   0.598   8.031  3.0431 -1.9974 -0.4028
  128OSM   H17T13720   5.971   0.723   7.917  0.0866  1.4449 -0.0818
  128OSM   C18S13721   6.121   0.801   8.033 -0.6568  0.8109 -0.0385
  128OSM   H18S13722   6.207   0.773   8.097  0.9086  1.8796 -1.5647
  128OSM   H18T13723   6.044   0.843   8.101 -1.2612 -0.8828  0.3681
  128OSM   H18U13724   6.152   0.876   7.957 -3.1765 -0.0522 -2.0395
  128OSM    C1F13725   5.830   1.013   6.445  0.4673  0.1421 -0.3620
  128OSM     OF13726   5.749   0.957   6.368  0.6129 -0.0378  0.4661
  128OSM    C2F13727   5.789   1.114   6.547  0.4440  0.0319 -0.6460
  128OSM    H2F13728   5.732   1.199   6.503  0.0563  0.4260  0.5726
  128OSM    H2G13729   5.879   1.157   6.596 -0.9968  2.9663 -0.3065
  128OSM    C3F13730   5.730   1.032   6.660 -0.2221  0.3001 -0.5155
  128OSM    H3F13731   5.810   0.964   6.695  0.7988  0.4329 -2.4152
  128OSM    H3G13732   5.641   0.971   6.633  0.3143 -1.5031  1.5597
  128OSM    C4F13733   5.685   1.111   6.780  0.3299 -0.2818  0.3285
  128OSM    H4F13734   5.582   1.151   6.764 -0.3797 -2.0318  0.3114
  128OSM    H4G13735   5.742   1.206   6.776  0.3965 -0.3571 -1.0170
  128OSM    C5F13736   5.696   1.050   6.917 -0.4279 -0.6118 -0.0082
  128OSM    H5F13737   5.798   1.019   6.945  0.3845  2.4564  0.8363
  128OSM    H5G13738   5.625   0.965   6.926  0.1444 -1.4500 -2.5891
  128OSM    C6F13739   5.650   1.156   7.022  0.0083  0.5961 -0.3568
  128OSM    H6F13740   5.539   1.153   7.014 -0.1243 -0.6416  1.3373
  128OSM    H6G13741   5.703   1.252   7.010 -1.1023  1.2373 -0.2227
  128OSM    C7F13742   5.686   1.099   7.161 -0.6222 -0.1218 -0.0367
  128OSM    H7F13743   5.797   1.094   7.165 -0.5303  1.4211  4.4080
  128OSM    H7G13744   5.645   0.996   7.157 -3.6950  1.0163 -1.2608
  128OSM    C8F13745   5.627   1.188   7.268  0.7388 -0.0824 -0.3931
  128OSM    H8F13746   5.609   1.115   7.350 -1.7414  1.0261  0.1487
  128OSM    H8G13747   5.525   1.223   7.241  0.2915  0.5697  1.9204
  128OSM    C9F13748   5.722   1.302   7.309 -0.1035  1.1286  0.7189
  128OSM    H9F13749   5.793   1.337   7.233 -0.3134  0.7619  0.3479
  128OSM   C10F13750   5.723   1.364   7.429  0.3158 -0.4192  0.3639
  128OSM   H10F13751   5.801   1.440   7.446  1.3543 -0.8996 -1.9459
  128OSM   C11F13752   5.637   1.332   7.548 -0.0165 -0.5213  0.0365
  128OSM   H11F13753   5.661   1.233   7.592  0.5632 -0.5692 -0.3705
  128OSM   H11G13754   5.532   1.321   7.515 -1.1696  1.6359  2.6288
  128OSM   C12F13755   5.642   1.436   7.658 -0.3839 -0.1111 -0.1115
  128OSM   H12F13756   5.668   1.538   7.623 -1.9867  1.0753  1.9068
  128OSM   H12G13757   5.718   1.401   7.731  1.7705  1.8462 -1.2497
  128OSM   C13F13758   5.513   1.450   7.740  1.0689  0.7731  0.1002
  128OSM   H13F13759   5.503   1.359   7.802 -0.1282  0.8598  0.0559
  128OSM   H13G13760   5.424   1.455   7.673  1.4324 -0.1788 -0.4782
  128OSM   C14F13761   5.514   1.582   7.819 -0.2934  0.5731  0.4279
  128OSM   H14F13762   5.546   1.662   7.749 -0.9119  0.0048 -0.5155
  128OSM   H14G13763   5.579   1.562   7.907 -0.7139  0.2800  0.6758
  128OSM   C15F13764   5.385   1.620   7.890 -0.2760 -0.9480  0.1542
  128OSM   H15F13765   5.388   1.542   7.969  0.6406  1.1847  2.3419
  128OSM   H15G13766   5.301   1.617   7.817  0.3835  2.5286 -0.9014
  128OSM   C16F13767   5.384   1.766   7.939  0.2534 -0.0853 -0.5651
  128OSM   H16F13768   5.282   1.808   7.939 -0.9222 -2.5568 -3.4239
  128OSM   H16G13769   5.422   1.834   7.860 -3.6745  2.0342 -0.8580
  128OSM   C17F13770   5.436   1.779   8.083  0.2113  0.9165 -0.0040
  128OSM   H17F13771   5.525   1.845   8.084 -0.9121  2.4722  0.8081
  128OSM   H17G13772   5.458   1.685   8.138  1.8247  1.4402  0.3050
  128OSM   C18F13773   5.328   1.854   8.164  0.2279  0.7573 -0.6295
  128OSM   H18F13774   5.235   1.793   8.156  0.7216  0.0299 -1.0168
  128OSM   H18G13775   5.309   1.955   8.121  1.0154  0.2901 -2.1672
  128OSM   H18H13776   5.361   1.856   8.269  0.8813 -0.8850 -0.7681
  129OSM      N13777   5.451   3.332   5.949  0.1053 -0.1731  0.1226
  129OSM    C1513778   5.321   3.369   5.888 -0.4266  0.2730 -0.9881
  129OSM   H15A13779   5.331   3.418   5.792  0.1392  2.6755  0.2311
  129OSM   H15B13780   5.269   3.433   5.959  2.3182 -0.1063  1.5461
  129OSM   H15C13781   5.257   3.282   5.879 -1.6708  1.1394 -0.8606
  129OSM    C1413782   5.519   3.236   5.852  0.5306  0.2623 -0.6710
  129OSM   H14A13783   5.511   3.267   5.749  1.8923  1.9356 -0.3316
  129OSM   H14B13784   5.489   3.133   5.860  0.3420  0.3501 -0.2194
  129OSM   H14C13785   5.622   3.231   5.884  0.3039 -0.9177 -0.0841
  129OSM    C1313786   5.545   3.445   5.968 -0.3052 -0.1540 -0.6172
  129OSM   H13A13787   5.543   3.501   5.875  1.2089 -0.2974 -0.7601
  129OSM   H13B13788   5.650   3.428   5.986 -0.0646 -0.7023 -2.3115
  129OSM   H13C13789   5.493   3.510   6.037  0.7117 -0.6597  0.6746
  129OSM    C1213790   5.427   3.258   6.077  0.0395 -0.6946  0.2769
  129OSM   H12A13791   5.523   3.221   6.109  0.2014 -0.0457  0.5750
  129OSM   H12B13792   5.369   3.171   6.052 -1.8271 -0.1055  2.2524
  129OSM    C1113793   5.357   3.318   6.200  0.2074 -0.8116  0.4521
  129OSM   H11A13794   5.404   3.417   6.215  0.1689 -0.6541 -0.4046
  129OSM   H11B13795   5.374   3.258   6.291  0.6338 -0.1204  0.8340
  129OSM      P13796   5.108   3.244   6.158 -0.1880  0.2223 -0.1679
  129OSM    O1313797   5.046   3.253   6.023 -0.6579 -0.4442  0.6778
  129OSM    O1413798   5.171   3.116   6.206 -0.0419  0.0807  0.0076
  129OSM    O1113799   4.992   3.293   6.256  0.1744 -0.1452 -0.2335
  129OSM    O1213800   5.218   3.356   6.164 -0.3117  0.9576  0.1519
  129OSM    C1S13801   5.013   3.311   6.398  0.7099  0.4354 -0.1915
  129OSM    H1S13802   5.118   3.332   6.430  0.1514  0.7987  1.5488
  129OSM    H1T13803   4.984   3.214   6.443 -0.2602 -0.3588 -2.4251
  129OSM     NF13804   4.953   3.465   6.587  0.2831  0.1692 -0.0803
  129OSM    HNF13805   4.884   3.425   6.647 -1.0956  1.5365 -0.6906
  129OSM    C2S13806   4.914   3.423   6.449 -1.1032 -0.7883 -0.0970
  129OSM    H2S13807   4.933   3.516   6.390  0.6926 -0.7974  0.3934
  129OSM    C3S13808   4.764   3.388   6.431 -0.3320 -0.1569  0.2664
  129OSM    H3S13809   4.736   3.302   6.496  1.7671 -2.1027 -1.2260
  129OSM     O313810   4.731   3.335   6.304 -0.4785  0.3704  0.6329
  129OSM    HO313811   4.796   3.267   6.286  1.4863  1.8077  1.8004
  129OSM    C4S13812   4.669   3.502   6.468 -0.5454 -0.0294 -0.2122
  129OSM    H4S13813   4.691   3.603   6.430  1.8676 -0.5510 -0.3378
  129OSM    C5S13814   4.564   3.482   6.547  0.0220  0.0081 -0.0991
  129OSM    H5S13815   4.552   3.383   6.591 -0.5521  0.0299 -0.1913
  129OSM    C6S13816   4.468   3.590   6.602 -0.4858  0.1285  0.7350
  129OSM    H6S13817   4.366   3.546   6.597 -0.3010 -0.1952 -0.5223
  129OSM    H6T13818   4.463   3.678   6.535 -0.9182  1.4241  2.3783
  129OSM    C7S13819   4.505   3.631   6.750  0.4460 -0.1541 -0.3660
  129OSM    H7S13820   4.521   3.543   6.815  0.5190  0.5708  0.6238
  129OSM    H7T13821   4.424   3.686   6.802  1.7281 -0.4387  2.0552
  129OSM    C8S13822   4.639   3.715   6.755 -0.0695 -0.2248  0.4274
  129OSM    H8S13823   4.613   3.808   6.702  0.9983 -1.2102 -1.9639
  129OSM    H8T13824   4.711   3.663   6.688  0.2330 -0.5715  1.0016
  129OSM    C9S13825   4.684   3.741   6.898 -0.3021  0.5379  0.6719
  129OSM    H9S13826   4.595   3.754   6.963 -0.3461 -0.2314  0.7743
  129OSM    H9T13827   4.758   3.824   6.903  1.3158 -0.3504 -3.6659
  129OSM   C10S13828   4.760   3.619   6.953  0.2499 -0.0000  0.0451
  129OSM   H10S13829   4.829   3.586   6.872 -0.6672 -1.9319 -0.0115
  129OSM   H10T13830   4.685   3.538   6.959 -0.4338  0.7125  1.6881
  129OSM   C11S13831   4.823   3.650   7.083  1.0055 -0.3441  0.2074
  129OSM   H11S13832   4.885   3.741   7.066 -0.4618  0.5719 -0.4919
  129OSM   H11T13833   4.880   3.557   7.099 -1.3779 -2.1725 -1.3239
  129OSM   C12S13834   4.747   3.691   7.212  0.1713 -0.5197  0.6543
  129OSM   H12S13835   4.666   3.619   7.238  0.2862 -0.2755  1.7566
  129OSM   H12T13836   4.697   3.786   7.183  0.7325 -0.7117 -1.0395
  129OSM   C13S13837   4.836   3.718   7.332 -1.0733 -0.2008  0.2846
  129OSM   H13S13838   4.886   3.816   7.320  0.5840 -1.0234  0.2227
  129OSM   H13T13839   4.907   3.633   7.330 -0.5496  0.2446 -0.3040
  129OSM   C14S13840   4.765   3.716   7.460 -0.0132  0.2303 -0.9519
  129OSM   H14S13841   4.708   3.626   7.493  2.0845 -0.4433  1.1521
  129OSM   H14T13842   4.695   3.803   7.453 -1.6582 -1.1194 -2.0611
  129OSM   C15S13843   4.864   3.746   7.571  0.0153 -0.5836  0.2968
  129OSM   H15S13844   4.940   3.817   7.531  2.6909 -1.6633  3.0765
  129OSM   H15T13845   4.912   3.649   7.595  1.8361  0.5177  1.3033
  129OSM   C16S13846   4.804   3.817   7.696  0.3022  0.2749 -0.1517
  129OSM   H16S13847   4.703   3.775   7.713 -0.2163  1.9071  1.0120
  129OSM   H16T13848   4.799   3.926   7.673  0.5608  0.2175 -0.4876
  129OSM   C17S13849   4.888   3.791   7.822 -0.7723 -0.0349 -0.4564
  129OSM   H17S13850   4.994   3.815   7.802 -0.1800 -2.0173  0.1138
  129OSM   H17T13851   4.880   3.684   7.851  1.9454 -0.4789 -1.1225
  129OSM   C18S13852   4.855   3.881   7.946 -0.5997 -0.0599 -0.3411
  129OSM   H18S13853   4.745   3.893   7.947 -0.5117  0.9671  1.7871
  129OSM   H18T13854   4.914   3.973   7.927  0.3363 -0.3335  1.0947
  129OSM   H18U13855   4.886   3.838   8.044 -0.3892  0.4792 -0.1643
  129OSM    C1F13856   5.065   3.520   6.628 -0.2192 -0.1475  0.7788
  129OSM     OF13857   5.144   3.556   6.547 -0.3980  0.0214  0.0477
  129OSM    C2F13858   5.088   3.521   6.771  0.5523 -0.8942  0.3119
  129OSM    H2F13859   5.029   3.441   6.820 -0.7575  0.0287  0.3038
  129OSM    H2G13860   5.045   3.619   6.803 -1.1274 -1.2284 -0.8099
  129OSM    C3F13861   5.235   3.513   6.817 -0.3947 -0.1261  0.2753
  129OSM    H3F13862   5.296   3.592   6.768  2.6832 -2.9891 -0.9504
  129OSM    H3G13863   5.273   3.414   6.784  0.8985  0.3801  0.1633
  129OSM    C4F13864   5.250   3.543   6.967  0.4927  0.7469 -0.0613
  129OSM    H4F13865   5.334   3.481   7.006 -0.5155 -0.6282  0.0265
  129OSM    H4G13866   5.170   3.495   7.028  1.1784  0.2475  0.4621
  129OSM    C5F13867   5.263   3.682   7.013 -0.0770  1.1017 -0.2535
  129OSM    H5F13868   5.165   3.734   7.004 -0.3529  0.2882 -2.8322
  129OSM    H5G13869   5.337   3.731   6.947 -2.4067 -0.0104 -4.0727
  129OSM    C6F13870   5.308   3.685   7.160  0.9169  0.2250 -0.0056
  129OSM    H6F13871   5.343   3.789   7.175  1.2221  0.3077 -1.2494
  129OSM    H6G13872   5.388   3.620   7.202 -1.5404 -2.1530  1.3692
  129OSM    C7F13873   5.191   3.654   7.259  0.1813  0.4076 -0.0163
  129OSM    H7F13874   5.165   3.546   7.263 -1.3991  0.7991  1.5380
  129OSM    H7G13875   5.102   3.712   7.226 -1.0120 -0.2260  1.8963
  129OSM    C8F13876   5.214   3.710   7.405 -0.8243  0.0738  0.4001
  129OSM    H8F13877   5.119   3.698   7.461 -0.6684  0.0379  0.6551
  129OSM    H8G13878   5.221   3.820   7.390  0.1494 -0.3200 -3.0036
  129OSM    C9F13879   5.341   3.668   7.468 -0.5506  0.1163  0.0503
  129OSM    H9F13880   5.433   3.671   7.407 -1.2937 -0.4141 -1.1439
  129OSM   C10F13881   5.366   3.634   7.592  0.1312  0.3489 -0.3139
  129OSM   H10F13882   5.470   3.603   7.607  0.1197 -0.9358 -2.4738
  129OSM   C11F13883   5.265   3.617   7.701 -0.2256 -0.5740  0.7308
  129OSM   H11F13884   5.277   3.519   7.752 -0.8242 -0.0900  1.8360
  129OSM   H11G13885   5.162   3.615   7.660  0.2617 -1.2308 -0.5304
  129OSM   C12F13886   5.281   3.736   7.800 -0.3314  0.3020  1.1068
  129OSM   H12F13887   5.208   3.713   7.880 -0.3280 -2.2554  0.4737
  129OSM   H12G13888   5.251   3.832   7.753  0.4373  0.3841  0.7640
  129OSM   C13F13889   5.421   3.738   7.862  0.2205 -0.2882  0.2513
  129OSM   H13F13890   5.419   3.818   7.939 -0.6772  1.7062 -1.7270
  129OSM   H13G13891   5.495   3.768   7.785 -0.8704 -3.1255 -2.0592
  129OSM   C14F13892   5.454   3.616   7.944 -0.7236  1.3856  0.2193
  129OSM   H14F13893   5.463   3.521   7.888  2.5244  2.1421 -0.7884
  129OSM   H14G13894   5.380   3.598   8.025 -1.5491 -0.8198 -0.9453
  129OSM   C15F13895   5.588   3.637   8.007 -0.2286 -0.9014 -0.5006
  129OSM   H15F13896   5.580   3.709   8.092 -0.5873 -0.3032 -1.0289
  129OSM   H15G13897   5.651   3.679   7.926 -0.9498 -1.1664 -1.2080
  129OSM   C16F13898   5.665   3.512   8.054  0.5394 -0.6532 -0.2503
  129OSM   H16F13899   5.680   3.454   7.960 -0.7726 -0.1579 -0.7879
  129OSM   H16G13900   5.590   3.462   8.120  1.5141 -1.7248  0.0818
  129OSM   C17F13901   5.799   3.544   8.113  0.0879  0.0884 -0.0308
  129OSM   H17F13902   5.779   3.611   8.199 -0.8685 -2.0859  1.5516
  129OSM   H17G13903   5.859   3.617   8.054  0.1161  1.6421  1.8229
  129OSM   C18F13904   5.866   3.417   8.157 -1.2348  0.8981  0.0658
  129OSM   H18F13905   5.957   3.448   8.211 -1.2720  0.7085  0.2417
  129OSM   H18G13906   5.888   3.363   8.063  0.7200  1.8689 -0.0701
  129OSM   H18H13907   5.799   3.358   8.225 -1.9586  0.6089 -0.8732
  130OSM      N13908   2.039   0.934   5.941  0.6147 -0.2655 -0.1933
  130OSM    C1513909   2.096   0.959   5.806 -0.1530 -0.2637 -0.2510
  130OSM   H15A13910   2.189   1.015   5.807 -0.9516  1.1365 -1.1004
  130OSM   H15B13911   2.034   1.017   5.740 -0.3050 -1.0738 -0.8465
  130OSM   H15C13912   2.125   0.865   5.759  1.1627  0.5742 -1.1912
  130OSM    C1413913   2.130   0.840   6.011  0.1569  0.2993  0.1329
  130OSM   H14A13914   2.095   0.799   6.105 -0.2716 -2.3368 -1.0834
  130OSM   H14B13915   2.229   0.880   6.028  0.1342  0.5958 -0.4177
  130OSM   H14C13916   2.149   0.759   5.942 -0.6022 -0.4843  0.8157
  130OSM    C1313917   2.036   1.071   5.999 -0.9581  0.0394 -0.4842
  130OSM   H13A13918   2.132   1.115   6.023 -0.2612 -1.9586  0.6503
  130OSM   H13B13919   1.972   1.074   6.086 -0.7069 -2.4996 -0.1470
  130OSM   H13C13920   1.988   1.133   5.926 -0.0845 -1.1396 -2.1287
  130OSM    C1213921   1.898   0.876   5.931  0.4877  0.0800  0.1692
  130OSM   H12A13922   1.909   0.796   5.859  0.8116  1.6665 -1.6150
  130OSM   H12B13923   1.845   0.949   5.872  2.9664  2.2235  0.4047
  130OSM    C1113924   1.829   0.840   6.066 -0.4263 -0.0392  0.3368
  130OSM   H11A13925   1.902   0.777   6.121  0.9195  1.7878  0.7407
  130OSM   H11B13926   1.737   0.783   6.041 -0.0358 -0.2750 -0.6438
  130OSM      P13927   1.665   1.043   6.104  0.4065  0.3962 -0.0300
  130OSM    O1313928   1.682   1.182   6.147 -0.2580 -1.3320 -0.1803
  130OSM    O1413929   1.622   1.021   5.962 -0.1780  0.1341  0.0512
  130OSM    O1113930   1.551   0.977   6.195 -0.6511  0.0504 -0.8704
  130OSM    O1213931   1.803   0.963   6.138 -0.4210 -0.4866  0.4947
  130OSM    C1S13932   1.590   0.955   6.339  0.3696  0.3317  0.3679
  130OSM    H1S13933   1.692   0.914   6.356 -0.0852  0.1648  3.2466
  130OSM    H1T13934   1.516   0.882   6.379  0.7289 -0.0433  0.3533
  130OSM     NF13935   1.592   1.050   6.566  0.0738  0.0763  0.1038
  130OSM    HNF13936   1.509   1.023   6.613 -0.0126 -0.7020 -0.4729
  130OSM    C2S13937   1.577   1.088   6.427 -0.0327  0.3585  0.6804
  130OSM    H2S13938   1.661   1.157   6.406  1.3232 -1.1887  0.8624
  130OSM    C3S13939   1.437   1.165   6.407 -0.2252  0.0881 -0.3064
  130OSM    H3S13940   1.351   1.096   6.420  0.5631 -0.6321  1.3087
  130OSM     O313941   1.420   1.219   6.279  0.1112 -0.0830  0.3048
  130OSM    HO313942   1.502   1.196   6.234  0.6240 -1.1594  1.7322
  130OSM    C4S13943   1.426   1.278   6.512  0.1164  0.7111  0.0685
  130OSM    H4S13944   1.498   1.361   6.503 -0.0715  1.0979  1.7532
  130OSM    C5S13945   1.338   1.284   6.611  0.1091 -0.2822 -0.7513
  130OSM    H5S13946   1.262   1.207   6.632 -1.7087  2.1059  2.3811
  130OSM    C6S13947   1.321   1.396   6.711 -0.2020 -0.0765 -0.1310
  130OSM    H6S13948   1.238   1.460   6.675  0.1264  0.9667  0.9265
  130OSM    H6T13949   1.414   1.456   6.699 -0.9661  0.6521 -3.4676
  130OSM    C7S13950   1.317   1.349   6.862  0.0385 -0.0321  1.2799
  130OSM    H7S13951   1.418   1.309   6.887 -0.0107 -0.0243  1.4937
  130OSM    H7T13952   1.247   1.263   6.864 -1.5761  1.2269  0.9072
  130OSM    C8S13953   1.264   1.459   6.951  0.1523  0.4272  0.4372
  130OSM    H8S13954   1.175   1.514   6.915 -0.3324 -2.1525 -2.7051
  130OSM    H8T13955   1.347   1.533   6.948 -0.8651  1.5752 -1.3251
  130OSM    C9S13956   1.225   1.422   7.089  0.8521  0.3328 -0.1009
  130OSM    H9S13957   1.133   1.361   7.078  0.6703  0.0357  2.4651
  130OSM    H9T13958   1.192   1.509   7.149 -1.7397 -0.3342 -0.4369
  130OSM   C10S13959   1.327   1.334   7.157 -0.3076  0.0671  0.1703
  130OSM   H10S13960   1.426   1.384   7.158  0.9252 -2.1300 -1.9998
  130OSM   H10T13961   1.348   1.243   7.097  1.1349  1.3838 -1.4031
  130OSM   C11S13962   1.287   1.295   7.299 -0.0066  0.2687  0.0314
  130OSM   H11S13963   1.350   1.206   7.321  1.5483  1.0600 -1.0614
  130OSM   H11T13964   1.182   1.260   7.307  0.2322 -0.3555  0.5748
  130OSM   C12S13965   1.301   1.409   7.400 -0.1373  0.1016  0.6914
  130OSM   H12S13966   1.243   1.500   7.376  2.1703  2.0422  2.0791
  130OSM   H12T13967   1.403   1.452   7.390 -0.8213  1.6625  0.0527
  130OSM   C13S13968   1.267   1.379   7.550 -0.4324 -1.0961  0.4601
  130OSM   H13S13969   1.346   1.310   7.587  0.8530  0.4011  0.6194
  130OSM   H13T13970   1.172   1.322   7.555  0.6746 -3.0811 -0.0257
  130OSM   C14S13971   1.270   1.507   7.632  0.4119  0.0838  0.3657
  130OSM   H14S13972   1.189   1.577   7.603  0.0405 -1.0776 -1.4904
  130OSM   H14T13973   1.363   1.561   7.603  0.4486 -0.5964 -0.8391
  130OSM   C15S13974   1.262   1.484   7.784  0.3538  0.3419 -0.0807
  130OSM   H15S13975   1.197   1.396   7.804  0.2998  0.6482  1.1374
  130OSM   H15T13976   1.220   1.576   7.830 -2.0283 -0.6355 -0.1251
  130OSM   C16S13977   1.393   1.442   7.851  0.1797  0.0462  0.3779
  130OSM   H16S13978   1.466   1.525   7.835  2.1356 -1.7261 -0.3213
  130OSM   H16T13979   1.443   1.352   7.808  0.3402  1.0548 -1.7076
  130OSM   C17S13980   1.384   1.414   8.004 -0.4134  0.0493 -0.2210
  130OSM   H17S13981   1.319   1.328   8.028  0.1572 -0.5714 -0.8597
  130OSM   H17T13982   1.333   1.501   8.050 -1.4894  0.0485 -1.3673
  130OSM   C18S13983   1.527   1.383   8.062 -0.2850  0.0209 -0.0796
  130OSM   H18S13984   1.532   1.368   8.172 -0.1583 -0.5371 -0.1600
  130OSM   H18T13985   1.601   1.464   8.047 -0.9858  0.9303  1.1622
  130OSM   H18U13986   1.565   1.292   8.013  0.7885  0.0900  0.6046
  130OSM    C1F13987   1.711   1.010   6.613  0.1473 -0.0106 -0.0858
  130OSM     OF13988   1.817   1.003   6.543 -0.1924 -0.1775 -0.1307
  130OSM    C2F13989   1.721   0.960   6.760  0.0969 -0.5078  0.8836
  130OSM    H2F13990   1.811   1.014   6.797  0.4335 -0.3732 -0.1009
  130OSM    H2G13991   1.756   0.855   6.763 -0.9939 -0.9604 -0.7081
  130OSM    C3F13992   1.596   0.981   6.840  0.3223  0.8128 -0.0237
  130OSM    H3F13993   1.514   0.915   6.806  0.9545 -1.1249  1.9631
  130OSM    H3G13994   1.551   1.083   6.838 -0.1789  0.5797 -1.8157
  130OSM    C4F13995   1.607   0.936   6.986  0.2825 -0.3834  0.2957
  130OSM    H4F13996   1.679   1.001   7.041  0.0570  0.6558 -0.5887
  130OSM    H4G13997   1.639   0.830   6.998  0.0327 -0.2172  3.0854
  130OSM    C5F13998   1.475   0.938   7.058  0.6468  0.2382  0.7681
  130OSM    H5F13999   1.401   0.857   7.038 -0.4499  1.4051 -0.0146
  130OSM    H5G14000   1.423   1.034   7.037  0.8445  0.1326 -0.2424
  130OSM    C6F14001   1.487   0.930   7.212 -0.2820  0.0216 -0.3406
  130OSM    H6F14002   1.514   1.031   7.248 -1.5134 -0.3483  1.8405
  130OSM    H6G14003   1.566   0.854   7.232 -0.9841 -0.2013  1.9130
  130OSM    C7F14004   1.364   0.891   7.293 -0.5920 -0.5172  0.2011
  130OSM    H7F14005   1.314   0.811   7.234  1.3923 -0.5968 -1.4867
  130OSM    H7G14006   1.305   0.984   7.296 -0.3414 -0.3759  1.2312
  130OSM    C8F14007   1.395   0.843   7.435  0.1878 -0.1679  0.5129
  130OSM    H8F14008   1.463   0.910   7.492  0.4413  0.1774 -0.1888
  130OSM    H8G14009   1.447   0.747   7.418  3.2688  1.8243 -2.4374
  130OSM    C9F14010   1.268   0.819   7.517  0.4442  0.7900  0.4971
  130OSM    H9F14011   1.213   0.734   7.476  0.8163  1.5265 -1.6584
  130OSM   C10F14012   1.216   0.886   7.624  0.1362 -0.1927 -0.6734
  130OSM   H10F14013   1.116   0.862   7.660 -0.1653 -0.3152 -1.5545
  130OSM   C11F14014   1.276   1.005   7.696  0.0145  0.5132 -0.5736
  130OSM   H11F14015   1.257   1.101   7.643 -2.5179 -0.6877 -1.9966
  130OSM   H11G14016   1.386   0.995   7.698  0.0230  0.4394  1.6604
  130OSM   C12F14017   1.223   1.025   7.837  0.2861 -0.3161  0.8743
  130OSM   H12F14018   1.267   1.110   7.893 -0.1143  1.8464 -1.8755
  130OSM   H12G14019   1.223   0.936   7.903  0.9426 -0.9945 -0.0085
  130OSM   C13F14020   1.073   1.078   7.837  0.3838 -0.2249  0.4935
  130OSM   H13F14021   1.012   1.010   7.774 -1.5093  0.5945  1.3721
  130OSM   H13G14022   1.072   1.177   7.786  0.0445 -1.5642 -2.3284
  130OSM   C14F14023   1.015   1.086   7.977  0.3920  0.1231 -0.2498
  130OSM   H14F14024   1.082   1.150   8.037 -1.9296  0.9911  1.5469
  130OSM   H14G14025   1.029   0.983   8.017 -0.8690  0.1655  0.3400
  130OSM   C15F14026   0.877   1.145   7.986  0.7283  0.8035 -0.0628
  130OSM   H15F14027   0.803   1.062   7.998  3.4271 -1.7342  0.1196
  130OSM   H15G14028   0.852   1.226   7.914 -0.0126  1.4382  0.8742
  130OSM   C16F14029   0.855   1.218   8.119 -0.5355  0.0183  0.5376
  130OSM   H16F14030   0.892   1.155   8.203 -1.6574  0.4487  1.3794
  130OSM   H16G14031   0.746   1.235   8.129 -0.2008  1.8570  1.5321
  130OSM   C17F14032   0.934   1.353   8.120  0.0440  0.4651 -0.8482
  130OSM   H17F14033   0.899   1.405   8.028 -4.1505  1.7350  1.1940
  130OSM   H17G14034   1.044   1.337   8.125  0.3192  2.3718  1.0281
  130OSM   C18F14035   0.900   1.443   8.239  0.3336  1.2372 -0.5875
  130OSM   H18F14036   0.940   1.404   8.335 -0.9362  0.6192 -0.2815
  130OSM   H18G14037   0.790   1.460   8.241  0.1772  0.3662 -1.4552
  130OSM   H18H14038   0.937   1.548   8.234  1.9605  0.6220 -2.4111
  131OSM      N14039   0.084   5.562   5.831  0.5583  0.0255  0.0877
  131OSM    C1514040   0.231   5.579   5.793 -0.6127  0.5434  0.2164
  131OSM   H15A14041   0.285   5.556   5.883 -1.5576 -0.2966  0.5795
  131OSM   H15B14042   0.252   5.678   5.753 -0.2305  0.1688 -0.5335
  131OSM   H15C14043   0.258   5.514   5.712 -0.8849  2.7951 -1.8028
  131OSM    C1414044   0.002   5.592   5.711 -0.5768 -0.5657 -0.0840
  131OSM   H14A14045   0.023   5.522   5.631  0.7878 -1.2189  0.8050
  131OSM   H14B14046   0.021   5.692   5.674  0.7182  0.0074  1.9874
  131OSM   H14C14047  -0.103   5.595   5.738 -0.3113  2.4935  1.0048
  131OSM    C1314048   0.039   5.424   5.878 -0.9862  0.0088  0.4666
  131OSM   H13A14049   0.046   5.361   5.791 -1.1274 -0.4420  0.7789
  131OSM   H13B14050  -0.059   5.434   5.923 -1.7632 -1.0037 -0.9294
  131OSM   H13C14051   0.099   5.368   5.948  0.0052 -0.6755 -0.8927
  131OSM    C1214052   0.057   5.665   5.944 -0.2083  0.1521 -0.3818
  131OSM   H12A14053   0.092   5.762   5.912  1.3560  0.0903  0.9925
  131OSM   H12B14054   0.133   5.635   6.016  0.4792 -1.0808 -1.5606
  131OSM    C1114055  -0.085   5.669   6.009 -0.1080  0.7015 -0.0957
  131OSM   H11A14056  -0.087   5.754   6.081 -1.1510 -0.4609  1.3170
  131OSM   H11B14057  -0.104   5.575   6.066  0.8254  0.5590  0.0039
  131OSM      P14058  -0.326   5.616   5.920  0.4875  0.2011  0.0074
  131OSM    O1314059  -0.409   5.652   5.799  0.5163 -0.1749  0.0005
  131OSM    O1414060  -0.307   5.474   5.949 -0.5546  0.0327  0.8351
  131OSM    O1114061  -0.389   5.673   6.057 -0.1051  0.9813  0.2836
  131OSM    O1214062  -0.192   5.701   5.907 -0.3458 -0.6918  0.1624
  131OSM    C1S14063  -0.405   5.815   6.077 -0.2519 -0.3257  0.4379
  131OSM    H1S14064  -0.489   5.854   6.016  0.1327 -1.5263 -0.9154
  131OSM    H1T14065  -0.313   5.876   6.072 -1.1783  1.2581  1.8435
  131OSM     NF14066  -0.451   5.980   6.263 -0.9439  0.3225 -0.1360
  131OSM    HNF14067  -0.358   6.014   6.277 -1.1123  1.5797 -1.8262
  131OSM    C2S14068  -0.447   5.839   6.231 -0.7002  1.2209  0.2883
  131OSM    H2S14069  -0.547   5.801   6.256 -0.0764 -0.9720 -0.3734
  131OSM    C3S14070  -0.350   5.752   6.323  0.3783 -0.2186  0.0658
  131OSM    H3S14071  -0.244   5.767   6.292  0.0103  0.3008 -0.9896
  131OSM     O314072  -0.354   5.605   6.315  0.3948  0.0185 -0.1468
  131OSM    HO314073  -0.362   5.580   6.223  0.9206 -0.4074 -0.0793
  131OSM    C4S14074  -0.357   5.784   6.469  0.2154 -0.6035  0.2014
  131OSM    H4S14075  -0.455   5.779   6.518  0.3963  0.0280  0.6382
  131OSM    C5S14076  -0.253   5.833   6.537  0.0022 -0.2173 -1.1029
  131OSM    H5S14077  -0.154   5.835   6.489  1.3957 -2.1127  1.4056
  131OSM    C6S14078  -0.257   5.863   6.686 -0.1103 -0.1179  0.1179
  131OSM    H6S14079  -0.160   5.837   6.735  0.5764  0.2023 -1.0463
  131OSM    H6T14080  -0.320   5.791   6.744 -0.3869 -0.2727 -0.3732
  131OSM    C7S14081  -0.298   6.004   6.728  0.4307  0.6874  0.3177
  131OSM    H7S14082  -0.375   6.050   6.662  0.9134  0.2591 -0.5615
  131OSM    H7T14083  -0.208   6.067   6.717 -0.1380  2.1130  3.0214
  131OSM    C8S14084  -0.358   6.012   6.868 -0.5703 -0.1507 -0.0712
  131OSM    H8S14085  -0.428   5.927   6.880  0.6552 -1.0207  1.3539
  131OSM    H8T14086  -0.398   6.113   6.892  0.7488 -0.0708  2.1118
  131OSM    C9S14087  -0.260   5.988   6.979 -0.3836  0.8069  0.3857
  131OSM    H9S14088  -0.165   6.039   6.954 -0.4990  0.4791 -0.7249
  131OSM    H9T14089  -0.227   5.883   6.992 -0.8806  0.8802  2.8271
  131OSM   C10S14090  -0.315   6.038   7.117 -0.7327  0.0367 -0.1331
  131OSM   H10S14091  -0.359   6.140   7.117 -1.8044 -0.4061 -0.5714
  131OSM   H10T14092  -0.228   6.050   7.184 -2.2250 -0.5675  2.0455
  131OSM   C11S14093  -0.400   5.929   7.186  0.5137 -0.3720 -0.0724
  131OSM   H11S14094  -0.347   5.832   7.187 -0.0984 -0.7179 -0.2967
  131OSM   H11T14095  -0.491   5.917   7.124  0.6868  1.8767 -0.8230
  131OSM   C12S14096  -0.434   5.951   7.335 -0.1548  0.1532  0.4029
  131OSM   H12S14097  -0.483   6.050   7.322  1.7115  0.7996 -2.7338
  131OSM   H12T14098  -0.340   5.970   7.390  0.9503 -2.0362 -0.6010
  131OSM   C13S14099  -0.522   5.841   7.398 -0.5340  0.3806 -0.2837
  131OSM   H13S14100  -0.456   5.753   7.411  0.5955  1.0822 -1.0780
  131OSM   H13T14101  -0.607   5.800   7.339 -2.1546 -1.1818  2.8976
  131OSM   C14S14102  -0.575   5.869   7.541  0.5531  0.4878  0.8905
  131OSM   H14S14103  -0.637   5.779   7.562 -1.0152  0.9376 -1.3715
  131OSM   H14T14104  -0.642   5.957   7.532 -0.8523 -0.7376 -1.8401
  131OSM   C15S14105  -0.470   5.902   7.644 -0.2094  0.1838  0.1711
  131OSM   H15S14106  -0.415   5.993   7.611  0.3365 -0.3992 -0.5799
  131OSM   H15T14107  -0.392   5.823   7.651 -0.2946 -0.2594 -2.8290
  131OSM   C16S14108  -0.529   5.932   7.780 -0.0105 -0.1536 -0.2047
  131OSM   H16S14109  -0.594   5.851   7.818  0.9005 -1.1877 -0.7728
  131OSM   H16T14110  -0.586   6.026   7.765  0.9872  0.1926 -2.1461
  131OSM   C17S14111  -0.420   5.952   7.891 -0.1804 -0.5922 -0.9190
  131OSM   H17S14112  -0.354   6.034   7.856 -0.8399 -0.2439 -1.3820
  131OSM   H17T14113  -0.360   5.859   7.903  2.4781  0.6563 -3.3098
  131OSM   C18S14114  -0.465   5.988   8.033 -0.1557 -0.6873 -0.3170
  131OSM   H18S14115  -0.382   6.027   8.095 -0.7549  1.7106 -0.9339
  131OSM   H18T14116  -0.510   5.904   8.091  0.7447 -0.4402  0.7788
  131OSM   H18U14117  -0.546   6.063   8.022  0.0528 -0.3236  0.5634
  131OSM    C1F14118  -0.543   6.061   6.209  0.0563  0.1909  0.0352
  131OSM     OF14119  -0.636   6.015   6.148 -0.0139 -0.2748  0.0076
  131OSM    C2F14120  -0.527   6.212   6.238 -0.7113  0.1334 -0.3832
  131OSM    H2F14121  -0.619   6.268   6.213 -0.8243  1.0709  1.9492
  131OSM    H2G14122  -0.443   6.245   6.173 -1.1453 -1.9146 -2.1336
  131OSM    C3F14123  -0.486   6.245   6.387  0.1354  0.0456  0.2663
  131OSM    H3F14124  -0.479   6.356   6.397  0.8673 -0.0978  1.6995
  131OSM    H3G14125  -0.384   6.202   6.404  0.5469  0.4818 -1.0226
  131OSM    C4F14126  -0.591   6.215   6.503 -0.6265  0.1867  0.8705
  131OSM    H4F14127  -0.559   6.275   6.591  3.5867  1.4511 -1.2611
  131OSM    H4G14128  -0.580   6.105   6.517  1.0681  0.3204  0.7529
  131OSM    C5F14129  -0.736   6.230   6.460 -0.0427  0.0485 -0.5162
  131OSM    H5F14130  -0.750   6.154   6.380  0.3894 -2.4645  1.6415
  131OSM    H5G14131  -0.740   6.330   6.412  1.2154  1.1082  1.4432
  131OSM    C6F14132  -0.845   6.222   6.567 -0.1334 -0.0904 -0.1995
  131OSM    H6F14133  -0.816   6.136   6.631  1.7330  1.9137  1.8676
  131OSM    H6G14134  -0.934   6.193   6.507 -1.9987 -0.4639  2.5549
  131OSM    C7F14135  -0.878   6.351   6.643 -0.1905 -0.6654 -0.4032
  131OSM    H7F14136  -0.892   6.434   6.570  1.2362 -0.0354 -0.0063
  131OSM    H7G14137  -0.785   6.386   6.693 -0.6747  0.5128 -0.2739
  131OSM    C8F14138  -0.991   6.352   6.741  0.9786 -0.4275  0.1989
  131OSM    H8F14139  -1.073   6.291   6.698  0.4492  1.3970 -1.5213
  131OSM    H8G14140  -1.020   6.458   6.754 -0.3600 -0.9193  1.4512
  131OSM    C9F14141  -0.954   6.274   6.866 -0.1434 -0.0697  0.0699
  131OSM    H9F14142  -0.859   6.219   6.860  0.1676  0.5412 -0.7742
  131OSM   C10F14143  -1.019   6.307   6.977  0.7713 -0.2784 -0.5061
  131OSM   H10F14144  -0.996   6.256   7.071 -0.7265  0.9456  0.5880
  131OSM   C11F14145  -1.139   6.399   7.001 -0.9570  0.4640  0.1762
  131OSM   H11F14146  -1.176   6.448   6.908 -2.5255  0.8765  0.9913
  131OSM   H11G14147  -1.110   6.477   7.074 -0.1274 -0.8676  1.3072
  131OSM   C12F14148  -1.255   6.318   7.059  0.0545  0.2754  1.0688
  131OSM   H12F14149  -1.249   6.209   7.035  1.8088  0.3064  1.2052
  131OSM   H12G14150  -1.355   6.357   7.033  0.4285  0.6980  0.2304
  131OSM   C13F14151  -1.256   6.313   7.218  1.1404 -0.1448  0.4057
  131OSM   H13F14152  -1.212   6.409   7.252  3.2195 -0.2649 -1.7045
  131OSM   H13G14153  -1.195   6.233   7.265  1.8463 -1.1930 -2.1357
  131OSM   C14F14154  -1.404   6.294   7.276 -0.0657 -0.7713  0.9947
  131OSM   H14F14155  -1.461   6.215   7.222 -1.7012  1.5182 -0.8628
  131OSM   H14G14156  -1.458   6.383   7.238  0.5414 -0.9806 -0.4421
  131OSM   C15F14157  -1.413   6.280   7.427 -0.4879  0.8915  0.2794
  131OSM   H15F14158  -1.346   6.357   7.471  0.7768  0.1319 -0.2684
  131OSM   H15G14159  -1.359   6.191   7.466  1.3042  1.3215 -1.0836
  131OSM   C16F14160  -1.549   6.276   7.495  0.2558 -0.1573 -1.2746
  131OSM   H16F14161  -1.547   6.227   7.594 -0.8662  2.0509 -0.0826
  131OSM   H16G14162  -1.624   6.219   7.436 -0.4359 -0.8889  0.2551
  131OSM   C17F14163  -1.593   6.422   7.529 -0.0604  0.0160  0.5712
  131OSM   H17F14164  -1.581   6.481   7.436 -2.1602 -0.7463 -0.2571
  131OSM   H17G14165  -1.526   6.469   7.603 -0.1861  2.0359 -0.5253
  131OSM   C18F14166  -1.736   6.443   7.566 -0.3722 -0.5901 -0.3764
  131OSM   H18F14167  -1.771   6.548   7.558 -1.1542 -0.5670  2.3354
  131OSM   H18G14168  -1.751   6.407   7.670  0.5139  1.6476  0.5897
  131OSM   H18H14169  -1.803   6.387   7.497  1.1916  0.1308 -2.6035
  132OSM      N14170   2.355   2.431   6.429 -0.3548 -0.1097  0.4837
  132OSM    C1514171   2.483   2.502   6.456  0.0331  0.7442  0.7535
  132OSM   H15A14172   2.516   2.559   6.371  1.0341  0.6841  1.0917
  132OSM   H15B14173   2.565   2.439   6.487 -1.4256 -1.3678  0.5617
  132OSM   H15C14174   2.487   2.556   6.549  2.4511  1.2087  0.4477
  132OSM    C1414175   2.258   2.528   6.374  0.6108  0.9201  0.2912
  132OSM   H14A14176   2.164   2.486   6.340  1.3787 -0.4272 -0.2867
  132OSM   H14B14177   2.303   2.568   6.284 -0.7104  1.9006  0.0447
  132OSM   H14C14178   2.245   2.618   6.431 -1.1196  0.6744  0.3306
  132OSM    C1314179   2.384   2.324   6.331 -0.2308  0.2796  0.2755
  132OSM   H13A14180   2.425   2.362   6.239 -0.0869 -1.9719 -0.6542
  132OSM   H13B14181   2.292   2.275   6.301  0.9611 -1.4068 -0.8238
  132OSM   H13C14182   2.445   2.250   6.381 -2.6592  1.4636  5.7978
  132OSM    C1214183   2.295   2.365   6.554 -0.0033 -0.3490  0.5291
  132OSM   H12A14184   2.283   2.445   6.625 -3.5569  1.2861 -1.6426
  132OSM   H12B14185   2.366   2.295   6.595  0.4127 -1.4407 -1.8877
  132OSM    C1114186   2.157   2.297   6.541  0.7295  0.4364  0.1272
  132OSM   H11A14187   2.083   2.374   6.510  0.3511 -0.4977 -1.4296
  132OSM   H11B14188   2.129   2.255   6.639 -0.6305 -0.4191 -0.5987
  132OSM      P14189   2.034   2.152   6.359 -0.5119 -0.6068 -0.0352
  132OSM    O1314190   2.025   2.229   6.234 -0.4887  0.5286  0.1521
  132OSM    O1414191   2.041   2.008   6.348 -0.1171 -0.2078 -0.0469
  132OSM    O1114192   1.905   2.183   6.446  0.0054 -0.0746  0.1761
  132OSM    O1214193   2.157   2.197   6.442 -0.6364 -0.2480 -0.1434
  132OSM    C1S14194   1.869   2.106   6.558  0.6423  0.2017  0.3015
  132OSM    H1S14195   1.965   2.095   6.613  0.8719 -2.1493 -0.4502
  132OSM    H1T14196   1.832   2.008   6.521 -3.9831  1.7903  0.0261
  132OSM     NF14197   1.736   2.107   6.774 -0.6157 -0.1966  0.2385
  132OSM    HNF14198   1.669   2.035   6.791  0.1946 -1.3564 -1.2091
  132OSM    C2S14199   1.752   2.173   6.637  0.4163  0.6033  0.2106
  132OSM    H2S14200   1.790   2.275   6.662  0.0164  0.6223  0.7519
  132OSM    C3S14201   1.619   2.185   6.548 -0.0389  0.2711 -0.2937
  132OSM    H3S14202   1.575   2.083   6.539  1.7194 -0.5126 -0.4816
  132OSM     O314203   1.640   2.224   6.417  0.3235  0.1744  0.4198
  132OSM    HO314204   1.731   2.200   6.398 -0.0261  0.5965 -2.3074
  132OSM    C4S14205   1.518   2.275   6.617 -0.2814  0.0691 -0.0855
  132OSM    H4S14206   1.429   2.232   6.664  0.0803  0.0499  0.6064
  132OSM    C5S14207   1.517   2.408   6.618  0.0949  0.1296  0.4851
  132OSM    H5S14208   1.586   2.466   6.554 -0.6603 -0.1686 -0.6173
  132OSM    C6S14209   1.412   2.496   6.675 -0.7965  0.0161 -0.3496
  132OSM    H6S14210   1.359   2.550   6.594 -1.6169 -0.2261  0.0148
  132OSM    H6T14211   1.464   2.580   6.725 -2.0512  2.0858 -2.3076
  132OSM    C7S14212   1.305   2.435   6.770 -0.2362 -0.4642  0.0431
  132OSM    H7S14213   1.353   2.371   6.847  0.7199 -1.2661 -1.1969
  132OSM    H7T14214   1.246   2.357   6.719 -0.8469  0.4645 -0.7100
  132OSM    C8S14215   1.226   2.532   6.857  0.5870 -0.3322 -0.6001
  132OSM    H8S14216   1.121   2.547   6.825 -0.8030  1.3714  3.9526
  132OSM    H8T14217   1.277   2.630   6.851  2.0906 -1.1513 -1.7676
  132OSM    C9S14218   1.234   2.495   7.008  0.2669  0.1905 -0.0238
  132OSM    H9S14219   1.205   2.389   7.019 -0.5803  0.4443  0.3314
  132OSM    H9T14220   1.161   2.567   7.052 -0.4269 -1.4486  1.6409
  132OSM   C10S14221   1.368   2.545   7.074  0.2527  0.3363 -0.3102
  132OSM   H10S14222   1.372   2.656   7.083  3.0748  0.5033 -2.4222
  132OSM   H10T14223   1.453   2.522   7.007 -0.0239 -1.5824 -0.0546
  132OSM   C11S14224   1.389   2.478   7.212 -0.0493  0.3677 -0.0819
  132OSM   H11S14225   1.481   2.512   7.265 -0.5074  0.5862  0.5878
  132OSM   H11T14226   1.398   2.368   7.202  0.4834  0.4788 -0.9357
  132OSM   C12S14227   1.270   2.506   7.309 -0.5128  0.6168 -0.1218
  132OSM   H12S14228   1.177   2.455   7.280 -0.8158 -0.6548  2.7461
  132OSM   H12T14229   1.256   2.612   7.340  1.1351  0.8017  0.1160
  132OSM   C13S14230   1.302   2.426   7.437  0.3099  0.5487 -0.1872
  132OSM   H13S14231   1.410   2.446   7.455  0.8153 -0.9017 -1.3522
  132OSM   H13T14232   1.291   2.317   7.414 -1.0395 -0.1237  3.0603
  132OSM   C14S14233   1.201   2.460   7.541  0.0759 -0.2938 -0.2399
  132OSM   H14S14234   1.103   2.419   7.508  1.4031 -5.2603  1.1312
  132OSM   H14T14235   1.211   2.570   7.550  0.7064 -0.3748  0.0977
  132OSM   C15S14236   1.239   2.398   7.678  0.3266  0.1360  0.8974
  132OSM   H15S14237   1.346   2.428   7.689  0.8091 -0.1229 -2.2721
  132OSM   H15T14238   1.232   2.290   7.657 -1.9527  0.2917  0.6115
  132OSM   C16S14239   1.156   2.443   7.798  0.0192 -0.4242  0.0052
  132OSM   H16S14240   1.050   2.458   7.769  0.6222 -0.0999 -2.2486
  132OSM   H16T14241   1.184   2.543   7.837 -2.3432  0.4106 -0.2924
  132OSM   C17S14242   1.180   2.355   7.915  0.0983  0.0684 -0.7079
  132OSM   H17S14243   1.267   2.388   7.975  0.7420 -2.5136 -0.0962
  132OSM   H17T14244   1.204   2.253   7.877 -1.2849 -0.0591 -1.2853
  132OSM   C18S14245   1.056   2.349   7.999  0.5125  0.2250 -0.3631
  132OSM   H18S14246   1.071   2.279   8.084  1.0590  0.6148 -0.1344
  132OSM   H18T14247   0.968   2.321   7.937 -0.5657  0.6238  0.9247
  132OSM   H18U14248   1.040   2.453   8.037  2.0336  0.9573 -1.6218
  132OSM    C1F14249   1.815   2.150   6.873 -0.1931 -0.0556  0.2902
  132OSM     OF14250   1.903   2.235   6.850  0.7716 -0.3309  0.1285
  132OSM    C2F14251   1.788   2.099   7.006  0.3215 -0.0402 -0.2591
  132OSM    H2F14252   1.793   1.988   7.004 -1.9198 -0.2678  1.6883
  132OSM    H2G14253   1.682   2.118   7.030  0.1029 -0.5736 -0.7713
  132OSM    C3F14254   1.879   2.162   7.114  0.1893  0.4581  0.4531
  132OSM    H3F14255   1.857   2.271   7.117  0.8582  0.6592 -1.0123
  132OSM    H3G14256   1.988   2.149   7.100  0.0718 -0.3414  0.2452
  132OSM    C4F14257   1.851   2.100   7.256  0.6094 -0.1688 -0.9441
  132OSM    H4F14258   1.883   1.994   7.263 -0.5915 -0.4105  2.6743
  132OSM    H4G14259   1.748   2.114   7.293  0.5561 -2.2806 -0.1586
  132OSM    C5F14260   1.953   2.171   7.355 -0.4849  0.2738 -0.0146
  132OSM    H5F14261   1.929   2.279   7.360 -2.8367 -0.1942  0.1589
  132OSM    H5G14262   2.051   2.149   7.308 -0.9611 -0.3632 -0.7490
  132OSM    C6F14263   1.955   2.113   7.501 -0.2218  0.1211  1.2475
  132OSM    H6F14264   2.051   2.152   7.541 -1.0532  2.8309  0.8058
  132OSM    H6G14265   1.953   2.001   7.499 -2.0116  0.1312  0.0642
  132OSM    C7F14266   1.842   2.167   7.592 -0.1987 -0.3111  0.0712
  132OSM    H7F14267   1.747   2.134   7.543  0.5401 -0.5901 -1.2208
  132OSM    H7G14268   1.849   2.277   7.601 -1.4673 -0.1416 -0.7852
  132OSM    C8F14269   1.855   2.093   7.725  0.4604 -0.0675  0.0497
  132OSM    H8F14270   1.841   1.984   7.713 -0.1998  0.1366 -1.1562
  132OSM    H8G14271   1.768   2.124   7.788  0.7545 -1.1070  1.0166
  132OSM    C9F14272   1.981   2.138   7.792  0.7827  0.5372 -0.6023
  132OSM    H9F14273   2.077   2.103   7.752 -0.3762 -1.8872 -1.4682
  132OSM   C10F14274   1.985   2.225   7.894 -0.0091  0.3984  0.2944
  132OSM   H10F14275   2.086   2.258   7.923  0.5773 -1.3730  0.3648
  132OSM   C11F14276   1.860   2.283   7.958  0.4624  0.0292 -0.0972
  132OSM   H11F14277   1.774   2.212   7.959  1.4286 -1.1834 -0.0545
  132OSM   H11G14278   1.813   2.370   7.906 -1.1286 -1.4718 -1.3345
  132OSM   C12F14279   1.883   2.316   8.109 -0.2696  0.3466  0.0844
  132OSM   H12F14280   1.944   2.409   8.115  0.7248  0.1237 -4.0202
  132OSM   H12G14281   1.942   2.232   8.150 -2.4961 -1.2116  0.2629
  132OSM   C13F14282   1.757   2.327   8.196 -0.3997 -0.1884  0.4571
  132OSM   H13F14283   1.799   2.356   8.295  0.0915  0.5681  0.0358
  132OSM   H13G14284   1.705   2.230   8.213  0.2630 -0.7308 -0.5106
  132OSM   C14F14285   1.651   2.429   8.147  0.3778  0.2569  0.1207
  132OSM   H14F14286   1.604   2.409   8.048 -0.6609  2.2724  0.1639
  132OSM   H14G14287   1.712   2.521   8.136 -1.3790  1.3813 -0.6835
  132OSM   C15F14288   1.534   2.464   8.249  0.1269  0.0554 -0.0541
  132OSM   H15F14289   1.470   2.546   8.208  0.6951  0.1147 -0.8499
  132OSM   H15G14290   1.584   2.493   8.343 -0.1157 -0.6617  0.3023
  132OSM   C16F14291   1.444   2.348   8.266 -0.1120  0.3106  0.9456
  132OSM   H16F14292   1.491   2.261   8.317  0.2505 -0.7007 -0.9929
  132OSM   H16G14293   1.410   2.301   8.171 -0.8115  1.2053  0.7442
  132OSM   C17F14294   1.314   2.377   8.343  0.7118  0.5038  0.0720
  132OSM   H17F14295   1.251   2.442   8.277  0.9908 -0.7380 -1.4740
  132OSM   H17G14296   1.328   2.433   8.438 -4.4014 -0.1180  1.5233
  132OSM   C18F14297   1.222   2.256   8.385  0.1991  0.5464  0.0719
  132OSM   H18F14298   1.132   2.288   8.440 -0.0325 -1.5831  1.0626
  132OSM   H18G14299   1.290   2.189   8.442  0.6161  0.4400 -0.5300
  132OSM   H18H14300   1.198   2.201   8.291 -4.1015  1.4323  0.4913
  133SAPE     N14301   4.527   4.014  10.680  0.1436  0.2613 -0.1746
  133SAPE   HN114302   4.568   4.044  10.589 -1.4531 -0.3368 -1.1315
  133SAPE   HN214303   4.444   4.075  10.693 -1.2596 -0.6528 -3.8247
  133SAPE   HN314304   4.596   4.016  10.758 -0.4246 -5.7159  0.9816
  133SAPE   C1214305   4.458   3.882  10.674  0.3852  0.4813  0.1248
  133SAPE  H12A14306   4.520   3.816  10.610  1.7596  0.7623  1.1331
  133SAPE  H12B14307   4.368   3.893  10.610  0.4389 -3.4161 -0.8733
  133SAPE   C1114308   4.432   3.809  10.801  1.2697  0.4374 -0.4625
  133SAPE  H11A14309   4.402   3.704  10.782  1.1072  0.3572  0.1995
  133SAPE  H11B14310   4.348   3.854  10.859 -0.2667 -3.0365  0.2419
  133SAPE     P14311   4.658   3.710  10.891  0.0661  0.3314  0.0118
  133SAPE   O1314312   4.731   3.721  10.762  0.7721 -0.4246 -0.2213
  133SAPE   O1414313   4.730   3.730  11.014  0.1603  0.2624  0.7414
  133SAPE   O1214314   4.547   3.823  10.883 -0.0761  0.0483  0.4421
  133SAPE   O1114315   4.582   3.575  10.897 -0.5285 -0.5248  0.8155
  133SAPE    C114316   4.635   3.445  10.864 -0.2111 -0.2911 -0.4408
  133SAPE    HA14317   4.746   3.446  10.858 -0.1946  1.4409 -0.3644
  133SAPE    HB14318   4.612   3.373  10.947  1.4389  0.2737  0.5540
  133SAPE    C214319   4.558   3.388  10.742  0.2189  0.0865  0.9575
  133SAPE    HS14320   4.592   3.288  10.707 -1.9212  0.0056 -1.2005
  133SAPE   O2114321   4.563   3.480  10.630  0.4785  0.2549 -1.2672
  133SAPE   C2114322   4.673   3.483  10.560 -0.3307 -0.2075  0.2308
  133SAPE   O2214323   4.782   3.445  10.592  0.3039  0.0391 -0.6392
  133SAPE   C2214324   4.644   3.574  10.435  0.3449  0.8648 -0.4160
  133SAPE   H2R14325   4.561   3.537  10.371  0.4948 -0.4396  0.1268
  133SAPE   H2S14326   4.619   3.676  10.472 -1.3313  0.1026  0.6337
  133SAPE    C314327   4.408   3.370  10.778  0.0538 -0.0035 -0.2653
  133SAPE    HX14328   4.386   3.466  10.831 -2.4060 -1.5823  1.8184
  133SAPE    HY14329   4.408   3.298  10.863  3.3232  0.4642  0.2720
  133SAPE   O3114330   4.315   3.338  10.671  0.1781  0.1119  0.2572
  133SAPE   C3114331   4.269   3.428  10.589  0.2324 -0.6126 -1.0502
  133SAPE   O3214332   4.275   3.547  10.601 -0.0575  0.4365  0.2918
  133SAPE   C3214333   4.189   3.348  10.484 -0.0748 -0.2221  0.2585
  133SAPE   H2X14334   4.082   3.368  10.507  0.1387  0.9092  0.3585
  133SAPE   H2Y14335   4.208   3.239  10.496  1.8172 -0.0257 -0.5843
  133SAPE   C2314336   4.767   3.598  10.344  0.4713 -0.5009 -0.1745
  133SAPE   H3R14337   4.801   3.508  10.288  2.1513  0.7165 -1.1863
  133SAPE   H3S14338   4.855   3.610  10.409  1.0176 -0.2873 -0.9384
  133SAPE   C2414339   4.742   3.717  10.253 -0.2879 -0.8085 -0.2404
  133SAPE   H4R14340   4.839   3.741  10.205  0.4083 -1.6799  0.6723
  133SAPE   H4S14341   4.704   3.807  10.305 -1.1396 -1.4122  0.2070
  133SAPE   C2514342   4.640   3.708  10.145  0.0616  0.7768  0.6617
  133SAPE   H5R14343   4.536   3.732  10.171 -0.8709 -0.7214 -1.3647
  133SAPE   C2614344   4.656   3.654  10.022 -0.3920  0.2989  0.2886
  133SAPE   H6R14345   4.571   3.669   9.955 -1.6532 -0.1978  1.7244
  133SAPE   C2714346   4.781   3.602   9.958 -0.0642  0.0936 -0.6137
  133SAPE   H7R14347   4.871   3.624  10.020 -0.7268  0.9284  0.0826
  133SAPE   H7S14348   4.796   3.644   9.856  2.9411 -0.4479 -0.4802
  133SAPE   C2814349   4.766   3.453   9.930 -0.7177 -0.6836 -0.5419
  133SAPE   H8R14350   4.736   3.390  10.015 -0.7906 -0.4923 -0.4255
  133SAPE   C2914351   4.770   3.393   9.809  0.0598  0.1143  0.0312
  133SAPE   H9R14352   4.752   3.285   9.805 -1.2278  0.3303 -0.8037
  133SAPE  C21014353   4.798   3.442   9.673 -0.1847 -1.1688  1.0597
  133SAPE  H10R14354   4.784   3.552   9.665 -2.4446 -1.3996  1.4239
  133SAPE  H10S14355   4.724   3.412   9.597  0.3693  0.7182 -0.2860
  133SAPE  C21114356   4.942   3.418   9.617  0.7070  0.3328 -0.2519
  133SAPE  H11R14357   5.019   3.449   9.690 -0.5446  2.0998  0.3771
  133SAPE  C21214358   4.973   3.360   9.493  0.0036 -0.4940  0.1350
  133SAPE  H12R14359   5.078   3.350   9.463  0.2250 -2.1936  1.2954
  133SAPE  C21314360   4.870   3.329   9.388 -0.2247  0.4012 -0.1116
  133SAPE  H13R14361   4.820   3.423   9.358 -0.1682  0.2777 -0.6071
  133SAPE  H13S14362   4.792   3.266   9.437 -1.3319  2.0088  0.2720
  133SAPE  C21414363   4.943   3.253   9.280 -0.4063 -0.5479 -0.0068
  133SAPE  H14R14364   4.940   3.144   9.297 -2.4102 -0.4695  0.3971
  133SAPE  C21514365   5.001   3.313   9.169 -0.0444  0.8741  0.0957
  133SAPE  H15R14366   5.057   3.250   9.098  0.4019 -1.1706  2.1537
  133SAPE  C21614367   4.994   3.458   9.121  0.3850  0.3309 -0.3126
  133SAPE  H16R14368   5.081   3.487   9.059  1.1664  1.3138  1.2010
  133SAPE  H16S14369   5.000   3.526   9.208  1.3320  1.1762 -1.0240
  133SAPE  C21714370   4.868   3.489   9.046 -0.2768 -0.0848  0.0635
  133SAPE  H17R14371   4.856   3.597   9.023  1.3416 -0.0378 -0.6821
  133SAPE  H17S14372   4.777   3.470   9.107  1.2942 -0.5192  2.4264
  133SAPE  C21814373   4.857   3.399   8.917 -0.1342  0.4549  0.5558
  133SAPE  H18R14374   4.752   3.421   8.885 -0.3608 -1.0620  0.2044
  133SAPE  H18S14375   4.855   3.291   8.939  0.9018  0.4338  0.5982
  133SAPE  C21914376   4.940   3.436   8.793  0.2895 -0.5959 -0.0283
  133SAPE  H19R14377   5.044   3.443   8.832  0.6435 -1.9193 -0.6655
  133SAPE  H19S14378   4.907   3.534   8.754 -0.7239 -1.6019 -1.8459
  133SAPE  C22014379   4.945   3.333   8.686 -0.1554 -0.1021 -0.1527
  133SAPE  H20R14380   4.842   3.326   8.644 -0.2980 -3.5289  0.4571
  133SAPE  H20S14381   4.969   3.243   8.747  1.3633  1.7004  2.0737
  133SAPE  H20T14382   5.030   3.354   8.617 -1.8563  3.3263 -1.4369
  133SAPE   C3314383   4.230   3.382  10.340 -0.4925  1.0214 -0.0584
  133SAPE   H3X14384   4.227   3.491  10.317 -2.7486  1.4051  1.6924
  133SAPE   H3Y14385   4.145   3.345  10.280  0.4843 -2.6792  0.5810
  133SAPE   C3414386   4.357   3.309  10.281  0.6882  0.6947  0.0342
  133SAPE   H4X14387   4.351   3.198  10.271 -0.3591  0.6152  1.2187
  133SAPE   H4Y14388   4.448   3.323  10.344  0.5775 -1.5883  0.8185
  133SAPE   C3514389   4.399   3.361  10.136  0.2834  0.2427 -0.1452
  133SAPE   H5X14390   4.504   3.329  10.117  0.3484 -0.2366  0.9340
  133SAPE   H5Y14391   4.404   3.472  10.136  1.6119  0.2047  0.4434
  133SAPE   C3614392   4.306   3.324  10.024  0.0351  1.0540  0.2632
  133SAPE   H6X14393   4.206   3.372  10.038 -0.0699  0.6980  0.7320
  133SAPE   H6Y14394   4.278   3.217  10.018 -1.7332  1.2101  3.3707
  133SAPE   C3714395   4.355   3.372   9.889  0.6956  0.6195  0.7238
  133SAPE   H7X14396   4.461   3.345   9.871  0.3021  0.5007 -1.8839
  133SAPE   H7Y14397   4.343   3.483   9.880 -1.2899  0.4681  0.9426
  133SAPE   C3814398   4.285   3.301   9.766  0.0763  0.7487 -0.1341
  133SAPE   H8X14399   4.178   3.285   9.791 -0.8866  1.2683 -3.4068
  133SAPE   H8Y14400   4.316   3.195   9.756  0.2472  0.8714 -1.0083
  133SAPE   C3914401   4.284   3.371   9.629  0.5163 -0.5630 -0.3233
  133SAPE   H9X14402   4.384   3.417   9.613 -0.7372  1.8897 -1.8121
  133SAPE   H9Y14403   4.216   3.459   9.627  2.9380  1.5089 -4.3283
  133SAPE  C31014404   4.261   3.276   9.512 -0.1533 -0.5711 -0.4850
  133SAPE  H10X14405   4.161   3.226   9.511  0.3869 -1.6802 -0.7847
  133SAPE  H10Y14406   4.332   3.191   9.516  1.5242  0.7275 -1.6259
  133SAPE  C31114407   4.305   3.337   9.379 -0.1485  0.3982 -0.7529
  133SAPE  H11X14408   4.404   3.385   9.393  0.1721 -0.9045  2.1228
  133SAPE  H11Y14409   4.227   3.408   9.342  0.1207  0.0231 -2.1056
  133SAPE  C31214410   4.320   3.225   9.273  0.1159 -0.1919  0.1266
  133SAPE  H12X14411   4.230   3.163   9.254  0.2323 -0.5711  0.7660
  133SAPE  H12Y14412   4.398   3.150   9.297 -0.6843 -0.6258  1.4400
  133SAPE  C31314413   4.364   3.291   9.136  0.1124 -0.0639 -0.6774
  133SAPE  H13X14414   4.394   3.209   9.068  0.7266 -1.6365  1.3697
  133SAPE  H13Y14415   4.450   3.357   9.160 -0.8531  1.1896 -0.5807
  133SAPE  C31414416   4.253   3.363   9.063 -0.0853  0.1504  0.2746
  133SAPE  H14X14417   4.242   3.467   9.101  2.4900  0.3483  0.6169
  133SAPE  H14Y14418   4.155   3.313   9.080 -0.9718  0.6270 -2.7276
  133SAPE  C31514419   4.270   3.381   8.911 -0.1309 -0.7589 -0.9525
  133SAPE  H15X14420   4.173   3.420   8.872 -0.5456 -0.9062 -0.0814
  133SAPE  H15Y14421   4.283   3.280   8.866  1.9404 -1.0164  0.1151
  133SAPE  C31614422   4.394   3.471   8.878 -0.0140  0.1210 -0.1503
  133SAPE  H16X14423   4.480   3.413   8.919  0.2102  0.7738  0.3156
  133SAPE  H16Y14424   4.395   3.570   8.928  1.7528  0.2965 -0.4386
  133SAPE  C31714425   4.408   3.482   8.726  0.1613  0.2843  0.2812
  133SAPE  H17X14426   4.429   3.375   8.703 -1.1833 -0.2027  1.1796
  133SAPE  H17Y14427   4.501   3.541   8.715  0.4208 -0.1953 -0.1772
  133SAPE  C31814428   4.294   3.549   8.653 -0.3893 -0.1800  0.0442
  133SAPE  H18X14429   4.270   3.649   8.694 -1.8830  0.4818 -2.3073
  133SAPE  H18Y14430   4.206   3.481   8.658 -0.0521 -0.5945  0.5299
  133SAPE  H18Z14431   4.324   3.566   8.548 -1.6962 -0.1208 -0.3300
  134SAPE     N14432   1.750   1.798  10.967  0.2371  0.2880  0.8607
  134SAPE   HN114433   1.768   1.837  11.061  0.1763  0.0199  0.9820
  134SAPE   HN214434   1.788   1.864  10.895  0.1092  1.6484  1.9897
  134SAPE   HN314435   1.650   1.803  10.941  0.9461  2.9151 -2.0974
  134SAPE   C1214436   1.799   1.658  10.964 -0.1477 -1.0211  0.7273
  134SAPE  H12A14437   1.738   1.608  11.043  0.5723  0.3674  2.2410
  134SAPE  H12B14438   1.908   1.658  10.985  0.2497  1.4339 -0.9753
  134SAPE   C1114439   1.770   1.588  10.829 -0.6426 -0.1332  0.7414
  134SAPE  H11A14440   1.804   1.483  10.845 -0.4925 -0.0062  1.2968
  134SAPE  H11B14441   1.837   1.632  10.753 -0.2011 -1.4674  0.3281
  134SAPE     P14442   1.581   1.575  10.651 -0.5146  0.4090  0.5807
  134SAPE   O1314443   1.508   1.448  10.639  0.3363  0.2167 -0.5823
  134SAPE   O1414444   1.496   1.695  10.630 -0.0306  0.1584 -0.0340
  134SAPE   O1214445   1.636   1.583  10.794  0.8350 -0.7636  0.2386
  134SAPE   O1114446   1.699   1.573  10.553 -0.4252 -0.1416 -0.5768
  134SAPE    C114447   1.761   1.688  10.494  0.1623 -0.2539 -0.3961
  134SAPE    HA14448   1.764   1.776  10.562 -0.4209 -1.0898  0.7315
  134SAPE    HB14449   1.868   1.658  10.497 -0.6163 -3.4927 -0.8927
  134SAPE    C214450   1.714   1.714  10.350  0.3801  0.3351 -0.2246
  134SAPE    HS14451   1.690   1.618  10.301 -2.3194  1.5894 -1.5664
  134SAPE   O2114452   1.817   1.774  10.272  0.2311  0.2180  0.7578
  134SAPE   C2114453   1.916   1.695  10.225 -0.6135  0.0100 -0.4875
  134SAPE   O2214454   1.925   1.580  10.246  0.0928 -0.3399 -0.4498
  134SAPE   C2214455   2.020   1.772  10.148  0.0500  0.0166  0.7540
  134SAPE   H2R14456   1.956   1.839  10.087  1.1315 -1.1736 -1.8810
  134SAPE   H2S14457   2.087   1.825  10.219  0.6492  0.8902 -0.4335
  134SAPE    C314458   1.586   1.800  10.344 -0.2099  0.1599  0.0760
  134SAPE    HX14459   1.596   1.892  10.406  1.4416 -0.6863  1.1161
  134SAPE    HY14460   1.502   1.736  10.378 -0.0561 -2.7211 -4.2054
  134SAPE   O3114461   1.563   1.838  10.206  0.2433  0.0575  0.0031
  134SAPE   C3114462   1.460   1.785  10.145 -0.6140  0.1085  0.6338
  134SAPE   O3214463   1.378   1.705  10.184 -0.0448 -0.3792 -0.6047
  134SAPE   C3214464   1.457   1.834  10.004 -0.5672 -0.3126 -0.2916
  134SAPE   H2X14465   1.513   1.930   9.996 -2.0912  0.4826 -2.3551
  134SAPE   H2Y14466   1.349   1.858   9.992 -0.5135  1.0750  1.5945
  134SAPE   C2314467   2.107   1.689  10.048 -0.5090 -0.3946  0.3285
  134SAPE   H3R14468   2.048   1.613   9.992  2.7980 -2.9544 -0.0364
  134SAPE   H3S14469   2.187   1.636  10.104 -1.7086 -0.4678  2.0677
  134SAPE   C2414470   2.172   1.771   9.939 -0.8973 -0.6969  0.0816
  134SAPE   H4R14471   2.224   1.854   9.992 -2.5166  0.5181 -0.1550
  134SAPE   H4S14472   2.097   1.821   9.875 -0.3535  1.0603  0.7487
  134SAPE   C2514473   2.272   1.701   9.845 -0.1812  0.4111  0.1971
  134SAPE   H5R14474   2.341   1.629   9.891  0.8614  1.8581  0.9969
  134SAPE   C2614475   2.277   1.705   9.709 -0.2526  0.2939 -0.1484
  134SAPE   H6R14476   2.338   1.632   9.655 -3.8873 -3.5983  0.5147
  134SAPE   C2714477   2.196   1.785   9.613 -0.1433  0.1368  0.2930
  134SAPE   H7R14478   2.259   1.856   9.555  0.5981 -1.3134 -0.7031
  134SAPE   H7S14479   2.133   1.860   9.666  2.1655  1.1546  1.7805
  134SAPE   C2814480   2.112   1.689   9.532  0.5191 -0.4683  0.0887
  134SAPE   H8R14481   2.012   1.673   9.575  0.2834 -1.0007 -0.6361
  134SAPE   C2914482   2.145   1.642   9.406  0.2445 -0.0969  0.0746
  134SAPE   H9R14483   2.067   1.579   9.363 -0.1065 -1.5445  2.6073
  134SAPE  C21014484   2.271   1.653   9.320  0.2305 -0.0205 -0.6629
  134SAPE  H10R14485   2.274   1.566   9.251  0.3991 -0.1526 -0.4895
  134SAPE  H10S14486   2.365   1.646   9.378 -0.4016 -0.7535  0.2975
  134SAPE  C21114487   2.262   1.774   9.228  0.1357 -0.3570 -0.7695
  134SAPE  H11R14488   2.311   1.861   9.275  0.0823 -0.8421  0.2114
  134SAPE  C21214489   2.210   1.779   9.105 -0.3019 -0.1961  0.0118
  134SAPE  H12R14490   2.191   1.873   9.051  2.7908 -0.7605 -2.3610
  134SAPE  C21314491   2.145   1.657   9.034 -0.2218 -1.2836 -0.5517
  134SAPE  H13R14492   2.050   1.697   8.992  1.1681  2.4570 -0.5166
  134SAPE  H13S14493   2.127   1.568   9.098 -0.7928 -2.4042 -2.2109
  134SAPE  C21414494   2.224   1.611   8.917  0.1233  0.1398 -0.0736
  134SAPE  H14R14495   2.279   1.519   8.941 -0.2342  0.0744  0.5233
  134SAPE  C21514496   2.233   1.651   8.792  0.7916 -0.1022 -0.1313
  134SAPE  H15R14497   2.306   1.595   8.732  3.1204 -0.4399  2.7886
  134SAPE  C21614498   2.155   1.765   8.730 -0.3561  0.0685  0.3231
  134SAPE  H16R14499   2.129   1.844   8.804 -1.1097 -0.2993  0.4635
  134SAPE  H16S14500   2.063   1.737   8.676  0.0442  2.8395 -2.0168
  134SAPE  C21714501   2.253   1.829   8.623 -0.0826 -0.7338 -0.0577
  134SAPE  H17R14502   2.288   1.746   8.559  0.4104 -0.3776 -0.2560
  134SAPE  H17S14503   2.348   1.869   8.665 -0.7245  0.9099 -0.0725
  134SAPE  C21814504   2.197   1.938   8.535  0.2451 -0.6617 -0.5987
  134SAPE  H18R14505   2.281   1.992   8.487  0.3470  0.5162  0.8415
  134SAPE  H18S14506   2.148   2.025   8.585  1.2167  0.1249 -0.9808
  134SAPE  C21914507   2.095   1.893   8.435  0.9882 -0.3515  0.2078
  134SAPE  H19R14508   2.039   1.810   8.483  0.2125  1.1983  2.1285
  134SAPE  H19S14509   2.129   1.862   8.334  0.6549  3.0351 -1.0953
  134SAPE  C22014510   1.993   2.005   8.399  0.0561  0.2127  0.0994
  134SAPE  H20R14511   2.045   2.091   8.350 -2.2883  1.7978  0.2165
  134SAPE  H20S14512   1.938   2.040   8.489 -1.0196 -1.7388  0.2390
  134SAPE  H20T14513   1.910   1.965   8.337  0.5604  0.9756 -1.1175
  134SAPE   C3314514   1.521   1.742   9.902 -0.5362  0.2179  0.5727
  134SAPE   H3X14515   1.482   1.639   9.917 -2.2596  0.8853  0.9462
  134SAPE   H3Y14516   1.629   1.741   9.928 -0.2162  1.7789 -0.5917
  134SAPE   C3414517   1.509   1.779   9.756 -0.0481  0.7858  0.0751
  134SAPE   H4X14518   1.521   1.889   9.740 -0.0955  0.5361 -1.9595
  134SAPE   H4Y14519   1.405   1.747   9.736  0.3260 -0.4488  0.0212
  134SAPE   C3514520   1.591   1.695   9.663  0.0239  0.6063  0.0120
  134SAPE   H5X14521   1.577   1.590   9.696 -0.2819  0.3444 -0.9257
  134SAPE   H5Y14522   1.698   1.726   9.661  0.5456 -0.9475  1.1988
  134SAPE   C3614523   1.536   1.699   9.517  0.3403 -0.4453 -0.7644
  134SAPE   H6X14524   1.527   1.805   9.487 -0.3418  0.4497  2.2569
  134SAPE   H6Y14525   1.437   1.649   9.518  0.6249 -1.0305  0.6010
  134SAPE   C3714526   1.635   1.632   9.414 -0.5267 -0.0680 -0.1598
  134SAPE   H7X14527   1.642   1.523   9.435 -0.9027 -0.0782 -0.0683
  134SAPE   H7Y14528   1.738   1.671   9.426 -1.0638  1.4190 -0.0866
  134SAPE   C3814529   1.598   1.643   9.266 -0.1298  0.0120 -0.3747
  134SAPE   H8X14530   1.624   1.745   9.232  1.3108 -0.3768 -0.5006
  134SAPE   H8Y14531   1.487   1.633   9.262 -0.2876  0.8003  1.2510
  134SAPE   C3914532   1.679   1.543   9.176  0.1124  0.3894  0.0993
  134SAPE   H9X14533   1.669   1.442   9.221  0.5375  1.1272  1.9251
  134SAPE   H9Y14534   1.784   1.579   9.173 -0.3332  1.6948 -2.7827
  134SAPE  C31014535   1.647   1.516   9.030 -0.2657  0.1476 -0.3261
  134SAPE  H10X14536   1.615   1.606   8.974 -0.8210  0.0983 -0.0923
  134SAPE  H10Y14537   1.565   1.442   9.035  0.9137 -1.1098  1.6670
  134SAPE  C31114538   1.767   1.462   8.956 -0.0703  0.3835  1.0182
  134SAPE  H11X14539   1.814   1.376   9.007 -1.7186 -0.8555  0.5397
  134SAPE  H11Y14540   1.839   1.547   8.963 -1.2777  1.4347  1.0937
  134SAPE  C31214541   1.738   1.425   8.810  0.1366 -0.7361  0.0517
  134SAPE  H12X14542   1.691   1.516   8.767  1.8388  1.4520  2.4983
  134SAPE  H12Y14543   1.668   1.342   8.787  1.8711 -2.3153  0.2857
  134SAPE  C31314544   1.872   1.412   8.743 -0.1655  0.1483 -0.0149
  134SAPE  H13X14545   1.931   1.324   8.777 -0.6169  0.2166  0.9800
  134SAPE  H13Y14546   1.929   1.500   8.779  0.0610 -0.2385  0.5834
  134SAPE  C31414547   1.861   1.413   8.585  0.0991 -0.3426  0.0797
  134SAPE  H14X14548   1.771   1.473   8.560 -0.7759 -1.5256  0.2997
  134SAPE  H14Y14549   1.855   1.307   8.552  1.7696 -0.4039 -0.1455
  134SAPE  C31514550   1.989   1.471   8.516  0.0582 -0.4986 -0.2883
  134SAPE  H15X14551   1.993   1.581   8.532  0.5900  0.0016 -3.2033
  134SAPE  H15Y14552   1.963   1.457   8.409  1.5194 -0.2988 -0.7040
  134SAPE  C31614553   2.115   1.395   8.547  0.5091 -0.5642 -0.2212
  134SAPE  H16X14554   2.099   1.296   8.499  1.2406 -0.5405 -0.5273
  134SAPE  H16Y14555   2.133   1.374   8.654 -0.5271 -1.6882 -0.2342
  134SAPE  C31714556   2.243   1.454   8.482 -0.0372 -0.6125  0.0456
  134SAPE  H17X14557   2.332   1.402   8.524 -1.0426 -0.9401  1.8393
  134SAPE  H17Y14558   2.240   1.562   8.506  1.2731  0.1064 -2.6125
  134SAPE  C31814559   2.254   1.446   8.332  0.4203 -0.3097  0.2183
  134SAPE  H18X14560   2.357   1.462   8.294 -0.7274  1.7720 -2.3202
  134SAPE  H18Y14561   2.180   1.521   8.297 -1.2334 -1.6851  0.6190
  134SAPE  H18Z14562   2.222   1.346   8.294  1.0208  0.3425 -2.1585
  135SAPE     N14563   4.610   6.798  10.523  0.2913  0.7820 -0.6038
  135SAPE   HN114564   4.541   6.767  10.453 -2.9868  0.1015  2.6299
  135SAPE   HN214565   4.567   6.886  10.557 -0.7556  0.1880 -0.3573
  135SAPE   HN314566   4.696   6.830  10.474  1.2451  0.3836  0.7276
  135SAPE   C1214567   4.639   6.704  10.639  0.1629  0.5426 -0.1980
  135SAPE  H12A14568   4.541   6.659  10.668  0.3699 -0.7979 -1.4814
  135SAPE  H12B14569   4.678   6.770  10.719 -0.3056 -0.3057  0.7478
  135SAPE   C1114570   4.726   6.585  10.598 -0.6791  0.1270  0.0374
  135SAPE  H11A14571   4.727   6.515  10.684 -1.5371  0.2260  0.1360
  135SAPE  H11B14572   4.828   6.620  10.574 -1.0792  0.7287 -0.8750
  135SAPE     P14573   4.710   6.406  10.398  0.0637 -0.2702  0.0301
  135SAPE   O1314574   4.795   6.314  10.481 -0.1827  0.2350 -0.0902
  135SAPE   O1414575   4.591   6.353  10.325 -0.1459  0.0178 -0.2274
  135SAPE   O1214576   4.654   6.519  10.493  0.5106 -0.5741 -0.2100
  135SAPE   O1114577   4.801   6.493  10.301 -0.5294 -0.1701  0.3530
  135SAPE    C114578   4.742   6.539  10.182 -0.2625 -0.3026 -0.1560
  135SAPE    HA14579   4.634   6.563  10.190 -0.7582 -2.1728 -0.7271
  135SAPE    HB14580   4.795   6.630  10.144  0.8701 -0.3554  1.2363
  135SAPE    C214581   4.764   6.434  10.069  0.0191 -0.6064 -0.1247
  135SAPE    HS14582   4.735   6.331  10.099  0.7108 -0.2154  1.9961
  135SAPE   O2114583   4.909   6.445  10.029 -0.2191  0.2240 -0.2438
  135SAPE   C2114584   4.989   6.357  10.092  0.3687  0.1310  0.3143
  135SAPE   O2214585   4.949   6.257  10.152  0.1588  0.5220  0.3522
  135SAPE   C2214586   5.132   6.386  10.068 -0.4494  0.4041  0.1249
  135SAPE   H2R14587   5.163   6.476  10.126  0.1208  0.7161 -0.6621
  135SAPE   H2S14588   5.192   6.302  10.108 -1.7413  0.5475  2.5748
  135SAPE    C314589   4.675   6.479   9.948  0.3953  0.4135 -0.0931
  135SAPE    HX14590   4.693   6.587   9.933  0.3549  0.6338  1.3075
  135SAPE    HY14591   4.567   6.476   9.976  0.3290 -1.5008 -0.4431
  135SAPE   O3114592   4.710   6.396   9.835  1.1034  0.0465  0.2442
  135SAPE   C3114593   4.640   6.278   9.829  0.4572 -1.0090  0.7619
  135SAPE   O3214594   4.548   6.251   9.898  0.1148  0.0151  0.2453
  135SAPE   C3214595   4.704   6.185   9.725 -0.3554 -0.4717 -0.6739
  135SAPE   H2X14596   4.800   6.159   9.774  1.2731  2.2043 -2.2260
  135SAPE   H2Y14597   4.721   6.256   9.642  1.2268 -0.1985 -0.1639
  135SAPE   C2314598   5.176   6.410   9.922 -0.1457  0.7701  0.0621
  135SAPE   H3R14599   5.283   6.436   9.917 -0.3691  1.6513 -0.3145
  135SAPE   H3S14600   5.122   6.499   9.881  0.4850  1.2390  0.2398
  135SAPE   C2414601   5.163   6.283   9.839  1.1959  0.5727 -0.8165
  135SAPE   H4R14602   5.161   6.201   9.914  2.0645  0.9716 -0.3340
  135SAPE   H4S14603   5.260   6.263   9.790  1.5844 -1.3398  0.6192
  135SAPE   C2514604   5.046   6.298   9.744 -0.0607  0.1166  0.7432
  135SAPE   H5R14605   4.951   6.334   9.787 -0.4962  0.5574 -0.5597
  135SAPE   C2614606   5.055   6.300   9.611  0.1467 -0.0268 -0.1494
  135SAPE   H6R14607   4.956   6.310   9.566  0.1012  0.0619 -0.0309
  135SAPE   C2714608   5.174   6.260   9.528  0.4283  0.3966 -0.0979
  135SAPE   H7R14609   5.245   6.189   9.577  0.5521  1.2664  1.0280
  135SAPE   H7S14610   5.234   6.351   9.504  1.5450 -0.1175  0.6137
  135SAPE   C2814611   5.128   6.188   9.404 -0.5851 -0.2655  0.0784
  135SAPE   H8R14612   5.113   6.080   9.415  0.7434 -0.2757  2.7102
  135SAPE   C2914613   5.094   6.242   9.288 -0.0927 -0.0945 -0.1208
  135SAPE   H9R14614   5.053   6.178   9.208  2.3460 -2.7852  0.6156
  135SAPE  C21014615   5.103   6.387   9.253 -0.5983  0.5821 -0.2499
  135SAPE  H10R14616   5.192   6.394   9.187 -1.7966 -1.3090 -2.2257
  135SAPE  H10S14617   5.117   6.466   9.329  2.2290 -0.9299  0.9425
  135SAPE  C21114618   4.992   6.447   9.161  0.6840 -0.1548  0.0445
  135SAPE  H11R14619   4.927   6.520   9.212  1.4741  0.6389 -0.0564
  135SAPE  C21214620   4.979   6.434   9.027  0.2333 -0.0073 -0.4421
  135SAPE  H12R14621   4.905   6.495   8.972  1.4488  2.9362  0.9600
  135SAPE  C21314622   5.069   6.358   8.936 -0.6364  0.8844 -0.2857
  135SAPE  H13R14623   5.082   6.256   8.979  1.2888  2.1548  2.3576
  135SAPE  H13S14624   5.165   6.409   8.957 -0.5293  1.6362 -2.3678
  135SAPE  C21414625   5.037   6.340   8.790 -0.1378  0.2183  0.1690
  135SAPE  H14R14626   4.929   6.358   8.775  0.0131  2.1454  1.1027
  135SAPE  C21514627   5.119   6.345   8.683 -0.0439 -0.2451 -0.0986
  135SAPE  H15R14628   5.076   6.350   8.581  2.9793  0.9024 -1.4487
  135SAPE  C21614629   5.272   6.353   8.692  0.2131 -0.3266  0.4722
  135SAPE  H16R14630   5.305   6.352   8.798 -0.8244  0.2537  0.8257
  135SAPE  H16S14631   5.328   6.437   8.646  1.1429 -0.9210  0.5118
  135SAPE  C21714632   5.335   6.217   8.657  1.0658 -0.2503  0.3186
  135SAPE  H17R14633   5.291   6.181   8.562 -0.2526 -0.9116  1.1466
  135SAPE  H17S14634   5.298   6.148   8.736  1.0441  0.0413  0.5664
  135SAPE  C21814635   5.489   6.220   8.657  0.0937 -0.4664  0.2741
  135SAPE  H18R14636   5.523   6.240   8.761 -2.0876  3.4763  0.4079
  135SAPE  H18S14637   5.520   6.301   8.588 -1.0172 -0.4338 -0.1968
  135SAPE  C21914638   5.552   6.089   8.601 -0.7204 -0.6531  0.2056
  135SAPE  H19R14639   5.518   6.095   8.496 -0.1708 -1.9979 -0.0683
  135SAPE  H19S14640   5.497   6.004   8.646  0.5450 -0.6219  1.9118
  135SAPE  C22014641   5.708   6.069   8.624  0.3804  0.6755 -0.4917
  135SAPE  H20R14642   5.740   5.988   8.556 -1.2012  0.1300 -0.6187
  135SAPE  H20S14643   5.728   6.034   8.728  0.3386  1.5421 -0.1806
  135SAPE  H20T14644   5.755   6.167   8.599 -1.3102  1.0733 -2.3662
  135SAPE   C3314645   4.626   6.056   9.682  0.1150  0.2206  0.0888
  135SAPE   H3X14646   4.517   6.056   9.663  0.0044 -2.0375  0.4253
  135SAPE   H3Y14647   4.639   5.981   9.763  0.2468 -0.4250 -0.5284
  135SAPE   C3414648   4.686   5.997   9.546  0.2739  0.3753  1.3588
  135SAPE   H4X14649   4.631   5.903   9.529  1.5483 -0.4776  1.7849
  135SAPE   H4Y14650   4.795   5.977   9.542  0.0822 -0.4659 -0.4853
  135SAPE   C3514651   4.670   6.103   9.434 -0.3806  0.1073 -0.5373
  135SAPE   H5X14652   4.728   6.194   9.463  1.2696 -1.9036  3.0756
  135SAPE   H5Y14653   4.562   6.127   9.423 -0.3561 -0.1621 -1.4362
  135SAPE   C3614654   4.723   6.065   9.296 -0.7083 -0.1718  0.1748
  135SAPE   H6X14655   4.669   5.975   9.258 -0.5353 -0.5422  0.7951
  135SAPE   H6Y14656   4.834   6.062   9.305 -0.6185 -0.0303 -0.8056
  135SAPE   C3714657   4.696   6.178   9.197 -0.2188  0.1478 -0.1294
  135SAPE   H7X14658   4.750   6.267   9.236 -0.3939  0.2044 -0.0173
  135SAPE   H7Y14659   4.586   6.193   9.205 -0.7417 -1.4492 -2.8157
  135SAPE   C3814660   4.728   6.161   9.052 -0.4683 -0.1652 -0.0436
  135SAPE   H8X14661   4.826   6.112   9.031  0.5311  1.7469 -0.0042
  135SAPE   H8Y14662   4.740   6.262   9.008  0.4349 -1.8334 -4.1261
  135SAPE   C3914663   4.614   6.095   8.964  0.4977 -0.6004  0.2895
  135SAPE   H9X14664   4.519   6.124   9.013  0.0537 -1.9990  0.2937
  135SAPE   H9Y14665   4.614   5.984   8.961 -3.7223 -0.8499  1.8585
  135SAPE  C31014666   4.622   6.145   8.821  0.0511 -0.3233  0.4059
  135SAPE  H10X14667   4.730   6.125   8.800  0.0440 -0.5729  0.5982
  135SAPE  H10Y14668   4.624   6.256   8.816  0.2342 -0.3812 -2.2681
  135SAPE  C31114669   4.513   6.080   8.734  0.5256  0.2390 -0.8149
  135SAPE  H11X14670   4.426   6.076   8.804  1.4987 -1.3230  0.3616
  135SAPE  H11Y14671   4.536   5.972   8.724 -1.3296 -0.1658 -1.2064
  135SAPE  C31214672   4.468   6.156   8.612 -0.1312 -0.0275  0.0792
  135SAPE  H12X14673   4.567   6.174   8.564  1.0430 -0.5221  2.2185
  135SAPE  H12Y14674   4.416   6.248   8.646 -0.9916 -0.6355  0.4423
  135SAPE  C31314675   4.371   6.078   8.510 -0.2123  0.2278  0.7064
  135SAPE  H13X14676   4.277   6.059   8.565 -1.4871  1.8038 -0.8113
  135SAPE  H13Y14677   4.432   5.994   8.471 -2.4964 -1.5243  0.6996
  135SAPE  C31414678   4.345   6.173   8.397  0.8302  0.1723 -0.3598
  135SAPE  H14X14679   4.437   6.221   8.357  0.9542  1.0763  0.9289
  135SAPE  H14Y14680   4.288   6.261   8.433 -1.7292 -1.2727 -0.6765
  135SAPE  C31514681   4.251   6.116   8.288  0.0674 -0.3620  0.0296
  135SAPE  H15X14682   4.236   6.192   8.208  2.2680 -1.3608 -1.4239
  135SAPE  H15Y14683   4.149   6.100   8.329 -0.7189  1.7107 -0.9281
  135SAPE  C31614684   4.317   5.993   8.230  0.8355  0.3719 -0.0677
  135SAPE  H16X14685   4.307   5.914   8.307 -1.0343 -1.7231 -2.2992
  135SAPE  H16Y14686   4.424   6.015   8.212  0.5125  2.4797  0.2719
  135SAPE  C31714687   4.258   5.941   8.106 -0.5789  0.2732  0.6559
  135SAPE  H17X14688   4.254   6.034   8.046 -0.8369  0.2928  0.7041
  135SAPE  H17Y14689   4.156   5.898   8.119  0.0300 -1.5338 -0.1886
  135SAPE  C31814690   4.344   5.831   8.045 -0.1777  0.5054 -0.0683
  135SAPE  H18X14691   4.288   5.776   7.966 -0.9348 -0.4553  1.1178
  135SAPE  H18Y14692   4.379   5.750   8.112  0.6757  2.0980  1.4908
  135SAPE  H18Z14693   4.444   5.864   8.008  0.5498 -0.6475  0.8119
  136SAPE     N14694   0.882   5.057  10.853 -0.1496  0.1797 -0.0934
  136SAPE   HN114695   0.980   5.026  10.840 -0.7125 -2.2156  0.7922
  136SAPE   HN214696   0.876   5.119  10.937 -1.3900 -1.4667  1.1164
  136SAPE   HN314697   0.818   4.975  10.862  0.0684  0.0331  0.1420
  136SAPE   C1214698   0.813   5.117  10.726  0.5249  0.4579  0.2718
  136SAPE  H12A14699   0.706   5.128  10.751  0.5509 -0.1975  0.6880
  136SAPE  H12B14700   0.830   5.033  10.656 -1.9214 -1.0855  1.4158
  136SAPE   C1114701   0.886   5.239  10.672  0.3401 -0.3952  0.2939
  136SAPE  H11A14702   0.836   5.256  10.574  1.8488 -0.8380 -0.5917
  136SAPE  H11B14703   0.993   5.212  10.661  0.4715  0.8959 -2.5639
  136SAPE     P14704   0.959   5.478  10.746  0.2969 -0.2273  0.0615
  136SAPE   O1314705   0.893   5.593  10.815 -0.6802 -0.3175 -0.4159
  136SAPE   O1414706   1.095   5.432  10.799 -0.7276 -0.3334  0.3307
  136SAPE   O1214707   0.862   5.363  10.746  0.0172 -0.2779  0.3079
  136SAPE   O1114708   0.965   5.509  10.587  0.1591  0.0093  0.2988
  136SAPE    C114709   0.843   5.580  10.539 -0.5129  0.5334 -0.3189
  136SAPE    HA14710   0.795   5.525  10.455 -1.2220  1.5573 -0.6112
  136SAPE    HB14711   0.745   5.582  10.593 -3.2707  1.2969 -4.7756
  136SAPE    C214712   0.883   5.720  10.477 -0.5764  0.5750 -0.5899
  136SAPE    HS14713   0.784   5.761  10.449 -0.9384 -0.5879 -1.0566
  136SAPE   O2114714   0.962   5.691  10.365  0.3137 -0.2411  0.3405
  136SAPE   C2114715   0.892   5.665  10.248  0.0812 -0.0537  0.7294
  136SAPE   O2214716   0.775   5.648  10.237  0.2815  0.0430 -0.1725
  136SAPE   C2214717   0.988   5.670  10.133 -0.0502  0.5626 -0.0570
  136SAPE   H2R14718   0.994   5.773  10.093 -1.9364  0.5469 -0.4413
  136SAPE   H2S14719   1.088   5.638  10.169  0.1365 -1.9687 -2.4460
  136SAPE    C314720   0.955   5.813  10.578  0.7708  0.0526  0.1413
  136SAPE    HX14721   1.027   5.757  10.641 -1.0142 -1.5629  0.8395
  136SAPE    HY14722   0.863   5.846  10.631 -1.7617 -3.1574 -1.8605
  136SAPE   O3114723   0.997   5.934  10.507 -0.5133 -0.4570 -0.6735
  136SAPE   C3114724   1.122   5.930  10.460  0.0773 -0.4412 -0.3206
  136SAPE   O3214725   1.196   5.835  10.473  0.3739  0.3243  0.1666
  136SAPE   C3214726   1.151   6.068  10.406  0.0330 -0.1291 -0.2861
  136SAPE   H2X14727   1.215   6.117  10.483 -1.4688  0.7647  0.4409
  136SAPE   H2Y14728   1.061   6.132  10.392  0.3181  0.6331  1.1334
  136SAPE   C2314729   0.944   5.578  10.018 -0.2072 -0.6011 -0.1359
  136SAPE   H3R14730   0.836   5.573   9.992  0.2691 -1.2683 -2.1600
  136SAPE   H3S14731   0.983   5.482  10.057  1.6536  1.5159  3.8891
  136SAPE   C2414732   1.023   5.612   9.884 -0.1409 -0.7896 -0.3029
  136SAPE   H4R14733   1.001   5.529   9.813 -1.8434 -1.4728  0.9648
  136SAPE   H4S14734   1.132   5.605   9.900  0.0457 -1.5167 -1.7299
  136SAPE   C2514735   0.986   5.746   9.818 -0.0595  0.3510  0.2271
  136SAPE   H5R14736   1.021   5.833   9.875 -0.8861  0.2220  0.9368
  136SAPE   C2614737   0.925   5.771   9.702  1.2402  0.0009  0.7929
  136SAPE   H6R14738   0.920   5.876   9.669 -1.4728 -0.2278  0.2870
  136SAPE   C2714739   0.868   5.661   9.618  0.3874 -0.2147  0.4155
  136SAPE   H7R14740   0.779   5.691   9.558  2.8379  0.2003 -3.3215
  136SAPE   H7S14741   0.829   5.585   9.689 -0.1315 -0.8901 -0.5656
  136SAPE   C2814742   0.967   5.590   9.523  0.1661  0.0059  0.6139
  136SAPE   H8R14743   1.050   5.542   9.577 -1.3105 -0.1985  2.8597
  136SAPE   C2914744   0.973   5.593   9.390 -0.0119  0.3998  0.4042
  136SAPE   H9R14745   1.053   5.547   9.330 -0.1410  0.6677  0.0212
  136SAPE  C21014746   0.881   5.669   9.295  0.4284 -0.3494 -0.3045
  136SAPE  H10R14747   0.852   5.761   9.352 -1.8457 -1.6668  0.8030
  136SAPE  H10S14748   0.793   5.603   9.283 -1.0509  1.1542  1.4196
  136SAPE  C21114749   0.959   5.719   9.174  0.1263  0.2017  0.5421
  136SAPE  H11R14750   1.031   5.800   9.194  1.7884 -1.3572  1.0567
  136SAPE  C21214751   0.967   5.653   9.057  0.1287  0.3350 -0.1683
  136SAPE  H12R14752   1.031   5.696   8.978 -0.6135  0.9386 -0.4551
  136SAPE  C21314753   0.886   5.523   9.026 -0.7255 -0.4611  0.3819
  136SAPE  H13R14754   0.779   5.547   9.010  0.1435  2.1984 -2.4031
  136SAPE  H13S14755   0.903   5.451   9.109 -0.5461 -1.2214 -0.3000
  136SAPE  C21414756   0.938   5.472   8.893  0.1129  0.2796  0.4802
  136SAPE  H14R14757   0.875   5.501   8.807 -0.7558  0.2666  1.0933
  136SAPE  C21514758   1.053   5.404   8.874 -0.3957 -0.7941  0.0442
  136SAPE  H15R14759   1.079   5.373   8.772 -3.3237 -0.3027 -0.9226
  136SAPE  C21614760   1.144   5.365   8.988  0.2129  0.0647 -0.4817
  136SAPE  H16R14761   1.098   5.350   9.088  1.6110 -3.6567 -0.2462
  136SAPE  H16S14762   1.232   5.430   9.004  0.2729 -0.4985  1.8461
  136SAPE  C21714763   1.206   5.233   8.960 -0.4065  0.6251  0.1424
  136SAPE  H17R14764   1.125   5.159   8.944  1.7602 -1.7109 -0.8716
  136SAPE  H17S14765   1.261   5.210   9.053 -0.9037  3.9125  1.3568
  136SAPE  C21814766   1.321   5.221   8.852  0.6653 -0.6601  0.2230
  136SAPE  H18R14767   1.389   5.308   8.861  0.9361 -0.2397 -3.7463
  136SAPE  H18S14768   1.264   5.234   8.757 -2.2766 -2.2228  1.6201
  136SAPE  C21914769   1.396   5.094   8.841 -1.2580  0.4413  1.2419
  136SAPE  H19R14770   1.341   5.006   8.801 -1.2579  1.5488 -1.4112
  136SAPE  H19S14771   1.435   5.074   8.943 -1.6279 -0.7945  1.1583
  136SAPE  C22014772   1.519   5.111   8.746  0.6486  0.3720 -0.3546
  136SAPE  H20R14773   1.595   5.190   8.764  1.0413 -0.1084  0.1590
  136SAPE  H20S14774   1.468   5.134   8.650 -0.7092 -1.4766 -0.1350
  136SAPE  H20T14775   1.570   5.012   8.738 -1.3780 -0.9008  1.3392
  136SAPE   C3314776   1.224   6.065  10.268 -0.4774  0.7477 -0.0081
  136SAPE   H3X14777   1.173   5.991  10.203  0.4301 -2.2748  2.4694
  136SAPE   H3Y14778   1.317   6.005  10.278 -0.8934 -0.1157 -1.0578
  136SAPE   C3414779   1.260   6.198  10.210  0.6665 -0.2259 -0.2847
  136SAPE   H4X14780   1.335   6.239  10.281  0.2521  1.1876 -0.6367
  136SAPE   H4Y14781   1.173   6.264  10.234  0.6079 -1.2013  2.6656
  136SAPE   C3514782   1.300   6.191  10.057 -0.6744  0.2643 -0.1572
  136SAPE   H5X14783   1.371   6.106  10.045  1.8932  2.1368  0.9327
  136SAPE   H5Y14784   1.357   6.282  10.032  0.7679 -1.1579 -2.3724
  136SAPE   C3614785   1.175   6.171   9.970  0.4441  0.4591 -0.5794
  136SAPE   H6X14786   1.101   6.248  10.002  0.6029 -1.1025  4.4725
  136SAPE   H6Y14787   1.125   6.079  10.006  2.3727  0.1407  1.5225
  136SAPE   C3714788   1.201   6.185   9.824 -0.0811  0.4434 -0.3525
  136SAPE   H7X14789   1.292   6.127   9.798 -0.0101 -1.5157  3.6297
  136SAPE   H7Y14790   1.215   6.293   9.804 -0.8179  0.5150 -0.4966
  136SAPE   C3814791   1.094   6.125   9.730  0.4274 -0.2310  0.3186
  136SAPE   H8X14792   0.992   6.159   9.757 -0.4707 -2.8981  0.5383
  136SAPE   H8Y14793   1.094   6.015   9.742  0.3309 -0.4219 -1.2710
  136SAPE   C3914794   1.114   6.155   9.580 -0.5688 -0.0794  0.1441
  136SAPE   H9X14795   1.189   6.081   9.544  0.4874  0.4647  1.1406
  136SAPE   H9Y14796   1.148   6.260   9.570 -0.7821 -0.0180  0.0789
  136SAPE  C31014797   0.990   6.148   9.494  0.0191  0.1396  0.4921
  136SAPE  H10X14798   0.927   6.238   9.507  0.5298  0.6560 -0.4768
  136SAPE  H10Y14799   0.935   6.053   9.513  2.4961 -1.4877  0.0161
  136SAPE  C31114800   1.039   6.147   9.348  0.7783  0.9245  0.2887
  136SAPE  H11X14801   1.082   6.049   9.319  0.5936  1.4272 -1.8090
  136SAPE  H11Y14802   1.108   6.234   9.340  1.3846  0.3676 -0.9083
  136SAPE  C31214803   0.934   6.166   9.239  0.3781 -0.7721 -0.6580
  136SAPE  H12X14804   0.864   6.247   9.269  1.9093  0.7697 -1.0913
  136SAPE  H12Y14805   0.874   6.072   9.229  0.5956 -0.7534 -2.7304
  136SAPE  C31314806   1.004   6.187   9.101 -0.2402 -0.1484 -0.3360
  136SAPE  H13X14807   1.080   6.108   9.083  0.3051  0.4674 -0.7622
  136SAPE  H13Y14808   1.049   6.288   9.096 -0.6653  0.0291 -0.6357
  136SAPE  C31414809   0.906   6.175   8.988  0.6825  0.5297 -0.0599
  136SAPE  H14X14810   0.815   6.239   8.996  0.0680 -0.4822  1.5025
  136SAPE  H14Y14811   0.866   6.074   9.009  3.1598 -0.3878  0.4832
  136SAPE  C31514812   0.957   6.161   8.844 -0.4040  0.2478 -0.3404
  136SAPE  H15X14813   1.052   6.106   8.857 -0.1884  0.8154  0.5939
  136SAPE  H15Y14814   0.990   6.260   8.805 -0.3286 -0.0395 -1.0167
  136SAPE  C31614815   0.872   6.087   8.741 -0.5517 -0.4367  0.1565
  136SAPE  H16X14816   0.774   6.139   8.742  0.7914  2.2689  1.8680
  136SAPE  H16Y14817   0.864   5.978   8.759 -0.7422 -0.5085 -0.3475
  136SAPE  C31714818   0.924   6.094   8.599 -0.1227  0.1993  0.6540
  136SAPE  H17X14819   0.863   6.020   8.543  1.5671 -0.2467 -0.6902
  136SAPE  H17Y14820   1.026   6.050   8.599  0.3556  1.1987 -1.5965
  136SAPE  C31814821   0.918   6.235   8.534  0.0250  0.0178  0.0573
  136SAPE  H18X14822   0.814   6.271   8.517  0.6055  3.0125  2.1186
  136SAPE  H18Y14823   0.981   6.234   8.442  0.9192 -1.1092  0.6473
  136SAPE  H18Z14824   0.962   6.307   8.607  0.0490  0.0766 -0.0148
  137SAPE     N14825   6.494   2.263  11.123 -0.6623  0.2310 -0.1712
  137SAPE   HN114826   6.490   2.193  11.199 -0.0098 -0.2755 -0.5900
  137SAPE   HN214827   6.552   2.208  11.057 -1.4053 -0.0917 -0.5674
  137SAPE   HN314828   6.541   2.348  11.159 -1.3044  0.4240  0.2360
  137SAPE   C1214829   6.359   2.275  11.054 -0.1927  0.0767  0.0553
  137SAPE  H12A14830   6.293   2.322  11.130  1.3932  0.2273  1.3941
  137SAPE  H12B14831   6.319   2.173  11.034 -3.3436  1.3651 -1.0137
  137SAPE   C1114832   6.348   2.362  10.924 -0.0224  0.6155 -0.8910
  137SAPE  H11A14833   6.246   2.404  10.910  0.1230  1.3915  0.2299
  137SAPE  H11B14834   6.368   2.298  10.836 -1.0900 -1.3653  0.2474
  137SAPE     P14835   6.563   2.501  10.832  0.0679 -0.0158  0.0694
  137SAPE   O1314836   6.661   2.594  10.886 -0.0314  0.0653  0.2864
  137SAPE   O1414837   6.614   2.376  10.779  0.0726 -0.2051  0.1686
  137SAPE   O1214838   6.439   2.476  10.935  0.5114 -0.1235 -0.5936
  137SAPE   O1114839   6.490   2.565  10.712  0.1652  0.2757 -0.1849
  137SAPE    C114840   6.393   2.507  10.620 -0.6864  0.0001 -0.1176
  137SAPE    HA14841   6.421   2.402  10.597  1.0351 -0.0764  2.0395
  137SAPE    HB14842   6.295   2.494  10.669 -0.2894 -0.8545  0.4699
  137SAPE    C214843   6.401   2.584  10.480 -0.0483 -0.4390  0.8142
  137SAPE    HS14844   6.342   2.524  10.407  0.9589 -1.4568  0.7989
  137SAPE   O2114845   6.538   2.576  10.445  0.2619  0.3884  0.0260
  137SAPE   C2114846   6.575   2.473  10.371  0.4071 -0.1886  0.2229
  137SAPE   O2214847   6.499   2.386  10.325  0.3804 -0.3790 -0.2538
  137SAPE   C2214848   6.731   2.476  10.355 -0.4687  0.3859  0.3165
  137SAPE   H2R14849   6.766   2.582  10.351  0.6829  0.0768  1.5334
  137SAPE   H2S14850   6.780   2.438  10.447 -1.1064 -0.1399  0.4470
  137SAPE    C314851   6.349   2.729  10.498 -0.0893 -0.5079  0.0751
  137SAPE    HX14852   6.420   2.790  10.559 -1.6342 -0.9401  2.4521
  137SAPE    HY14853   6.256   2.742  10.558 -0.2285  1.9465 -0.5652
  137SAPE   O3114854   6.331   2.789  10.366  0.0391 -0.0930 -0.1668
  137SAPE   C3114855   6.325   2.921  10.370 -0.5011  0.0885  0.0741
  137SAPE   O3214856   6.342   2.992  10.466 -0.3650  0.3270  1.0489
  137SAPE   C3214857   6.270   2.978  10.242  0.4033  0.7090 -0.1115
  137SAPE   H2X14858   6.311   3.079  10.223  0.4505  0.5545 -0.8529
  137SAPE   H2Y14859   6.164   2.989  10.274  0.8167  0.6348  1.3831
  137SAPE   C2314860   6.768   2.381  10.230  0.4361 -0.6748  0.6134
  137SAPE   H3R14861   6.715   2.284  10.238 -1.9796  0.1995 -2.6484
  137SAPE   H3S14862   6.878   2.360  10.233  0.6077  0.1537  0.3794
  137SAPE   C2414863   6.736   2.456  10.096  0.0116 -0.4601 -0.0632
  137SAPE   H4R14864   6.627   2.468  10.083  0.4750  1.9327 -2.6810
  137SAPE   H4S14865   6.769   2.385  10.016 -0.4090 -2.0792  1.1406
  137SAPE   C2514866   6.804   2.590  10.079 -0.2944  0.2923  0.0288
  137SAPE   H5R14867   6.899   2.602  10.133  0.3145  1.7116 -1.2858
  137SAPE   C2614868   6.751   2.693  10.013  0.3776 -0.2751  0.3142
  137SAPE   H6R14869   6.813   2.784  10.006 -0.7640  0.3832 -3.8877
  137SAPE   C2714870   6.616   2.710   9.946 -0.3409 -0.0753  0.2408
  137SAPE   H7R14871   6.598   2.819   9.932 -0.5138  0.2498  2.5784
  137SAPE   H7S14872   6.533   2.676  10.011  0.1670 -1.6792  0.0806
  137SAPE   C2814873   6.614   2.642   9.808 -0.3432  0.7319  0.1932
  137SAPE   H8R14874   6.704   2.584   9.783  0.3474  1.6587  0.4416
  137SAPE   C2914875   6.512   2.658   9.724 -0.2545 -0.0938  0.0874
  137SAPE   H9R14876   6.520   2.607   9.627  0.3041 -1.0355  0.6159
  137SAPE  C21014877   6.395   2.751   9.740  0.1909 -0.2831  0.5388
  137SAPE  H10R14878   6.436   2.853   9.727  0.3738 -0.5213 -0.9815
  137SAPE  H10S14879   6.344   2.736   9.838  1.3941  3.6519  1.9579
  137SAPE  C21114880   6.288   2.715   9.638  0.0296 -0.5956 -0.5321
  137SAPE  H11R14881   6.192   2.671   9.671 -0.4019  0.7129  0.0337
  137SAPE  C21214882   6.288   2.735   9.506 -0.5649  0.0983 -0.0454
  137SAPE  H12R14883   6.205   2.706   9.440  0.3444  1.4417 -1.8756
  137SAPE  C21314884   6.406   2.795   9.431  0.3933 -0.1517 -0.4024
  137SAPE  H13R14885   6.482   2.816   9.508  0.2015 -0.0560 -0.2376
  137SAPE  H13S14886   6.386   2.903   9.410  0.6109  0.2950  1.5441
  137SAPE  C21414887   6.465   2.723   9.310 -0.3047 -0.3607 -0.1329
  137SAPE  H14R14888   6.514   2.626   9.331  0.8951 -0.9106 -4.4829
  137SAPE  C21514889   6.478   2.773   9.182 -0.4195  0.1145 -0.0723
  137SAPE  H15R14890   6.504   2.698   9.106  1.6181 -2.3024  2.8136
  137SAPE  C21614891   6.433   2.904   9.133 -0.1446  0.4374  0.3326
  137SAPE  H16R14892   6.376   2.958   9.212  0.6941 -0.7809  1.8213
  137SAPE  H16S14893   6.362   2.879   9.051  0.4118  1.3589 -0.4419
  137SAPE  C21714894   6.551   2.987   9.090  0.4752 -0.4766  0.5467
  137SAPE  H17R14895   6.510   3.076   9.038  1.8462 -0.1676 -0.0420
  137SAPE  H17S14896   6.605   2.926   9.014  0.4434  2.9471 -2.4471
  137SAPE  C21814897   6.634   3.043   9.205  0.6317  0.3980 -0.3051
  137SAPE  H18R14898   6.674   2.964   9.272  0.5407 -0.0995 -0.8290
  137SAPE  H18S14899   6.571   3.110   9.268  1.9291 -0.6275  2.2258
  137SAPE  C21914900   6.759   3.123   9.162 -0.9242 -0.8419 -0.3990
  137SAPE  H19R14901   6.852   3.064   9.149 -0.1712  0.6123 -1.9545
  137SAPE  H19S14902   6.785   3.178   9.255 -2.1297 -2.8066  1.1930
  137SAPE  C22014903   6.742   3.213   9.042  0.0143 -0.0177  0.5339
  137SAPE  H20R14904   6.668   3.293   9.064  0.3162 -0.1244  1.9914
  137SAPE  H20S14905   6.722   3.155   8.949  0.1135 -1.2414  1.2525
  137SAPE  H20T14906   6.842   3.260   9.030  0.2017 -0.8788 -2.1077
  137SAPE   C3314907   6.282   2.874  10.122  0.1890 -0.0595  0.1264
  137SAPE   H3X14908   6.239   2.775  10.150 -2.8173  1.4728  1.3918
  137SAPE   H3Y14909   6.391   2.870  10.104  0.2116  0.2137  0.2013
  137SAPE   C3414910   6.213   2.918   9.988  0.3098  0.3182 -0.0965
  137SAPE   H4X14911   6.115   2.961  10.020 -0.4245 -0.4127 -1.3001
  137SAPE   H4Y14912   6.177   2.837   9.921 -1.1658  0.3079  0.6588
  137SAPE   C3514913   6.295   3.034   9.931  0.6371  0.0585  0.9196
  137SAPE   H5X14914   6.402   3.004   9.935  0.6770  0.0633 -0.0028
  137SAPE   H5Y14915   6.291   3.131   9.985  0.7148  1.8678 -2.1014
  137SAPE   C3614916   6.256   3.068   9.781  0.2337  0.0889  0.1253
  137SAPE   H6X14917   6.160   3.125   9.778 -0.7449 -1.4912  0.3505
  137SAPE   H6Y14918   6.227   2.974   9.730 -1.3641  0.4625  0.2659
  137SAPE   C3714919   6.360   3.149   9.706  0.6992 -0.6369 -0.2212
  137SAPE   H7X14920   6.458   3.097   9.696  1.3503  0.1720  1.5956
  137SAPE   H7Y14921   6.372   3.246   9.758 -0.2132 -1.0423  0.7945
  137SAPE   C3814922   6.314   3.191   9.562 -0.1413 -0.8304  0.8570
  137SAPE   H8X14923   6.224   3.249   9.593  1.2098  1.4626  0.7259
  137SAPE   H8Y14924   6.287   3.099   9.507 -2.9693  1.2175 -1.4606
  137SAPE   C3914925   6.427   3.267   9.491  0.2344 -0.8078  0.7251
  137SAPE   H9X14926   6.509   3.200   9.458  0.4984 -0.7013  1.1592
  137SAPE   H9Y14927   6.476   3.332   9.567 -1.5101  0.1797  1.0579
  137SAPE  C31014928   6.366   3.361   9.382 -0.8084  0.1583 -0.5379
  137SAPE  H10X14929   6.438   3.441   9.352 -0.5490 -0.3801 -1.3714
  137SAPE  H10Y14930   6.272   3.401   9.425  0.3091  1.2809  0.9971
  137SAPE  C31114931   6.325   3.299   9.247 -0.4606 -0.6132 -0.0660
  137SAPE  H11X14932   6.234   3.239   9.269 -0.1262 -1.7416 -1.5822
  137SAPE  H11Y14933   6.398   3.221   9.219 -1.6436 -2.0370  0.6725
  137SAPE  C31214934   6.281   3.398   9.137 -0.1029 -0.5069  0.4150
  137SAPE  H12X14935   6.368   3.460   9.106 -1.3389 -0.0553 -2.4468
  137SAPE  H12Y14936   6.208   3.468   9.182  1.3539  1.1550  0.3275
  137SAPE  C31314937   6.229   3.325   9.005  0.1073 -0.8579 -0.0856
  137SAPE  H13X14938   6.165   3.237   9.028  1.5494 -2.5478 -2.2124
  137SAPE  H13Y14939   6.307   3.305   8.929 -0.2825  1.5777 -1.2434
  137SAPE  C31414940   6.132   3.419   8.937  0.3844 -0.8381  0.4600
  137SAPE  H14X14941   6.192   3.505   8.901 -0.1612 -0.6882 -0.1179
  137SAPE  H14Y14942   6.060   3.462   9.011  1.1166  0.3017  0.5496
  137SAPE  C31514943   6.061   3.364   8.813  0.0258 -0.1146 -0.2894
  137SAPE  H15X14944   5.999   3.281   8.854 -0.0115  0.1341  0.1710
  137SAPE  H15Y14945   6.130   3.321   8.739 -0.9535 -1.4647 -0.4582
  137SAPE  C31614946   5.965   3.462   8.743 -0.6757 -0.3178  0.0359
  137SAPE  H16X14947   6.019   3.552   8.707 -1.3238  0.0593  0.0009
  137SAPE  H16Y14948   5.901   3.502   8.824  1.4697  1.7229  0.8318
  137SAPE  C31714949   5.887   3.396   8.631 -0.5523  0.8174 -0.4578
  137SAPE  H17X14950   5.826   3.477   8.586  1.2326  2.5301  0.0343
  137SAPE  H17Y14951   5.819   3.319   8.673  0.6238  0.3008  0.5831
  137SAPE  C31814952   5.974   3.321   8.526 -0.0240  0.7765  0.1460
  137SAPE  H18X14953   6.018   3.226   8.562 -1.3670  0.5431  1.2152
  137SAPE  H18Y14954   6.060   3.383   8.490  1.3716  0.3678  2.5266
  137SAPE  H18Z14955   5.897   3.289   8.453  0.3385 -0.5065  0.3058
  138SAPE     N14956   1.544   6.152  10.831 -0.0275 -0.4611  0.5093
  138SAPE   HN114957   1.628   6.091  10.819 -0.0244 -0.2999 -0.4153
  138SAPE   HN214958   1.478   6.116  10.902 -2.4178 -1.7083 -2.1186
  138SAPE   HN314959   1.485   6.144  10.745  0.3275 -0.0562  0.2220
  138SAPE   C1214960   1.599   6.289  10.867 -0.2916  0.4439  0.0164
  138SAPE  H12A14961   1.697   6.308  10.819  1.0410 -0.3832  2.2330
  138SAPE  H12B14962   1.621   6.290  10.976 -0.6454  1.8434  0.1042
  138SAPE   C1114963   1.503   6.400  10.823  0.2088 -0.0731 -0.3386
  138SAPE  H11A14964   1.546   6.496  10.857  1.2087 -0.7044  0.2328
  138SAPE  H11B14965   1.404   6.401  10.872  0.3429 -0.2933 -0.0636
  138SAPE     P14966   1.367   6.431  10.594 -0.3036 -0.1386 -0.0458
  138SAPE   O1314967   1.271   6.320  10.603 -0.2307 -0.1674 -0.8437
  138SAPE   O1414968   1.314   6.562  10.623 -0.2762 -0.1301 -0.2379
  138SAPE   O1214969   1.494   6.401  10.678 -0.5111 -0.0496 -0.0226
  138SAPE   O1114970   1.419   6.443  10.445  0.2627 -0.9528 -0.0439
  138SAPE    C114971   1.538   6.382  10.408  0.4765  0.2487  0.5615
  138SAPE    HA14972   1.566   6.291  10.466 -0.9468 -2.0199 -2.0354
  138SAPE    HB14973   1.542   6.349  10.301  0.6674 -0.7238  0.8605
  138SAPE    C214974   1.659   6.477  10.432 -0.5568 -0.4943 -0.3356
  138SAPE    HS14975   1.658   6.494  10.542 -1.6039 -0.2627 -0.3759
  138SAPE   O2114976   1.645   6.602  10.362  0.3967  0.4486 -0.1814
  138SAPE   C2114977   1.718   6.703  10.406  0.1210 -0.8398 -0.0075
  138SAPE   O2214978   1.806   6.702  10.490  0.2517 -0.0126 -0.4756
  138SAPE   C2214979   1.659   6.832  10.347 -0.6641  0.5464  0.5478
  138SAPE   H2R14980   1.556   6.809  10.312 -0.5697  0.3822  0.3747
  138SAPE   H2S14981   1.650   6.907  10.429  0.3584  1.1513  0.1261
  138SAPE    C314982   1.802   6.408  10.393  0.2150  0.3282 -0.4481
  138SAPE    HX14983   1.809   6.331  10.472  0.8257 -0.9440 -1.7069
  138SAPE    HY14984   1.886   6.474  10.425  0.1837 -0.2489  0.9159
  138SAPE   O3114985   1.808   6.339  10.266 -0.0264  0.1158  0.3911
  138SAPE   C3114986   1.877   6.405  10.170  0.1160  0.3757 -0.5107
  138SAPE   O3214987   1.932   6.510  10.193  0.2769 -0.1185  0.0597
  138SAPE   C3214988   1.868   6.351  10.026 -0.7478  0.1683 -0.8196
  138SAPE   H2X14989   1.782   6.280  10.026  1.5496 -2.9734  2.2369
  138SAPE   H2Y14990   1.959   6.291  10.002 -1.2787 -0.6047 -0.9627
  138SAPE   C2314991   1.735   6.883  10.225 -0.1975 -0.3512  0.3109
  138SAPE   H3R14992   1.775   6.795  10.170  1.1752  1.5329 -1.8564
  138SAPE   H3S14993   1.824   6.943  10.253  0.1071 -1.2326  1.3101
  138SAPE   C2414994   1.638   6.960  10.130 -0.5093 -0.7291 -0.2033
  138SAPE   H4R14995   1.546   6.902  10.106 -0.2892  0.0479 -3.2188
  138SAPE   H4S14996   1.689   6.973  10.032 -0.4702  1.2357  0.0340
  138SAPE   C2514997   1.587   7.088  10.186  0.2710  0.8038 -0.2666
  138SAPE   H5R14998   1.652   7.123  10.267  1.4990 -0.0344 -0.8575
  138SAPE   C2614999   1.471   7.152  10.165 -0.1252 -0.3244 -0.0919
  138SAPE   H6R15000   1.449   7.234  10.235 -0.8226  0.6814 -1.4373
  138SAPE   C2715001   1.363   7.125  10.069 -0.6405  0.7598 -0.7102
  138SAPE   H7R15002   1.350   7.015  10.063 -0.6527  0.6963  0.3177
  138SAPE   H7S15003   1.398   7.162   9.970  0.9220  1.2602  0.0047
  138SAPE   C2815004   1.233   7.187  10.107 -0.5446  0.0004 -0.2045
  138SAPE   H8R15005   1.170   7.127  10.174  0.0080 -0.5193 -0.1475
  138SAPE   C2915006   1.188   7.304  10.059  0.0748 -0.1079  0.2170
  138SAPE   H9R15007   1.087   7.333  10.092 -0.3744 -0.6803 -0.6159
  138SAPE  C21015008   1.258   7.396   9.957  0.2912 -0.9429 -0.4618
  138SAPE  H10R15009   1.255   7.346   9.858  1.3714 -0.3273 -0.8208
  138SAPE  H10S15010   1.366   7.415   9.980 -0.0221  0.4409 -0.0571
  138SAPE  C21115011   1.187   7.527   9.949  0.5867 -0.8054  0.0291
  138SAPE  H11R15012   1.159   7.566  10.048 -0.9424 -2.4871  0.3103
  138SAPE  C21215013   1.157   7.593   9.836  0.7517 -0.2809 -0.1238
  138SAPE  H12R15014   1.098   7.684   9.851  0.1857 -0.7133  0.3316
  138SAPE  C21315015   1.173   7.553   9.684  0.1987 -0.4581 -0.0156
  138SAPE  H13R15016   1.107   7.620   9.625  1.3103  0.5651 -0.1452
  138SAPE  H13S15017   1.143   7.447   9.677  0.4100 -0.5512  0.4810
  138SAPE  C21415018   1.302   7.598   9.632  0.0943  0.0747 -0.0967
  138SAPE  H14R15019   1.386   7.573   9.698  1.3809  1.5360 -1.1159
  138SAPE  C21515020   1.331   7.678   9.527  0.4921  0.6104 -0.4913
  138SAPE  H15R15021   1.440   7.691   9.525  0.6311 -0.1971  0.7241
  138SAPE  C21615022   1.243   7.741   9.428 -0.5876  0.0158  0.1022
  138SAPE  H16R15023   1.269   7.849   9.425  0.3205 -0.2134 -2.3539
  138SAPE  H16S15024   1.135   7.722   9.446 -0.1508 -0.7973  2.1222
  138SAPE  C21715025   1.272   7.684   9.282 -0.4368  0.7911 -0.7183
  138SAPE  H17R15026   1.220   7.585   9.287  0.1704  0.5138  0.6737
  138SAPE  H17S15027   1.381   7.669   9.267  0.1595  0.5729  2.8929
  138SAPE  C21815028   1.212   7.781   9.189  0.2255 -0.7006 -0.3840
  138SAPE  H18R15029   1.266   7.878   9.184  0.5965 -0.9142 -0.6277
  138SAPE  H18S15030   1.105   7.797   9.213  0.7506  2.8938  0.0980
  138SAPE  C21915031   1.207   7.731   9.039  0.0754 -0.1716 -0.0774
  138SAPE  H19R15032   1.132   7.650   9.045 -0.4267  0.3516  3.5880
  138SAPE  H19S15033   1.306   7.680   9.038 -1.5442 -3.5650 -0.9175
  138SAPE  C22015034   1.181   7.839   8.934 -0.8736  0.3512 -0.2678
  138SAPE  H20R15035   1.085   7.895   8.940 -0.9436  0.9553 -4.1583
  138SAPE  H20S15036   1.185   7.801   8.830  0.0947 -1.3158  0.3519
  138SAPE  H20T15037   1.267   7.909   8.944 -0.0708 -0.6360 -0.1952
  138SAPE   C3315038   1.849   6.467   9.933 -0.2811  0.1033  0.6370
  138SAPE   H3X15039   1.943   6.526   9.927  0.0408 -0.5373 -1.0232
  138SAPE   H3Y15040   1.756   6.525   9.947  0.2534  0.7807  1.5446
  138SAPE   C3415041   1.849   6.418   9.784 -0.0353 -0.4875 -0.7203
  138SAPE   H4X15042   1.752   6.370   9.762 -0.5876  0.3903 -0.2506
  138SAPE   H4Y15043   1.923   6.337   9.766  0.3060 -0.8408  1.8701
  138SAPE   C3515044   1.847   6.534   9.688 -0.4631  0.0470 -0.5754
  138SAPE   H5X15045   1.939   6.593   9.713  0.0552 -1.1879  0.5969
  138SAPE   H5Y15046   1.757   6.596   9.706  1.1018  1.5578  3.2498
  138SAPE   C3615047   1.843   6.486   9.542 -0.4331 -0.0094 -0.6793
  138SAPE   H6X15048   1.776   6.400   9.518 -0.5496  0.7214 -3.2503
  138SAPE   H6Y15049   1.942   6.443   9.518  0.1466  1.3291 -0.7298
  138SAPE   C3715050   1.801   6.592   9.445  1.2232  0.2336 -0.0222
  138SAPE   H7X15051   1.715   6.644   9.493  0.9269 -1.3032  1.1921
  138SAPE   H7Y15052   1.764   6.544   9.352 -1.2520  0.2801  0.8626
  138SAPE   C3815053   1.912   6.693   9.404  0.0921  0.3608  0.1953
  138SAPE   H8X15054   1.950   6.739   9.498 -0.2398  0.1778  0.4203
  138SAPE   H8Y15055   1.868   6.776   9.345  1.0523  0.4747 -0.3789
  138SAPE   C3915056   2.026   6.632   9.315 -0.2960  0.0303  0.1741
  138SAPE   H9X15057   1.996   6.594   9.215 -0.5203  0.8713 -0.0827
  138SAPE   H9Y15058   2.061   6.538   9.364 -3.1435 -0.8305  0.8035
  138SAPE  C31015059   2.135   6.738   9.297  0.6299 -0.1438  0.1266
  138SAPE  H10X15060   2.174   6.746   9.401  2.1635 -3.4286 -0.0605
  138SAPE  H10Y15061   2.099   6.835   9.258  1.1995  0.1323  0.2761
  138SAPE  C31115062   2.252   6.703   9.199 -0.0425 -0.2149 -0.4742
  138SAPE  H11X15063   2.303   6.607   9.219  0.3522  0.0235 -0.3352
  138SAPE  H11Y15064   2.323   6.785   9.222 -1.4300  1.0000 -0.3501
  138SAPE  C31215065   2.214   6.706   9.049 -0.4118 -0.2268  0.5793
  138SAPE  H12X15066   2.190   6.808   9.012 -0.4976 -0.0524  1.1092
  138SAPE  H12Y15067   2.125   6.641   9.040  0.2722 -1.1069 -0.0331
  138SAPE  C31315068   2.328   6.642   8.962 -0.3223 -0.2560 -0.0456
  138SAPE  H13X15069   2.384   6.570   9.025 -0.4006 -0.8744 -0.6709
  138SAPE  H13Y15070   2.400   6.719   8.926 -1.0888  0.6886  0.3899
  138SAPE  C31415071   2.275   6.570   8.842  0.0175  0.3802 -0.1114
  138SAPE  H14X15072   2.355   6.566   8.765  1.7210  0.9880  1.5353
  138SAPE  H14Y15073   2.198   6.636   8.796 -0.0531 -0.1742 -0.7997
  138SAPE  C31515074   2.220   6.427   8.868 -0.5392  0.3996  0.5383
  138SAPE  H15X15075   2.167   6.394   8.777  0.8366  0.6952 -0.3940
  138SAPE  H15Y15076   2.167   6.441   8.965 -0.4049 -0.7597  0.7968
  138SAPE  C31615077   2.330   6.326   8.877  0.0477 -0.1867 -0.8280
  138SAPE  H16X15078   2.391   6.337   8.970 -0.9687 -3.0690  0.3205
  138SAPE  H16Y15079   2.398   6.338   8.790  0.8792  0.4370 -0.1083
  138SAPE  C31715080   2.265   6.188   8.881 -1.2522 -0.1499  0.0916
  138SAPE  H17X15081   2.209   6.166   8.788 -0.6049  0.9416 -0.5779
  138SAPE  H17Y15082   2.194   6.209   8.964  0.9519  3.7647  1.2530
  138SAPE  C31815083   2.373   6.075   8.905 -0.4439  0.8112  0.4708
  138SAPE  H18X15084   2.455   6.088   8.831 -1.6591 -1.8118 -1.4964
  138SAPE  H18Y15085   2.325   5.975   8.889 -0.7426  1.0335 -0.0311
  138SAPE  H18Z15086   2.416   6.083   9.008  1.3749  1.4278 -0.2975
  139SAPE     N15087   3.258   5.948  10.920  0.4133  0.1553 -0.0209
  139SAPE   HN115088   3.331   5.978  10.987 -0.1638  0.9241  0.2847
  139SAPE   HN215089   3.271   5.995  10.828 -0.6651  0.0690 -0.2372
  139SAPE   HN315090   3.181   6.011  10.951  1.5461  1.4987  0.1455
  139SAPE   C1215091   3.223   5.802  10.922 -0.9555 -0.0985 -0.5408
  139SAPE  H12A15092   3.204   5.775  11.028  0.5212  1.9462  0.3125
  139SAPE  H12B15093   3.315   5.746  10.894 -0.2898  1.0479 -0.7622
  139SAPE   C1115094   3.109   5.769  10.828 -0.3794 -0.7117  0.0294
  139SAPE  H11A15095   3.019   5.725  10.876 -0.0145 -0.5206  0.8908
  139SAPE  H11B15096   3.155   5.686  10.769 -0.7491 -0.3765 -0.7491
  139SAPE     P15097   2.966   5.979  10.770 -0.0320 -0.1599  0.3469
  139SAPE   O1315098   2.849   5.913  10.826  0.6064  0.0404  0.3710
  139SAPE   O1415099   3.033   6.085  10.851  0.4137  0.4965  0.3209
  139SAPE   O1215100   3.073   5.872  10.731 -0.2249 -0.5644 -0.0097
  139SAPE   O1115101   2.926   6.035  10.629  0.0711 -1.0249 -0.2939
  139SAPE    C115102   3.033   6.080  10.538  0.3036 -0.5177  0.5636
  139SAPE    HA15103   3.101   6.154  10.585  1.9842 -1.7756  0.2432
  139SAPE    HB15104   3.107   5.998  10.523 -0.0332 -0.6825 -0.2769
  139SAPE    C215105   2.982   6.131  10.398  0.6868 -0.2298  0.3291
  139SAPE    HS15106   2.924   6.222  10.421 -2.0208 -2.3029  2.4508
  139SAPE   O2115107   2.889   6.032  10.336 -0.2301  0.8537  0.7914
  139SAPE   C2115108   2.812   6.078  10.228  0.1023 -0.5531  0.6684
  139SAPE   O2215109   2.818   6.195  10.198 -0.4269  0.1817  0.1323
  139SAPE   C2215110   2.722   5.976  10.161  0.4668  0.0880 -0.3792
  139SAPE   H2R15111   2.761   5.875  10.187  0.0448 -0.3271 -1.2984
  139SAPE   H2S15112   2.620   5.980  10.204  0.7972  1.1647  0.3520
  139SAPE    C315113   3.112   6.150  10.317  0.5658 -0.0864 -0.4262
  139SAPE    HX15114   3.140   6.045  10.295 -0.4915 -0.5200  0.1755
  139SAPE    HY15115   3.201   6.179  10.377 -0.7312 -0.8588  2.0333
  139SAPE   O3115116   3.092   6.220  10.198  0.6526 -0.3063 -0.0946
  139SAPE   C3115117   3.059   6.348  10.209  0.2364 -0.1083 -0.0854
  139SAPE   O3215118   3.065   6.418  10.306  0.0698  0.3325  0.3256
  139SAPE   C3215119   3.042   6.418  10.076 -0.2083  0.4420  0.2244
  139SAPE   H2X15120   3.137   6.475  10.076 -2.0043  3.7275  1.7873
  139SAPE   H2Y15121   2.965   6.498  10.085 -0.1516  0.6258 -0.7507
  139SAPE   C2315122   2.712   6.012  10.009 -1.1439 -0.3761 -0.4611
  139SAPE   H3R15123   2.803   6.045   9.955 -0.7891  0.3212  0.5353
  139SAPE   H3S15124   2.640   6.096  10.001  1.1132  1.4421 -3.2513
  139SAPE   C2415125   2.653   5.899   9.922  0.1873 -0.4983 -0.2595
  139SAPE   H4R15126   2.620   5.950   9.829 -3.5564  1.9388  2.1085
  139SAPE   H4S15127   2.570   5.851   9.979  1.5285 -2.7219 -0.0789
  139SAPE   C2515128   2.742   5.779   9.897 -0.6439 -0.2185  0.0343
  139SAPE   H5R15129   2.787   5.741   9.990 -2.1794 -0.8594  0.5488
  139SAPE   C2615130   2.765   5.710   9.780 -0.4316  0.0976  0.0279
  139SAPE   H6R15131   2.837   5.628   9.782 -0.1881  0.3188  0.8429
  139SAPE   C2715132   2.717   5.759   9.649 -0.9594  0.1672 -0.1391
  139SAPE   H7R15133   2.774   5.722   9.561 -2.4143  1.1392 -1.5541
  139SAPE   H7S15134   2.746   5.866   9.651  1.0697 -0.3379  1.3232
  139SAPE   C2815135   2.571   5.750   9.609 -0.2699  0.0871 -0.4273
  139SAPE   H8R15136   2.495   5.745   9.689 -1.0182  0.0355 -1.1334
  139SAPE   C2915137   2.522   5.755   9.485 -0.1446  0.0980  0.0688
  139SAPE   H9R15138   2.413   5.745   9.476 -0.0492 -0.2312 -0.8572
  139SAPE  C21015139   2.591   5.775   9.357 -0.7426  0.2702  0.3641
  139SAPE  H10R15140   2.700   5.793   9.372 -0.9467  1.7356  0.2431
  139SAPE  H10S15141   2.572   5.880   9.327  0.8867 -0.2319 -2.9033
  139SAPE  C21115142   2.561   5.686   9.238 -0.2548 -0.4772  0.0675
  139SAPE  H11R15143   2.464   5.695   9.187 -1.0762  1.0335  1.7700
  139SAPE  C21215144   2.635   5.568   9.221 -0.5926 -0.6608  0.0297
  139SAPE  H12R15145   2.620   5.505   9.132 -0.1138  0.7800 -1.1219
  139SAPE  C21315146   2.741   5.495   9.300 -0.6776 -0.6509 -0.5261
  139SAPE  H13R15147   2.683   5.496   9.395 -3.4900 -0.2442 -2.1497
  139SAPE  H13S15148   2.837   5.549   9.318  0.4199 -2.8898  0.7697
  139SAPE  C21415149   2.780   5.352   9.274  0.7541 -0.6932  0.3852
  139SAPE  H14R15150   2.731   5.277   9.337  1.9449 -1.3198  0.5978
  139SAPE  C21515151   2.861   5.308   9.174 -0.0457  0.0904 -0.2586
  139SAPE  H15R15152   2.868   5.198   9.168  0.2523  0.0270  0.9346
  139SAPE  C21615153   2.927   5.396   9.062  0.3280 -0.4480 -0.3943
  139SAPE  H16R15154   3.028   5.361   9.033 -0.0462 -0.4735 -1.7268
  139SAPE  H16S15155   2.930   5.502   9.095  2.8396 -1.2334  2.3574
  139SAPE  C21715156   2.855   5.402   8.925  0.4909 -0.5671 -0.0369
  139SAPE  H17R15157   2.898   5.490   8.872 -0.6214 -0.8383 -1.4795
  139SAPE  H17S15158   2.747   5.425   8.938  0.7658  0.2615  0.9218
  139SAPE  C21815159   2.875   5.276   8.843  0.2561  0.3711  0.2938
  139SAPE  H18R15160   2.828   5.186   8.888 -1.6471  2.1500  2.0663
  139SAPE  H18S15161   2.983   5.255   8.829  0.2897 -1.0129  2.2510
  139SAPE  C21915162   2.810   5.289   8.697  0.2638  0.7509  0.5622
  139SAPE  H19R15163   2.699   5.296   8.701  0.1267 -0.5217 -0.3250
  139SAPE  H19S15164   2.835   5.192   8.648  0.7701  1.9719 -1.7396
  139SAPE  C22015165   2.844   5.394   8.590  0.3876  0.2700  0.4625
  139SAPE  H20R15166   2.832   5.496   8.633  1.1395  0.7323 -0.3744
  139SAPE  H20S15167   2.780   5.389   8.500 -0.3067  1.5003  0.8715
  139SAPE  H20T15168   2.952   5.395   8.562  0.5435 -0.6026  0.9927
  139SAPE   C3315169   3.011   6.326   9.954 -0.6069  0.4368 -0.8616
  139SAPE   H3X15170   2.912   6.274   9.955  0.6230 -2.1958 -3.0371
  139SAPE   H3Y15171   3.101   6.261   9.950 -1.6600 -1.1461  0.1457
  139SAPE   C3415172   3.006   6.404   9.826  0.3814  0.2700 -0.1994
  139SAPE   H4X15173   3.109   6.425   9.791  0.3758  1.9735  0.6979
  139SAPE   H4Y15174   2.949   6.499   9.838 -0.2497 -0.3565  2.1553
  139SAPE   C3515175   2.920   6.326   9.714  0.0763 -0.1523 -0.6338
  139SAPE   H5X15176   2.825   6.305   9.767  1.6044 -1.4176  1.7997
  139SAPE   H5Y15177   2.974   6.229   9.699 -1.2173 -1.2503  1.3470
  139SAPE   C3615178   2.918   6.394   9.581 -0.5291  0.0050  0.6033
  139SAPE   H6X15179   2.864   6.490   9.589  1.9971  1.4052  2.7275
  139SAPE   H6Y15180   2.865   6.317   9.522  0.1078 -0.3183  0.4506
  139SAPE   C3715181   3.057   6.421   9.518  0.2444 -0.0023  0.8092
  139SAPE   H7X15182   3.131   6.348   9.556  0.2857 -0.9359 -0.9448
  139SAPE   H7Y15183   3.089   6.525   9.542  2.3470 -0.4837  0.2690
  139SAPE   C3815184   3.062   6.414   9.360  0.1694 -0.1645  0.3397
  139SAPE   H8X15185   2.988   6.492   9.331  1.3318  1.9650  2.7163
  139SAPE   H8Y15186   3.036   6.310   9.329  2.0449 -0.2446 -1.0989
  139SAPE   C3915187   3.193   6.461   9.305 -0.5062  0.0581  0.0711
  139SAPE   H9X15188   3.282   6.401   9.334  1.1398  0.7999 -2.9008
  139SAPE   H9Y15189   3.210   6.568   9.332  0.2805  0.3349 -1.4127
  139SAPE  C31015190   3.222   6.452   9.154  0.2408  0.0168 -0.5269
  139SAPE  H10X15191   3.198   6.345   9.136  2.4012 -0.6769  0.3000
  139SAPE  H10Y15192   3.329   6.481   9.141 -0.2049  1.9522 -0.2008
  139SAPE  C31115193   3.148   6.541   9.060 -0.9518  0.0606  0.3033
  139SAPE  H11X15194   3.157   6.646   9.095  0.0407  0.4800 -1.1065
  139SAPE  H11Y15195   3.043   6.506   9.046 -0.1338 -1.8791 -1.6067
  139SAPE  C31215196   3.209   6.541   8.919  0.6162 -0.6552 -0.5369
  139SAPE  H12X15197   3.190   6.435   8.890 -1.6418 -0.9397  1.5866
  139SAPE  H12Y15198   3.318   6.556   8.927  0.5450  0.2737 -1.1839
  139SAPE  C31315199   3.145   6.649   8.832 -0.2807  0.9229  0.1543
  139SAPE  H13X15200   3.179   6.750   8.865  3.2803  0.3828 -1.4677
  139SAPE  H13Y15201   3.035   6.630   8.836  0.0011 -1.0252 -0.6008
  139SAPE  C31415202   3.184   6.626   8.686  0.0200  0.1490 -0.7519
  139SAPE  H14X15203   3.152   6.527   8.648 -0.4874  0.7747 -2.0326
  139SAPE  H14Y15204   3.294   6.623   8.670 -0.0996 -1.9018 -1.3826
  139SAPE  C31515205   3.143   6.744   8.595  0.4334  0.2970  0.0636
  139SAPE  H15X15206   3.198   6.834   8.632  1.8690 -0.7551  0.5820
  139SAPE  H15Y15207   3.034   6.751   8.612  0.3759  2.8831 -0.8890
  139SAPE  C31615208   3.166   6.709   8.454 -0.2304  0.0280  0.4828
  139SAPE  H16X15209   3.274   6.729   8.436 -0.0166 -1.1136  0.3951
  139SAPE  H16Y15210   3.143   6.602   8.433  1.9050 -0.5277  0.7493
  139SAPE  C31715211   3.098   6.801   8.345 -1.1214 -0.2830  0.1152
  139SAPE  H17X15212   3.138   6.903   8.362 -1.1568  0.1780 -2.1670
  139SAPE  H17Y15213   2.990   6.812   8.368 -1.4129  2.2507 -1.9100
  139SAPE  C31815214   3.109   6.766   8.199 -0.0051  0.6389  0.2072
  139SAPE  H18X15215   3.112   6.861   8.140 -2.8304 -0.2700 -1.6352
  139SAPE  H18Y15216   3.022   6.708   8.160  0.7593 -1.4161  1.4204
  139SAPE  H18Z15217   3.196   6.705   8.169 -0.2430  0.6515 -0.5458
  140SAPE     N15218   1.301   2.464  11.045 -0.4117  0.0896 -0.0201
  140SAPE   HN115219   1.404   2.476  11.059 -0.3183  0.9456 -1.2439
  140SAPE   HN215220   1.260   2.558  11.063  1.1190  0.8503 -0.2822
  140SAPE   HN315221   1.283   2.394  11.119  1.0389  0.8547  1.1172
  140SAPE   C1215222   1.275   2.442  10.899 -0.2737 -0.0110 -0.4107
  140SAPE  H12A15223   1.348   2.370  10.855 -0.2954  0.4457 -1.2185
  140SAPE  H12B15224   1.284   2.539  10.845  3.2683 -0.3323 -0.6426
  140SAPE   C1115225   1.137   2.378  10.878  0.5445 -0.5974  0.0896
  140SAPE  H11A15226   1.115   2.371  10.769  0.2986  0.0845  0.0909
  140SAPE  H11B15227   1.055   2.445  10.911 -0.0728 -0.7602 -1.0369
  140SAPE     P15228   1.143   2.111  10.888  0.1537  0.1583 -0.0565
  140SAPE   O1315229   1.283   2.056  10.887  0.2370  0.1034 -0.3838
  140SAPE   O1415230   1.050   2.030  10.965 -0.4314  0.2529 -0.0061
  140SAPE   O1215231   1.128   2.255  10.947 -0.5601 -1.1350  0.4412
  140SAPE   O1115232   1.091   2.120  10.742  0.1758  0.6101  0.2516
  140SAPE    C115233   0.952   2.133  10.713  0.7801 -0.2577  0.4155
  140SAPE    HA15234   0.889   2.067  10.776 -0.5151  3.3462  3.1881
  140SAPE    HB15235   0.927   2.240  10.730 -0.5933 -0.6159  0.7955
  140SAPE    C215236   0.923   2.089  10.561  0.1484 -0.0755 -0.4511
  140SAPE    HS15237   0.977   1.994  10.542  1.3788  0.4370  0.3950
  140SAPE   O2115238   0.971   2.195  10.473  0.5058  0.0920 -0.6956
  140SAPE   C2115239   1.090   2.168  10.420  0.4442  0.5960  0.2114
  140SAPE   O2215240   1.146   2.058  10.421  0.5102 -0.3491 -0.9866
  140SAPE   C2215241   1.134   2.276  10.325 -0.0980 -0.6462  0.1115
  140SAPE   H2R15242   1.050   2.295  10.255 -0.0720  2.6352  0.8404
  140SAPE   H2S15243   1.127   2.364  10.393 -1.1049  0.7537 -1.7389
  140SAPE    C315244   0.772   2.046  10.530 -0.2710  0.1415 -0.8999
  140SAPE    HX15245   0.704   2.126  10.568 -1.4481 -2.5248  3.2703
  140SAPE    HY15246   0.754   1.963  10.601  1.3547  0.9307  0.4928
  140SAPE   O3115247   0.758   2.012  10.394  0.8452  0.6012  0.0837
  140SAPE   C3115248   0.633   2.001  10.354 -1.3573  0.0518 -0.4450
  140SAPE   O3215249   0.537   2.006  10.422 -0.3190  0.4066 -0.1638
  140SAPE   C3215250   0.636   1.968  10.209  0.2328 -0.1676  0.2919
  140SAPE   H2X15251   0.691   1.872  10.205  0.0129 -0.2603 -1.0949
  140SAPE   H2Y15252   0.683   2.055  10.158 -1.5713  1.3653  1.1181
  140SAPE   C2315253   1.268   2.269  10.246 -0.5237 -0.2894  0.0822
  140SAPE   H3R15254   1.272   2.171  10.194  2.0918 -0.8322  1.1342
  140SAPE   H3S15255   1.357   2.272  10.313 -1.4197  1.4939  1.2800
  140SAPE   C2415256   1.310   2.392  10.156 -0.2643  0.4360 -0.5346
  140SAPE   H4R15257   1.229   2.405  10.082 -0.8592  0.0190  0.0273
  140SAPE   H4S15258   1.402   2.357  10.105 -0.8188 -2.0084  0.0263
  140SAPE   C2515259   1.325   2.517  10.234 -0.2825  0.3616 -0.1433
  140SAPE   H5R15260   1.410   2.504  10.303 -0.5296 -2.9698 -0.2986
  140SAPE   C2615261   1.253   2.623  10.228 -0.1226  1.1151 -0.1598
  140SAPE   H6R15262   1.284   2.708  10.292 -0.7483  2.4065 -1.5266
  140SAPE   C2715263   1.136   2.642  10.134  0.4021  0.3466  0.4242
  140SAPE   H7R15264   1.084   2.727  10.182 -0.2017 -0.2004  0.7571
  140SAPE   H7S15265   1.067   2.557  10.152  0.4669 -0.0071 -0.8652
  140SAPE   C2815266   1.167   2.645   9.988  0.1744 -0.5184 -0.2249
  140SAPE   H8R15267   1.271   2.673   9.964 -0.2601  1.3540 -0.0641
  140SAPE   C2915268   1.074   2.622   9.893  0.7146 -0.5360 -0.7154
  140SAPE   H9R15269   1.109   2.617   9.789  0.1982 -0.0652 -0.9171
  140SAPE  C21015270   0.927   2.589   9.915 -0.0841  0.1334 -0.1277
  140SAPE  H10R15271   0.876   2.688   9.908 -1.0439 -0.3924 -0.9452
  140SAPE  H10S15272   0.912   2.555  10.019  0.5841  3.0785  1.0352
  140SAPE  C21115273   0.849   2.497   9.817 -0.3782  1.0327 -0.0849
  140SAPE  H11R15274   0.788   2.421   9.869  1.3791 -1.9431 -2.0964
  140SAPE  C21215275   0.829   2.497   9.686 -0.2841  0.8114 -0.4883
  140SAPE  H12R15276   0.757   2.428   9.640  0.0429 -0.5203  0.9073
  140SAPE  C21315277   0.890   2.591   9.586 -0.1088  0.3466 -0.3340
  140SAPE  H13R15278   0.939   2.672   9.644 -0.4924  0.8602 -0.7098
  140SAPE  H13S15279   0.802   2.638   9.537 -1.0118  0.7391  1.5803
  140SAPE  C21415280   1.001   2.519   9.508 -0.1714 -0.2819  0.1344
  140SAPE  H14R15281   1.097   2.529   9.559  1.3986  2.1705 -2.9363
  140SAPE  C21515282   0.987   2.461   9.389 -0.2553  0.3326  0.8060
  140SAPE  H15R15283   1.079   2.414   9.351 -0.1286  1.4385 -0.3133
  140SAPE  C21615284   0.860   2.451   9.303 -0.3893 -0.4654  0.3519
  140SAPE  H16R15285   0.776   2.507   9.349  0.1460  0.3027  0.3931
  140SAPE  H16S15286   0.830   2.344   9.301  1.6201 -1.1264 -3.1567
  140SAPE  C21715287   0.901   2.493   9.154 -0.0531  0.0380 -0.7657
  140SAPE  H17R15288   0.959   2.587   9.144  0.2102  0.1003  1.1360
  140SAPE  H17S15289   0.806   2.512   9.099 -0.8995 -2.0974 -0.1342
  140SAPE  C21815290   0.976   2.395   9.070 -0.3664  0.1526  0.1082
  140SAPE  H18R15291   0.932   2.294   9.062  1.1565 -0.5887  0.5692
  140SAPE  H18S15292   1.073   2.368   9.118 -1.2073 -0.8096  1.2997
  140SAPE  C21915293   1.018   2.456   8.930 -0.0155 -0.0792  0.0268
  140SAPE  H19R15294   1.083   2.544   8.946 -0.1173  0.0951 -0.4861
  140SAPE  H19S15295   0.932   2.497   8.872 -1.5551 -3.3435 -0.2605
  140SAPE  C22015296   1.104   2.358   8.846  0.0721  0.9306 -0.3448
  140SAPE  H20R15297   1.048   2.263   8.828 -1.1060  1.4704  0.3808
  140SAPE  H20S15298   1.190   2.321   8.906  0.5838  0.1568 -1.5285
  140SAPE  H20T15299   1.144   2.403   8.753 -0.6287 -0.3625 -1.3159
  140SAPE   C3315300   0.506   1.928  10.140 -0.0692  0.7531  0.9479
  140SAPE   H3X15301   0.434   2.013  10.146 -0.0657  1.0536 -1.7152
  140SAPE   H3Y15302   0.454   1.847  10.197 -0.8116  1.8871  1.9349
  140SAPE   C3415303   0.527   1.885   9.992  0.0187 -0.5509 -0.6439
  140SAPE   H4X15304   0.596   1.965   9.956  0.3185  1.1233  3.2138
  140SAPE   H4Y15305   0.425   1.901   9.949 -0.3390  0.9605  0.6713
  140SAPE   C3515306   0.577   1.737   9.978 -0.0751 -0.0130 -0.0232
  140SAPE   H5X15307   0.533   1.675  10.060 -1.5085 -0.6189 -1.2022
  140SAPE   H5Y15308   0.686   1.744   9.998 -0.2840  2.0275  0.5716
  140SAPE   C3615309   0.554   1.669   9.840  0.0280  0.0024 -0.9075
  140SAPE   H6X15310   0.445   1.680   9.823 -0.7124 -1.0868  2.3548
  140SAPE   H6Y15311   0.578   1.560   9.847 -0.5478 -0.0962 -0.3533
  140SAPE   C3715312   0.614   1.737   9.714 -0.0388 -0.3343 -0.6848
  140SAPE   H7X15313   0.724   1.740   9.722 -0.1324 -0.4753  0.8819
  140SAPE   H7Y15314   0.586   1.845   9.713 -2.8659 -0.9551  0.7545
  140SAPE   C3815315   0.575   1.672   9.580  0.8358 -0.0658  0.0088
  140SAPE   H8X15316   0.464   1.670   9.574  0.8606 -1.4017 -0.2651
  140SAPE   H8Y15317   0.605   1.566   9.567  0.7523 -0.1585  0.5631
  140SAPE   C3915318   0.637   1.744   9.457 -0.3558 -0.5957 -0.1292
  140SAPE   H9X15319   0.748   1.738   9.455 -0.3205  0.0024 -1.0632
  140SAPE   H9Y15320   0.606   1.851   9.458  0.3758 -0.3838  0.3381
  140SAPE  C31015321   0.595   1.683   9.320 -0.8501  0.0872 -0.1412
  140SAPE  H10X15322   0.485   1.690   9.307 -1.2974 -3.9784  0.1180
  140SAPE  H10Y15323   0.627   1.577   9.331 -0.1737  0.5099  2.9523
  140SAPE  C31115324   0.666   1.762   9.218 -0.0553  0.9460  0.3670
  140SAPE  H11X15325   0.776   1.748   9.218 -0.2012 -1.1470 -2.4698
  140SAPE  H11Y15326   0.652   1.872   9.225  2.0420  1.4195 -1.5852
  140SAPE  C31215327   0.619   1.713   9.079  0.7227 -0.2833  1.2294
  140SAPE  H12X15328   0.511   1.738   9.074  0.8014 -0.1592 -1.4330
  140SAPE  H12Y15329   0.630   1.603   9.063 -1.5133 -0.5151  0.8535
  140SAPE  C31315330   0.672   1.790   8.957 -0.4929  0.4890  0.5005
  140SAPE  H13X15331   0.710   1.722   8.878  1.4262  2.0913 -0.0287
  140SAPE  H13Y15332   0.762   1.845   8.991 -0.0583 -0.1488  0.3967
  140SAPE  C31415333   0.575   1.880   8.885 -0.0195  0.3812 -0.5523
  140SAPE  H14X15334   0.529   1.942   8.965 -1.0544  1.4292 -1.9170
  140SAPE  H14Y15335   0.505   1.802   8.848 -1.2556 -0.0834  2.4292
  140SAPE  C31515336   0.629   1.953   8.762 -0.0842 -0.8955 -0.5402
  140SAPE  H15X15337   0.545   1.978   8.694 -0.1981 -0.8836 -0.3955
  140SAPE  H15Y15338   0.695   1.887   8.703 -0.2720 -2.8851  1.3643
  140SAPE  C31615339   0.704   2.081   8.805 -0.1278  0.4344 -0.1957
  140SAPE  H16X15340   0.794   2.060   8.867  0.6405 -1.2743 -1.8045
  140SAPE  H16Y15341   0.645   2.140   8.878 -0.7914 -1.0660  0.5200
  140SAPE  C31715342   0.740   2.177   8.693  0.3731  0.0254 -0.8372
  140SAPE  H17X15343   0.790   2.116   8.614 -1.2438 -0.7571 -1.2907
  140SAPE  H17Y15344   0.820   2.249   8.720 -0.6183  0.6041  0.6511
  140SAPE  C31815345   0.619   2.244   8.626 -0.3482  0.2656  0.0993
  140SAPE  H18X15346   0.652   2.333   8.568  2.5293  0.0306  1.2271
  140SAPE  H18Y15347   0.551   2.279   8.706 -0.1996 -1.0260  0.8123
  140SAPE  H18Z15348   0.565   2.173   8.560 -1.3020  0.7457  0.3353
  141SAPE     N15349   1.695   4.935  10.730  0.3128 -0.0503  0.0813
  141SAPE   HN115350   1.741   4.863  10.789  0.6710 -0.4194 -0.6336
  141SAPE   HN215351   1.692   4.905  10.630 -1.0842  0.8619 -0.1767
  141SAPE   HN315352   1.742   5.028  10.740  0.9204 -0.4576  1.1840
  141SAPE   C1215353   1.549   4.944  10.762  0.9957 -0.3821  0.0814
  141SAPE  H12A15354   1.493   5.000  10.685 -1.7114 -1.9265  0.7623
  141SAPE  H12B15355   1.528   5.004  10.854  1.3198  0.5993 -0.4743
  141SAPE   C1115356   1.491   4.799  10.762  0.0355 -0.7590 -0.4007
  141SAPE  H11A15357   1.485   4.765  10.656  0.5192 -0.8694 -0.3944
  141SAPE  H11B15358   1.384   4.795  10.791  0.6647 -3.1621  1.9643
  141SAPE     P15359   1.530   4.545  10.838  0.0608 -0.1445 -0.2181
  141SAPE   O1315360   1.603   4.475  10.950  0.1534 -0.2229  0.2939
  141SAPE   O1415361   1.385   4.537  10.839  0.1481  0.2550 -0.6325
  141SAPE   O1215362   1.566   4.703  10.836  0.7552  0.0517  0.6036
  141SAPE   O1115363   1.585   4.499  10.699 -0.0579  0.1982  0.0274
  141SAPE    C115364   1.716   4.541  10.673  0.0237  0.3482  0.3292
  141SAPE    HA15365   1.729   4.651  10.673  0.2349  0.3246  0.9564
  141SAPE    HB15366   1.786   4.485  10.739 -2.0274 -2.7332  0.1056
  141SAPE    C215367   1.751   4.491  10.525  0.4090  1.1156 -0.6914
  141SAPE    HS15368   1.857   4.521  10.514  1.0824 -0.2193  1.4377
  141SAPE   O2115369   1.672   4.547  10.412 -0.3059  0.0685  0.2452
  141SAPE   C2115370   1.729   4.543  10.300  0.1214  0.2419  0.2994
  141SAPE   O2215371   1.836   4.495  10.260  0.3344  0.1920 -0.2016
  141SAPE   C2215372   1.648   4.650  10.222  0.1353 -0.6771 -0.4772
  141SAPE   H2R15373   1.555   4.608  10.177  0.3237 -1.1710 -0.4097
  141SAPE   H2S15374   1.615   4.728  10.294 -0.3396 -0.2852 -1.1057
  141SAPE    C315375   1.741   4.333  10.531 -0.4852  0.1967  0.6531
  141SAPE    HX15376   1.637   4.293  10.532 -0.0285 -1.1049 -0.5335
  141SAPE    HY15377   1.791   4.307  10.627  0.5708  1.5322  0.4914
  141SAPE   O3115378   1.807   4.273  10.419  0.0630  0.2602 -0.7289
  141SAPE   C3115379   1.932   4.243  10.428 -0.6412 -0.6169 -0.1047
  141SAPE   O3215380   2.002   4.276  10.520 -0.6955  0.8943 -0.2358
  141SAPE   C3215381   1.970   4.140  10.319  0.3758 -0.4713 -0.4790
  141SAPE   H2X15382   1.881   4.092  10.274  0.8618 -2.5540  0.6759
  141SAPE   H2Y15383   2.030   4.064  10.374  1.0552  1.1257  1.1050
  141SAPE   C2315384   1.735   4.714  10.112  0.4872  0.5490  0.6113
  141SAPE   H3R15385   1.782   4.633  10.052  2.6952  1.3078  1.2486
  141SAPE   H3S15386   1.824   4.769  10.146  1.2096  0.1454 -0.5499
  141SAPE   C2415387   1.650   4.809  10.030  0.5261 -0.1875 -0.1959
  141SAPE   H4R15388   1.591   4.878  10.095 -0.4960  0.0407 -1.3332
  141SAPE   H4S15389   1.580   4.752   9.965  0.0795  0.7065 -0.5199
  141SAPE   C2515390   1.738   4.900   9.945  0.5911  0.1396  0.1243
  141SAPE   H5R15391   1.832   4.933   9.992 -0.1754  0.8762  1.1929
  141SAPE   C2615392   1.705   4.929   9.817  0.2686  0.3070 -0.1365
  141SAPE   H6R15393   1.773   4.989   9.754  0.9250  1.1626  1.3194
  141SAPE   C2715394   1.580   4.887   9.747  0.8621 -0.5227 -0.4873
  141SAPE   H7R15395   1.553   4.974   9.683 -2.2992 -1.9086 -1.2397
  141SAPE   H7S15396   1.495   4.886   9.820  2.1393 -0.3030  1.0643
  141SAPE   C2815397   1.580   4.760   9.671 -0.4572 -0.3232 -0.1139
  141SAPE   H8R15398   1.628   4.677   9.725 -1.7598  0.4659  2.4223
  141SAPE   C2915399   1.519   4.742   9.550 -0.2230 -0.1429 -0.2451
  141SAPE   H9R15400   1.496   4.640   9.516  0.2829 -0.6494  0.8928
  141SAPE  C21015401   1.443   4.860   9.479  0.1420  0.0122 -0.8153
  141SAPE  H10R15402   1.517   4.938   9.452 -0.3319  0.9732  0.5628
  141SAPE  H10S15403   1.381   4.909   9.556  0.6154 -1.1816  0.3683
  141SAPE  C21115404   1.352   4.832   9.363  0.0700 -0.5686 -1.1644
  141SAPE  H11R15405   1.250   4.808   9.397 -0.3944  0.7205 -1.6214
  141SAPE  C21215406   1.381   4.835   9.232 -0.1263  0.6270  0.8042
  141SAPE  H12R15407   1.310   4.787   9.162  1.0304 -0.8111  0.5750
  141SAPE  C21315408   1.511   4.869   9.161  0.4971 -0.2182  0.8815
  141SAPE  H13R15409   1.566   4.945   9.222  1.2129 -0.6953  0.8461
  141SAPE  H13S15410   1.485   4.920   9.066  2.3681 -2.3451 -0.8645
  141SAPE  C21415411   1.602   4.753   9.139 -0.2710  0.0490 -0.1445
  141SAPE  H14R15412   1.573   4.664   9.196 -0.4340  0.7996  0.9785
  141SAPE  C21515413   1.695   4.743   9.042 -0.5933  0.3484 -0.1657
  141SAPE  H15R15414   1.745   4.647   9.025 -1.0975  0.3322 -1.6832
  141SAPE  C21615415   1.734   4.852   8.943  0.0451 -0.4657  0.4820
  141SAPE  H16R15416   1.654   4.930   8.943  0.5335  0.1035  2.5800
  141SAPE  H16S15417   1.730   4.811   8.840  0.6754 -1.2123  0.7448
  141SAPE  C21715418   1.861   4.919   8.976 -0.1892 -0.0241 -0.5437
  141SAPE  H17R15419   1.941   4.852   9.017  0.2353  0.2704 -0.8838
  141SAPE  H17S15420   1.839   4.995   9.053  0.2503  0.2920 -0.7244
  141SAPE  C21815421   1.915   5.007   8.863  0.5988  0.2788  0.1687
  141SAPE  H18R15422   1.835   5.051   8.800  0.2799 -2.3373 -1.3849
  141SAPE  H18S15423   1.974   4.952   8.788 -2.3130  0.9159 -2.8310
  141SAPE  C21915424   1.999   5.126   8.914 -0.5318 -0.1479 -0.2216
  141SAPE  H19R15425   2.093   5.096   8.964  0.0887  0.6749 -0.8759
  141SAPE  H19S15426   1.936   5.197   8.972 -1.1392 -2.1588  1.7431
  141SAPE  C22015427   2.050   5.217   8.803  0.1433 -0.4641 -0.3032
  141SAPE  H20R15428   1.999   5.246   8.709  0.1309  4.2256  0.9084
  141SAPE  H20S15429   2.140   5.163   8.766  0.4571  0.7414 -1.3559
  141SAPE  H20T15430   2.099   5.311   8.836  1.1458 -1.1172  0.1140
  141SAPE   C3315431   2.056   4.207  10.212 -0.7020 -0.7097 -0.5836
  141SAPE   H3X15432   2.162   4.188  10.239 -0.8729  0.3231  0.9642
  141SAPE   H3Y15433   2.029   4.315  10.206 -3.7947 -1.4209 -1.2532
  141SAPE   C3415434   2.052   4.139  10.073  0.0542  0.5943 -0.0710
  141SAPE   H4X15435   1.956   4.166  10.025 -1.0202  3.2096  3.1222
  141SAPE   H4Y15436   2.046   4.028  10.078  0.6679  0.5592 -0.0550
  141SAPE   C3515437   2.163   4.197   9.990  0.3649  0.6604  0.3176
  141SAPE   H5X15438   2.252   4.183  10.055 -0.1380 -0.6344  0.7565
  141SAPE   H5Y15439   2.144   4.301   9.957  2.2037  1.0252  0.2913
  141SAPE   C3615440   2.161   4.115   9.859 -0.6336 -0.2364 -0.6217
  141SAPE   H6X15441   2.063   4.134   9.809 -0.5006 -2.4476 -1.8262
  141SAPE   H6Y15442   2.147   4.007   9.879 -3.4139 -0.0017 -0.8527
  141SAPE   C3715443   2.257   4.157   9.749 -0.0511 -0.4259 -0.2033
  141SAPE   H7X15444   2.352   4.117   9.789 -0.8098  0.0508  2.2599
  141SAPE   H7Y15445   2.260   4.268   9.742  2.0885 -0.3622  0.8110
  141SAPE   C3815446   2.244   4.086   9.607 -0.0239  0.0346  0.0654
  141SAPE   H8X15447   2.136   4.090   9.584  0.1033  0.7883 -0.4090
  141SAPE   H8Y15448   2.256   3.977   9.628  0.9610  0.6495  3.3063
  141SAPE   C3915449   2.332   4.137   9.497 -0.0482 -0.6419  0.0351
  141SAPE   H9X15450   2.435   4.124   9.537 -0.9449 -1.2709  2.3030
  141SAPE   H9Y15451   2.316   4.245   9.477 -1.3615 -0.2504  2.7114
  141SAPE  C31015452   2.316   4.059   9.368 -0.6155 -0.2503 -0.0269
  141SAPE  H10X15453   2.212   4.074   9.332  0.3163  2.4922 -1.9053
  141SAPE  H10Y15454   2.329   3.954   9.403 -0.4354 -0.3845 -0.4924
  141SAPE  C31115455   2.426   4.085   9.269 -0.0855 -0.6842  0.2238
  141SAPE  H11X15456   2.525   4.051   9.308 -0.0476 -2.1483 -1.0642
  141SAPE  H11Y15457   2.436   4.194   9.254 -2.3147 -0.6418 -1.4283
  141SAPE  C31215458   2.406   4.021   9.132  0.0082  0.0285  0.9659
  141SAPE  H12X15459   2.406   3.911   9.147  1.5604  0.1491  2.0518
  141SAPE  H12Y15460   2.499   4.056   9.081 -0.0654 -0.9065  0.1544
  141SAPE  C31315461   2.292   4.076   9.046  0.4010 -0.2220 -0.6119
  141SAPE  H13X15462   2.308   4.181   9.012  2.0316  0.3543  1.6607
  141SAPE  H13Y15463   2.196   4.067   9.101  0.2670  1.5023 -0.5085
  141SAPE  C31415464   2.282   3.993   8.916  0.5748  0.0137 -0.7360
  141SAPE  H14X15465   2.295   3.888   8.950 -0.2361  0.0782 -0.1955
  141SAPE  H14Y15466   2.374   4.011   8.857  2.8607 -1.8130  2.0385
  141SAPE  C31515467   2.157   4.014   8.829  0.3063 -0.2079 -0.0060
  141SAPE  H15X15468   2.138   4.121   8.806 -1.3897  0.1342  2.5395
  141SAPE  H15Y15469   2.072   3.982   8.894  1.7598 -0.7029  1.7075
  141SAPE  C31615470   2.134   3.932   8.692 -0.1278  0.2094 -0.3285
  141SAPE  H16X15471   2.173   3.832   8.720  0.9128  0.1891 -1.7468
  141SAPE  H16Y15472   2.199   3.975   8.613 -1.4997  1.0110 -1.0637
  141SAPE  C31715473   1.993   3.927   8.646 -0.1699  0.1957  0.3701
  141SAPE  H17X15474   1.963   4.033   8.629  1.5310  0.6058 -0.3579
  141SAPE  H17Y15475   1.925   3.889   8.725 -0.2496 -1.0583 -0.2779
  141SAPE  C31815476   1.981   3.845   8.522 -0.6723 -0.8450 -0.4504
  141SAPE  H18X15477   1.879   3.837   8.480 -0.6562  0.2208 -0.7272
  141SAPE  H18Y15478   2.030   3.749   8.549 -0.4008 -0.0241  2.2854
  141SAPE  H18Z15479   2.042   3.893   8.442  0.3944 -1.1451  0.1519
  142SAPE     N15480   2.414   2.795  10.809 -0.7082  0.2748 -0.0812
  142SAPE   HN115481   2.424   2.692  10.812  1.4942  0.4668  0.8927
  142SAPE   HN215482   2.460   2.835  10.893 -0.6155 -2.2350  1.1396
  142SAPE   HN315483   2.310   2.803  10.812 -1.0893 -2.4659 -2.1503
  142SAPE   C1215484   2.466   2.843  10.673 -0.5704  0.5634 -0.1445
  142SAPE  H12A15485   2.424   2.946  10.672 -3.2762 -0.4583  0.2176
  142SAPE  H12B15486   2.408   2.779  10.603 -1.8434 -0.7582  1.9975
  142SAPE   C1115487   2.619   2.820  10.666 -0.7047  0.4175 -0.1993
  142SAPE  H11A15488   2.650   2.857  10.566 -1.0756 -0.3251 -0.5967
  142SAPE  H11B15489   2.630   2.710  10.669 -0.3715  0.4153 -1.0573
  142SAPE     P15490   2.859   2.857  10.752 -0.1450  0.1241  0.3301
  142SAPE   O1315491   2.939   2.948  10.830 -0.4722 -0.6903 -0.0486
  142SAPE   O1415492   2.875   2.713  10.770  0.2752  0.7134 -0.2628
  142SAPE   O1215493   2.705   2.890  10.770 -0.1638  0.4867  0.0424
  142SAPE   O1115494   2.882   2.890  10.602  0.5872 -0.1695 -0.3900
  142SAPE    C115495   2.961   3.001  10.554 -0.3831 -0.0027  0.3811
  142SAPE    HA15496   3.055   3.023  10.609 -0.6690  0.6673  0.6086
  142SAPE    HB15497   2.991   2.963  10.454  1.6142  0.3485  0.8061
  142SAPE    C215498   2.887   3.140  10.544 -0.2340  0.2775  0.0480
  142SAPE    HS15499   2.863   3.168  10.649  0.1343 -2.3475  0.9113
  142SAPE   O2115500   2.784   3.119  10.447  0.1266 -0.3822 -0.1888
  142SAPE   C2115501   2.693   3.218  10.454 -0.3950  0.5996  0.1540
  142SAPE   O2215502   2.692   3.310  10.535  0.3277  0.5704 -0.0350
  142SAPE   C2215503   2.590   3.197  10.344 -0.1649 -0.0709  0.0607
  142SAPE   H2R15504   2.643   3.174  10.249  0.0448  1.7704 -0.2881
  142SAPE   H2S15505   2.524   3.116  10.381 -0.5021  0.9845  1.8685
  142SAPE    C315506   2.987   3.243  10.495 -1.4595 -0.2116 -0.3567
  142SAPE    HX15507   3.081   3.247  10.554 -0.9736 -2.3763 -0.8924
  142SAPE    HY15508   2.945   3.346  10.503  2.0891  1.2435  1.8865
  142SAPE   O3115509   3.040   3.214  10.364 -0.0281 -0.4755 -0.2486
  142SAPE   C3115510   2.981   3.279  10.263  0.0209 -0.2174 -0.6295
  142SAPE   O3215511   2.886   3.356  10.277 -0.9599  0.4832 -0.1331
  142SAPE   C3215512   3.065   3.251  10.136  0.4288 -0.3058 -0.1712
  142SAPE   H2X15513   3.070   3.140  10.135 -0.8128 -0.3647 -0.4419
  142SAPE   H2Y15514   3.167   3.295  10.131 -0.0891  0.7623 -3.1164
  142SAPE   C2315515   2.497   3.316  10.311  0.1954  0.3710  0.1277
  142SAPE   H3R15516   2.554   3.405  10.276 -0.0237  0.4240 -0.1031
  142SAPE   H3S15517   2.440   3.334  10.405 -1.3578 -0.0423 -0.6928
  142SAPE   C2415518   2.404   3.285  10.192  0.6168 -0.5564  0.4410
  142SAPE   H4R15519   2.367   3.181  10.199 -0.3275 -0.2245  0.4123
  142SAPE   H4S15520   2.472   3.277  10.104  1.0351  1.3692  0.5595
  142SAPE   C2515521   2.295   3.386  10.162 -0.3366 -0.0868  0.1775
  142SAPE   H5R15522   2.273   3.455  10.245 -0.1304  0.8128 -0.4977
  142SAPE   C2615523   2.216   3.384  10.055 -0.0516 -0.7857  0.5427
  142SAPE   H6R15524   2.135   3.457  10.044  0.6971 -0.2399 -1.8667
  142SAPE   C2715525   2.217   3.295   9.933 -0.9368  0.4348  0.2001
  142SAPE   H7R15526   2.162   3.203   9.962  0.8603 -0.1915  1.8341
  142SAPE   H7S15527   2.321   3.257   9.920 -0.4628  0.8721  2.3042
  142SAPE   C2815528   2.158   3.365   9.810 -0.2752 -0.7014 -0.6404
  142SAPE   H8R15529   2.148   3.474   9.810 -3.0414 -0.8594  1.1622
  142SAPE   C2915530   2.117   3.307   9.699 -0.2030  0.1749  1.0953
  142SAPE   H9R15531   2.074   3.359   9.613  1.6512  0.5907  0.3829
  142SAPE  C21015532   2.121   3.162   9.672  0.0493  0.4291  0.6955
  142SAPE  H10R15533   2.019   3.118   9.670  0.7002 -1.2286  1.8233
  142SAPE  H10S15534   2.167   3.097   9.749 -1.2833  0.4584  1.5526
  142SAPE  C21115535   2.188   3.142   9.529  0.0276 -0.0282 -1.0010
  142SAPE  H11R15536   2.296   3.157   9.516 -0.0751  1.6324 -0.2412
  142SAPE  C21215537   2.121   3.125   9.413  0.0378  0.0422 -0.0182
  142SAPE  H12R15538   2.174   3.105   9.319  0.9481 -1.5961  0.7984
  142SAPE  C21315539   1.971   3.122   9.400  0.2675 -0.8266 -0.3089
  142SAPE  H13R15540   1.937   3.220   9.440  1.7060 -0.2203 -0.4740
  142SAPE  H13S15541   1.932   3.046   9.470  0.8233  0.6600  1.7305
  142SAPE  C21415542   1.922   3.080   9.265  0.3214 -0.1437  0.0652
  142SAPE  H14R15543   1.876   2.980   9.257 -3.0448  1.1294  1.7279
  142SAPE  C21515544   1.923   3.161   9.154 -0.0432 -0.4282  0.6995
  142SAPE  H15R15545   1.887   3.119   9.059  1.1102 -0.8212  0.4239
  142SAPE  C21615546   1.964   3.302   9.135 -0.7132  0.4081 -0.1411
  142SAPE  H16R15547   1.980   3.347   9.236 -2.4216  0.7627  0.0024
  142SAPE  H16S15548   1.889   3.365   9.082  1.1396  2.1382 -0.8011
  142SAPE  C21715549   2.097   3.331   9.062 -0.3973  0.6857  0.2995
  142SAPE  H17R15550   2.178   3.261   9.090  1.4634  2.1926 -1.0383
  142SAPE  H17S15551   2.120   3.438   9.079 -1.1772  1.4122 -2.6281
  142SAPE  C21815552   2.079   3.331   8.910 -0.8753 -0.2331  0.3352
  142SAPE  H18R15553   1.987   3.386   8.879  0.0941  1.4250  0.2755
  142SAPE  H18S15554   2.063   3.226   8.877  1.6756 -0.3422 -0.7738
  142SAPE  C21915555   2.202   3.397   8.836  0.0692 -0.6783 -0.3895
  142SAPE  H19R15556   2.293   3.333   8.833  0.2825 -0.4615  0.9268
  142SAPE  H19S15557   2.248   3.476   8.898  1.3606 -2.2141  0.6648
  142SAPE  C22015558   2.172   3.435   8.694 -0.0179  0.0283 -0.3202
  142SAPE  H20R15559   2.110   3.367   8.632  2.5025 -0.7637 -2.1266
  142SAPE  H20S15560   2.266   3.454   8.638  1.2508 -1.5193  1.1945
  142SAPE  H20T15561   2.106   3.524   8.685 -1.8127 -0.9470  2.1018
  142SAPE   C3315562   2.991   3.299  10.012 -1.0198  0.8340  0.0008
  142SAPE   H3X15563   2.987   3.410  10.014 -1.9886  0.7952  0.8178
  142SAPE   H3Y15564   2.886   3.263  10.006 -0.5460 -0.5586 -0.3648
  142SAPE   C3415565   3.053   3.242   9.882 -0.1171 -0.2986  0.3739
  142SAPE   H4X15566   3.046   3.131   9.870 -2.6183 -0.0285 -1.2975
  142SAPE   H4Y15567   3.156   3.281   9.895 -1.0133  1.7080  1.7991
  142SAPE   C3515568   3.003   3.305   9.752  0.5398 -0.6154 -0.8455
  142SAPE   H5X15569   3.017   3.415   9.766 -0.1644 -0.7905  1.6952
  142SAPE   H5Y15570   2.895   3.282   9.744  0.3457 -0.4175  0.8560
  142SAPE   C3615571   3.078   3.262   9.628 -0.5553 -0.0880 -0.3197
  142SAPE   H6X15572   3.076   3.151   9.629 -1.0895 -0.0915 -1.1842
  142SAPE   H6Y15573   3.183   3.300   9.626 -0.7721  0.6059  0.6861
  142SAPE   C3715574   3.007   3.310   9.503  0.6713 -0.1767  0.9118
  142SAPE   H7X15575   3.047   3.407   9.467 -1.3133  0.3114 -0.1408
  142SAPE   H7Y15576   2.901   3.336   9.519  0.3520  0.5657 -1.8533
  142SAPE   C3815577   2.996   3.197   9.405  0.4063 -0.0880  0.8278
  142SAPE   H8X15578   2.932   3.118   9.451  1.8954 -0.8328  1.7066
  142SAPE   H8Y15579   3.094   3.147   9.387  0.5998  0.7943 -0.7975
  142SAPE   C3915580   2.920   3.237   9.270 -0.1243  0.6984 -0.0121
  142SAPE   H9X15581   2.820   3.283   9.285 -0.6961 -0.3087 -0.6378
  142SAPE   H9Y15582   2.897   3.138   9.225 -0.0778  0.5372  0.3147
  142SAPE  C31015583   2.990   3.345   9.186  0.2307  0.3898  0.1533
  142SAPE  H10X15584   3.076   3.294   9.138  1.2935  1.8736  0.3929
  142SAPE  H10Y15585   3.032   3.432   9.241  1.2953  0.6445 -1.0289
  142SAPE  C31115586   2.893   3.397   9.084 -0.2261  0.4410  0.5222
  142SAPE  H11X15587   2.808   3.435   9.145  0.1879 -1.1404  2.2071
  142SAPE  H11Y15588   2.850   3.326   9.010 -0.9398  0.8334  0.5483
  142SAPE  C31215589   2.960   3.518   9.011 -0.5627 -0.8923 -0.1018
  142SAPE  H12X15590   3.042   3.568   9.068 -0.4658 -0.3891 -0.6622
  142SAPE  H12Y15591   2.875   3.588   8.996  1.0176  1.2929  0.5739
  142SAPE  C31315592   3.007   3.478   8.870 -0.5526 -0.2193 -0.6711
  142SAPE  H13X15593   2.912   3.458   8.816 -0.7311 -0.6457 -0.2052
  142SAPE  H13Y15594   3.068   3.385   8.870  0.7911  0.6123  0.9635
  142SAPE  C31415595   3.093   3.585   8.797 -0.1628  0.1449  0.0508
  142SAPE  H14X15596   3.175   3.620   8.864 -0.3920  1.1755 -0.1879
  142SAPE  H14Y15597   3.030   3.676   8.783 -1.8220 -0.8914  0.4989
  142SAPE  C31515598   3.147   3.549   8.660 -0.4954  0.4770 -0.5906
  142SAPE  H15X15599   3.217   3.464   8.676  0.7876  1.8800  1.8930
  142SAPE  H15Y15600   3.209   3.634   8.624  3.1861 -1.2259  1.1201
  142SAPE  C31615601   3.037   3.497   8.556 -0.5850 -0.0380 -0.4352
  142SAPE  H16X15602   2.989   3.404   8.591 -1.9694  1.0071  0.5646
  142SAPE  H16Y15603   3.100   3.467   8.470 -0.0045  0.9967 -0.3993
  142SAPE  C31715604   2.935   3.602   8.520  0.9348 -0.0736  0.5575
  142SAPE  H17X15605   2.971   3.699   8.482  1.3913 -0.0478  1.0488
  142SAPE  H17Y15606   2.886   3.635   8.614  0.2286 -1.7339  0.8049
  142SAPE  C31815607   2.814   3.552   8.430 -0.1863  0.3727  0.1789
  142SAPE  H18X15608   2.733   3.627   8.428  0.9611  1.6433 -0.5446
  142SAPE  H18Y15609   2.773   3.464   8.484 -0.1296  0.1971 -0.0650
  142SAPE  H18Z15610   2.845   3.522   8.328 -2.3501 -2.1109  0.1356
  143SAPE     N15611   1.873   3.237  10.934 -0.3631 -0.0169 -0.0787
  143SAPE   HN115612   1.932   3.256  11.017 -0.1690 -0.5858 -0.0830
  143SAPE   HN215613   1.803   3.314  10.929 -1.2647 -0.7020  1.3137
  143SAPE   HN315614   1.820   3.148  10.944 -0.2972 -0.0324  0.1459
  143SAPE   C1215615   1.977   3.228  10.825 -0.0366  0.0964 -0.1051
  143SAPE  H12A15616   2.023   3.327  10.807 -0.3762  0.2979  0.1298
  143SAPE  H12B15617   1.913   3.209  10.736  0.9651 -0.0930 -0.8139
  143SAPE   C1115618   2.082   3.119  10.835  0.2336  0.3067  0.7022
  143SAPE  H11A15619   2.155   3.160  10.907  0.1859  1.8004 -0.0471
  143SAPE  H11B15620   2.148   3.122  10.746 -0.7633 -1.1105 -0.1178
  143SAPE     P15621   2.021   2.867  10.767  0.4605 -0.1519 -0.2155
  143SAPE   O1315622   2.146   2.798  10.746  0.0568 -0.3181 -0.7276
  143SAPE   O1415623   1.905   2.787  10.812  0.9652  0.2324  0.4596
  143SAPE   O1215624   2.042   2.988  10.873 -0.0570 -0.2815 -0.2036
  143SAPE   O1115625   1.978   2.937  10.635  0.0635 -0.7599  0.6201
  143SAPE    C115626   2.034   2.920  10.511 -0.1829  0.8159  0.1129
  143SAPE    HA15627   2.144   2.908  10.526 -0.1614 -0.3741 -0.8122
  143SAPE    HB15628   2.002   2.830  10.454 -2.7660  1.5183  0.3413
  143SAPE    C215629   2.014   3.048  10.430 -0.0955  0.6328 -0.2013
  143SAPE    HS15630   1.994   3.125  10.508 -1.0256 -0.6748  0.8902
  143SAPE   O2115631   1.900   3.029  10.348  0.3315  0.0828 -0.0021
  143SAPE   C2115632   1.853   3.140  10.284 -0.2676 -0.5309 -0.9536
  143SAPE   O2215633   1.897   3.251  10.310 -0.1720  0.2295 -0.0296
  143SAPE   C2215634   1.759   3.111  10.171 -0.9122  0.1835  0.1146
  143SAPE   H2R15635   1.709   3.012  10.180  1.7435 -1.4569 -1.6378
  143SAPE   H2S15636   1.680   3.189  10.178  0.0038  1.1719 -0.3171
  143SAPE    C315637   2.142   3.082  10.359  0.1082 -0.3972  0.9670
  143SAPE    HX15638   2.223   3.103  10.431 -0.7677  3.0551  1.1012
  143SAPE    HY15639   2.122   3.178  10.307  0.1778 -1.5434 -1.3064
  143SAPE   O3115640   2.178   2.981  10.262  0.3963  0.0800 -0.5328
  143SAPE   C3115641   2.284   2.901  10.288  0.3249 -0.6325  0.2368
  143SAPE   O3215642   2.368   2.929  10.365 -0.2641  0.2264 -0.7813
  143SAPE   C3215643   2.267   2.773  10.206  0.1051  0.3522  0.5490
  143SAPE   H2X15644   2.162   2.736  10.214 -0.0148  0.9386  1.7806
  143SAPE   H2Y15645   2.321   2.692  10.259  0.2772  0.3698  0.4022
  143SAPE   C2315646   1.839   3.115  10.036  0.1562  0.3175  0.0262
  143SAPE   H3R15647   1.787   3.045   9.967 -0.7591  1.5191 -0.5484
  143SAPE   H3S15648   1.942   3.075  10.046 -0.1066 -0.0782  1.2855
  143SAPE   C2415649   1.850   3.260   9.972  0.1820 -0.3125  0.1803
  143SAPE   H4R15650   1.910   3.263   9.879 -1.3876 -0.3978 -0.8734
  143SAPE   H4S15651   1.900   3.325  10.046 -2.1433  1.6419  0.1574
  143SAPE   C2515652   1.713   3.315   9.943  0.2338  0.2086  0.2149
  143SAPE   H5R15653   1.656   3.349  10.031 -1.8669 -0.6192 -0.7597
  143SAPE   C2615654   1.658   3.344   9.820  0.3883  0.1644  0.5554
  143SAPE   H6R15655   1.555   3.383   9.815 -0.8737 -2.9810 -1.4559
  143SAPE   C2715656   1.715   3.309   9.686 -0.2723 -0.1592 -0.2979
  143SAPE   H7R15657   1.826   3.318   9.682 -0.3167  0.0135 -1.6564
  143SAPE   H7S15658   1.668   3.377   9.612 -0.7887 -0.2546 -0.0663
  143SAPE   C2815659   1.694   3.167   9.645 -0.7353  0.0451 -0.1354
  143SAPE   H8R15660   1.726   3.088   9.715 -2.8647  0.9742  2.0139
  143SAPE   C2915661   1.662   3.106   9.532  0.5341 -0.1995 -0.1583
  143SAPE   H9R15662   1.638   2.999   9.538  0.2865 -0.3738 -2.8805
  143SAPE  C21015663   1.619   3.172   9.396 -0.6123 -0.1128  0.4290
  143SAPE  H10R15664   1.586   3.090   9.328  0.0949  0.2961 -0.4342
  143SAPE  H10S15665   1.707   3.224   9.352 -1.5277  1.2671  0.1846
  143SAPE  C21115666   1.515   3.277   9.396 -0.4975  0.4629 -0.8763
  143SAPE  H11R15667   1.492   3.311   9.498  3.8598 -0.7377  0.7327
  143SAPE  C21215668   1.442   3.301   9.286 -0.0808 -1.2092  0.0336
  143SAPE  H12R15669   1.364   3.377   9.296  0.5396 -0.2764 -1.7639
  143SAPE  C21315670   1.457   3.250   9.146  0.5344  0.2986 -0.0837
  143SAPE  H13R15671   1.376   3.177   9.124  2.4169 -1.6540 -0.9259
  143SAPE  H13S15672   1.556   3.200   9.133  1.0831  1.0003  1.2463
  143SAPE  C21415673   1.448   3.355   9.038 -0.6234 -0.2568 -0.4732
  143SAPE  H14R15674   1.532   3.426   9.040 -0.3637 -0.5901  1.2898
  143SAPE  C21515675   1.351   3.360   8.941  0.3625  0.1055  0.1123
  143SAPE  H15R15676   1.359   3.423   8.852 -3.3556 -0.0679 -0.5308
  143SAPE  C21615677   1.237   3.261   8.924  0.2464  0.2402 -0.4913
  143SAPE  H16R15678   1.161   3.309   8.859 -0.8850 -0.5751  0.1946
  143SAPE  H16S15679   1.196   3.227   9.021 -1.1472  2.3076 -0.3117
  143SAPE  C21715680   1.283   3.143   8.843 -0.3488  0.1645 -0.5649
  143SAPE  H17R15681   1.378   3.109   8.888 -1.9490 -3.2740  0.6249
  143SAPE  H17S15682   1.291   3.164   8.734 -0.2969  0.6830 -0.4641
  143SAPE  C21815683   1.188   3.024   8.837  0.4679  0.5311  0.4876
  143SAPE  H18R15684   1.081   3.054   8.836  0.4034  0.4343  1.8093
  143SAPE  H18S15685   1.204   2.970   8.933 -0.5436 -0.6146  0.0338
  143SAPE  C21915686   1.222   2.934   8.715 -0.0598  0.3992 -0.0929
  143SAPE  H19R15687   1.331   2.912   8.717 -0.4651 -1.8039 -0.0706
  143SAPE  H19S15688   1.202   2.986   8.619  0.0483  0.8648  0.1344
  143SAPE  C22015689   1.158   2.798   8.721  0.3052 -0.1193 -0.0300
  143SAPE  H20R15690   1.049   2.801   8.697  0.3528 -3.5739 -1.2777
  143SAPE  H20S15691   1.171   2.756   8.824  0.1397 -0.5213 -0.1714
  143SAPE  H20T15692   1.200   2.727   8.647 -0.5854 -0.9488  0.2406
  143SAPE   C3315693   2.319   2.788  10.063 -0.1755  0.4935  0.7566
  143SAPE   H3X15694   2.347   2.688  10.025  2.2013  0.6316  1.9269
  143SAPE   H3Y15695   2.408   2.855  10.061 -0.4906  0.9733  1.8977
  143SAPE   C3415696   2.213   2.861   9.974  0.8852  0.7482  0.0233
  143SAPE   H4X15697   2.243   2.968   9.981 -0.4007  1.1429 -0.2235
  143SAPE   H4Y15698   2.109   2.853  10.013  0.6452  0.6213 -0.6341
  143SAPE   C3515699   2.232   2.818   9.825 -0.2850 -0.4757  0.0039
  143SAPE   H5X15700   2.341   2.832   9.804 -0.1390  0.8682  1.4861
  143SAPE   H5Y15701   2.179   2.891   9.760 -0.4386 -0.1742  0.4639
  143SAPE   C3615702   2.193   2.675   9.797  0.2486  0.2392 -0.1735
  143SAPE   H6X15703   2.083   2.688   9.798  0.3128  0.9008 -0.9505
  143SAPE   H6Y15704   2.233   2.602   9.871 -1.2309 -1.0625 -0.6129
  143SAPE   C3715705   2.232   2.638   9.652 -0.3279 -0.3509 -0.1370
  143SAPE   H7X15706   2.230   2.527   9.647  4.6022 -0.6609 -0.4364
  143SAPE   H7Y15707   2.338   2.668   9.637  0.3679 -1.3267  2.3536
  143SAPE   C3815708   2.138   2.702   9.545 -0.8937 -0.6309  0.9602
  143SAPE   H8X15709   2.146   2.812   9.551  0.8847 -0.6848  0.0829
  143SAPE   H8Y15710   2.035   2.668   9.569 -1.4389 -1.1172 -1.7623
  143SAPE   C3915711   2.159   2.649   9.400  0.1912  0.2297 -0.0282
  143SAPE   H9X15712   2.165   2.538   9.400  1.1380  0.2712  0.7858
  143SAPE   H9Y15713   2.263   2.668   9.367  0.5172  0.0391  0.8652
  143SAPE  C31015714   2.046   2.689   9.306  0.3999 -0.0238  0.9024
  143SAPE  H10X15715   2.036   2.800   9.316 -2.7177  0.3167 -3.2401
  143SAPE  H10Y15716   1.965   2.621   9.339  0.6948 -0.4117  0.8292
  143SAPE  C31115717   2.078   2.663   9.160 -0.4021  1.1128 -0.3616
  143SAPE  H11X15718   1.980   2.671   9.109 -0.7598  2.2972  0.4587
  143SAPE  H11Y15719   2.128   2.564   9.154 -1.3269  0.6444 -0.4254
  143SAPE  C31215720   2.169   2.759   9.089 -0.2693 -0.4978  0.3577
  143SAPE  H12X15721   2.275   2.738   9.117 -1.1715 -2.2966  2.7811
  143SAPE  H12Y15722   2.157   2.862   9.128  1.9123 -0.5448  1.3131
  143SAPE  C31315723   2.134   2.770   8.937 -0.4011  0.4345  0.5864
  143SAPE  H13X15724   2.101   2.671   8.900 -1.7199  0.7364  0.9067
  143SAPE  H13Y15725   2.230   2.790   8.885 -1.3905 -2.1837 -2.5529
  143SAPE  C31415726   2.018   2.871   8.909  0.4285 -0.6116 -0.3015
  143SAPE  H14X15727   2.054   2.974   8.929 -3.2015  0.6255  0.5377
  143SAPE  H14Y15728   1.936   2.848   8.980 -1.3679  0.1857 -2.0557
  143SAPE  C31515729   1.965   2.857   8.767  0.1095  0.3915 -0.4025
  143SAPE  H15X15730   1.923   2.756   8.746  0.4026  0.6025 -2.2296
  143SAPE  H15Y15731   2.054   2.860   8.699 -0.5508 -0.8725 -1.3735
  143SAPE  C31615732   1.864   2.957   8.722  0.0508 -0.4249 -0.7925
  143SAPE  H16X15733   1.904   3.056   8.753 -0.4644 -0.5973  0.4856
  143SAPE  H16Y15734   1.770   2.927   8.772  0.3085 -0.5380 -0.3655
  143SAPE  C31715735   1.838   2.964   8.572  0.8319  0.2865 -0.0165
  143SAPE  H17X15736   1.735   3.001   8.556 -0.4040 -2.2860  1.2893
  143SAPE  H17Y15737   1.814   2.860   8.540  0.6721 -0.1915  1.5381
  143SAPE  C31815738   1.935   3.044   8.484 -0.4912 -0.0431 -0.0651
  143SAPE  H18X15739   1.890   3.041   8.383 -4.5631  0.8845  1.5281
  143SAPE  H18Y15740   2.036   3.000   8.474 -0.6061 -0.3926  0.3052
  143SAPE  H18Z15741   1.944   3.150   8.516  1.1231 -0.1143 -0.2255
  144SAPE     N15742   6.579   0.040  10.481  0.0089  0.6487  0.4842
  144SAPE   HN115743   6.609   0.040  10.381  1.4436 -0.2055  0.8992
  144SAPE   HN215744   6.556  -0.058  10.505  1.3341  0.0940 -0.4093
  144SAPE   HN315745   6.493   0.098  10.481 -1.4680 -1.3591 -1.7015
  144SAPE   C1215746   6.676   0.085  10.584 -0.3137 -0.4582 -0.1870
  144SAPE  H12A15747   6.675   0.196  10.575  0.9995 -0.5049 -1.2097
  144SAPE  H12B15748   6.770   0.042  10.544  0.3360  0.7640 -0.0263
  144SAPE   C1115749   6.649   0.025  10.723 -0.2642 -0.4462 -0.2623
  144SAPE  H11A15750   6.567   0.078  10.777  0.0319  1.1622 -1.3032
  144SAPE  H11B15751   6.733   0.035  10.795  0.5196  1.1454 -1.3290
  144SAPE     P15752   6.713  -0.227  10.728  0.4710  0.5815  0.0637
  144SAPE   O1315753   6.790  -0.204  10.854  0.1106 -0.2461  0.3640
  144SAPE   O1415754   6.650  -0.360  10.727  0.7493 -0.0635 -0.0650
  144SAPE   O1215755   6.610  -0.113  10.708 -0.4667 -0.0399 -0.4792
  144SAPE   O1115756   6.808  -0.208  10.600  0.4171 -0.4277  0.2330
  144SAPE    C115757   6.779  -0.251  10.470 -0.4225 -0.3424 -0.2486
  144SAPE    HA15758   6.693  -0.322  10.463  0.7617 -1.8362 -0.1061
  144SAPE    HB15759   6.749  -0.161  10.412  0.3280 -0.5687 -1.0054
  144SAPE    C215760   6.896  -0.319  10.391  0.3322 -0.2705 -1.0749
  144SAPE    HS15761   6.984  -0.250  10.389  1.3298 -1.3804  1.3315
  144SAPE   O2115762   6.841  -0.350  10.263 -0.1313  0.3675  0.1881
  144SAPE   C2115763   6.841  -0.250  10.169  1.0271 -0.3747 -0.1674
  144SAPE   O2215764   6.861  -0.132  10.190 -0.0308 -0.1734  0.0589
  144SAPE   C2215765   6.804  -0.314  10.033  0.6903  0.6033 -0.5199
  144SAPE   H2R15766   6.899  -0.349   9.987  0.2250  0.4905 -1.4189
  144SAPE   H2S15767   6.742  -0.406  10.045  4.3551 -2.1033 -0.6125
  144SAPE    C315768   6.946  -0.443  10.469 -0.1240 -0.0495  0.4082
  144SAPE    HX15769   6.854  -0.492  10.508 -0.9584  1.2450  0.1648
  144SAPE    HY15770   7.002  -0.420  10.562  0.3131 -0.3485  0.2193
  144SAPE   O3115771   7.034  -0.527  10.389 -0.4648  0.8127 -0.2221
  144SAPE   C3115772   7.050  -0.648  10.438  0.2438 -0.1733  0.1433
  144SAPE   O3215773   6.984  -0.696  10.530 -0.3540  0.0162 -0.3776
  144SAPE   C3215774   7.169  -0.716  10.368 -0.1002  0.3992 -0.2211
  144SAPE   H2X15775   7.133  -0.818  10.342  0.3435 -0.2236  1.4306
  144SAPE   H2Y15776   7.252  -0.739  10.438  0.7978  0.4467 -1.2415
  144SAPE   C2315777   6.735  -0.219   9.925  0.0478 -1.0970  0.0983
  144SAPE   H3R15778   6.807  -0.139   9.899 -1.0250 -0.6002 -1.5556
  144SAPE   H3S15779   6.648  -0.165   9.970  0.4982 -1.0873  0.9888
  144SAPE   C2415780   6.685  -0.291   9.800 -0.4135  0.0606 -0.3411
  144SAPE   H4R15781   6.760  -0.356   9.749 -0.9129  0.4293 -1.5973
  144SAPE   H4S15782   6.646  -0.217   9.727 -0.5104  3.4738  2.8936
  144SAPE   C2515783   6.570  -0.379   9.840 -0.5292  0.6279  0.1576
  144SAPE   H5R15784   6.517  -0.339   9.927  0.1231  2.6396 -0.3142
  144SAPE   C2615785   6.520  -0.479   9.770 -0.6829 -0.2748 -0.1613
  144SAPE   H6R15786   6.426  -0.523   9.807 -0.7986  1.6381  2.0393
  144SAPE   C2715787   6.597  -0.547   9.653  0.0822  0.2057 -0.8853
  144SAPE   H7R15788   6.685  -0.599   9.697 -0.2578  0.1544 -0.2603
  144SAPE   H7S15789   6.652  -0.473   9.591  0.5399  1.5886  1.1098
  144SAPE   C2815790   6.528  -0.647   9.565  0.2963  0.2324 -0.7077
  144SAPE   H8R15791   6.488  -0.737   9.613  0.0787  0.2337 -0.8832
  144SAPE   C2915792   6.491  -0.618   9.437 -0.0499  0.3672 -0.0731
  144SAPE   H9R15793   6.436  -0.697   9.384  1.3152 -0.2221 -0.6737
  144SAPE  C21015794   6.522  -0.503   9.340 -1.0415 -0.6139  0.2508
  144SAPE  H10R15795   6.568  -0.417   9.393 -1.2186 -1.6831  2.2497
  144SAPE  H10S15796   6.431  -0.471   9.285  0.8408  1.8304 -1.6652
  144SAPE  C21115797   6.626  -0.552   9.242 -0.4448 -0.3584  0.8011
  144SAPE  H11R15798   6.735  -0.549   9.258 -0.1175  1.2583 -1.2955
  144SAPE  C21215799   6.590  -0.600   9.118 -0.3783  0.0751 -1.0157
  144SAPE  H12R15800   6.681  -0.630   9.063  0.2826 -2.8290  1.3511
  144SAPE  C21315801   6.457  -0.622   9.057 -0.0038  0.4271  1.0422
  144SAPE  H13R15802   6.461  -0.612   8.946 -0.3282  0.3855  1.0267
  144SAPE  H13S15803   6.385  -0.550   9.100  0.6861  0.1109  2.7941
  144SAPE  C21415804   6.429  -0.769   9.098  0.1176  0.1499  0.1113
  144SAPE  H14R15805   6.394  -0.778   9.202  4.0784 -1.0884  1.5128
  144SAPE  C21515806   6.412  -0.879   9.015  0.4271 -0.2799  0.2689
  144SAPE  H15R15807   6.393  -0.977   9.063 -0.4594  1.7246  4.4438
  144SAPE  C21615808   6.436  -0.867   8.864 -0.2725 -0.4129 -0.4854
  144SAPE  H16R15809   6.515  -0.789   8.855  1.1253 -1.5107  1.4191
  144SAPE  H16S15810   6.350  -0.838   8.800 -0.1995  0.9448  0.0033
  144SAPE  C21715811   6.490  -1.004   8.811 -1.1290 -0.8005  0.1331
  144SAPE  H17R15812   6.426  -1.092   8.835  0.2809 -1.8625  0.1777
  144SAPE  H17S15813   6.592  -1.024   8.851 -0.4490  3.0777  0.7351
  144SAPE  C21815814   6.515  -1.003   8.656 -0.4841  0.1420 -0.0510
  144SAPE  H18R15815   6.599  -0.934   8.628 -0.4517  0.6418  1.2057
  144SAPE  H18S15816   6.422  -0.981   8.600 -0.7416 -0.2277  0.2249
  144SAPE  C21915817   6.560  -1.146   8.610  0.8846  0.3573 -0.0800
  144SAPE  H19R15818   6.489  -1.225   8.641  1.7776 -0.0096  1.1066
  144SAPE  H19S15819   6.660  -1.158   8.658  1.3806  2.2807 -0.5473
  144SAPE  C22015820   6.573  -1.142   8.457 -0.3939 -0.4438  0.0955
  144SAPE  H20R15821   6.679  -1.123   8.429 -0.5033 -0.0836 -0.0835
  144SAPE  H20S15822   6.506  -1.069   8.407  1.4700 -0.2226 -2.2524
  144SAPE  H20T15823   6.549  -1.240   8.412 -1.0008 -0.2588  0.0011
  144SAPE   C3315824   7.238  -0.646  10.245 -0.1968 -0.6473  0.1894
  144SAPE   H3X15825   7.338  -0.692  10.235 -0.0249 -0.2449  0.0621
  144SAPE   H3Y15826   7.262  -0.539  10.267  0.4739 -0.8428  0.4333
  144SAPE   C3415827   7.164  -0.664  10.113  0.8725 -0.2324  0.9403
  144SAPE   H4X15828   7.157  -0.775  10.110 -1.6850 -0.2052  2.4602
  144SAPE   H4Y15829   7.216  -0.629  10.022 -0.1095 -1.6928 -0.2347
  144SAPE   C3515830   7.020  -0.614  10.095 -0.6181  0.0348  0.1807
  144SAPE   H5X15831   7.049  -0.508  10.079  2.6183 -0.7036  0.3706
  144SAPE   H5Y15832   6.955  -0.626  10.184 -2.0768 -1.0821 -0.9718
  144SAPE   C3615833   6.942  -0.665   9.972  0.1273  0.1985 -0.3147
  144SAPE   H6X15834   6.858  -0.593   9.965 -0.7272 -0.6482  0.8579
  144SAPE   H6Y15835   6.899  -0.766   9.989 -0.3977  0.4343 -0.2206
  144SAPE   C3715836   7.016  -0.668   9.839  0.2676  0.3916  0.2563
  144SAPE   H7X15837   7.126  -0.664   9.851  0.2955 -0.9684  0.6406
  144SAPE   H7Y15838   6.986  -0.573   9.791  1.2814 -0.5627 -2.4286
  144SAPE   C3815839   6.978  -0.776   9.737  0.3786  0.0897 -0.2167
  144SAPE   H8X15840   6.868  -0.764   9.726  0.2391  0.0594  1.1032
  144SAPE   H8Y15841   7.003  -0.874   9.783  2.6743  1.1960  1.1031
  144SAPE   C3915842   7.030  -0.756   9.590 -0.2929  0.0835 -0.1471
  144SAPE   H9X15843   7.053  -0.855   9.545 -2.0133 -1.2606  1.7287
  144SAPE   H9Y15844   7.125  -0.698   9.593 -0.1491 -0.1706  0.9930
  144SAPE  C31015845   6.922  -0.699   9.500 -0.2335 -0.3401 -0.8950
  144SAPE  H10X15846   6.889  -0.601   9.540  0.2474 -0.7665  0.6199
  144SAPE  H10Y15847   6.821  -0.743   9.514 -0.8409  0.5508 -2.2409
  144SAPE  C31115848   6.964  -0.682   9.353 -0.1190 -0.2878 -0.2744
  144SAPE  H11X15849   7.075  -0.685   9.345 -0.0622  2.8294 -3.1037
  144SAPE  H11Y15850   6.917  -0.588   9.316  1.3966  0.3041 -0.7559
  144SAPE  C31215851   6.912  -0.800   9.261  0.1053  0.0132 -0.1954
  144SAPE  H12X15852   6.805  -0.787   9.234 -0.1171 -0.2118  0.5531
  144SAPE  H12Y15853   6.929  -0.900   9.308  1.7332 -0.0576 -0.8428
  144SAPE  C31315854   6.990  -0.801   9.126 -0.0103  0.2991  0.0262
  144SAPE  H13X15855   7.101  -0.798   9.130 -0.0348 -0.2080  1.3333
  144SAPE  H13Y15856   6.973  -0.697   9.091 -1.1639  0.0780 -0.1273
  144SAPE  C31415857   6.943  -0.918   9.041 -0.6859  0.1223 -0.6043
  144SAPE  H14X15858   6.833  -0.924   9.048 -0.6169  0.4727  1.8215
  144SAPE  H14Y15859   6.995  -1.014   9.060 -0.4520  0.2671 -0.5046
  144SAPE  C31515860   6.958  -0.893   8.888 -0.5886 -1.1013  0.0049
  144SAPE  H15X15861   7.055  -0.841   8.874 -0.2283 -1.7100  0.1738
  144SAPE  H15Y15862   6.884  -0.818   8.853 -0.6570 -0.7373  0.9214
  144SAPE  C31615863   6.951  -1.017   8.798  0.5486  0.1793 -0.2204
  144SAPE  H16X15864   6.847  -1.055   8.808  1.0830 -1.3892 -0.3643
  144SAPE  H16Y15865   7.033  -1.084   8.831  0.0678 -1.0052 -1.3265
  144SAPE  C31715866   6.967  -0.986   8.644 -0.4255  0.1006 -0.2392
  144SAPE  H17X15867   6.869  -0.951   8.606 -0.8247 -0.4765  0.2395
  144SAPE  H17Y15868   6.977  -1.082   8.588  0.0778  0.5165 -0.8726
  144SAPE  C31815869   7.098  -0.909   8.617  0.8185  0.2803 -0.8096
  144SAPE  H18X15870   7.128  -0.909   8.510  2.0381  1.5479 -0.4978
  144SAPE  H18Y15871   7.188  -0.947   8.672  0.9248  1.7624  0.0979
  144SAPE  H18Z15872   7.085  -0.800   8.634  2.1765  0.3388  0.0383
  145SAPE     N15873   1.367   1.939  10.658 -0.4220  0.2467 -0.7684
  145SAPE   HN115874   1.346   1.956  10.758 -1.2673  0.7512 -1.0149
  145SAPE   HN215875   1.285   1.884  10.625 -0.5888 -0.7868  1.2283
  145SAPE   HN315876   1.454   1.883  10.661 -0.7714 -0.2622  0.0351
  145SAPE   C1215877   1.405   2.059  10.580  0.0462 -0.2184  0.2960
  145SAPE  H12A15878   1.322   2.131  10.595  0.4506  0.2015  0.5332
  145SAPE  H12B15879   1.400   2.043  10.470 -0.7009  0.6069  0.1995
  145SAPE   C1115880   1.523   2.127  10.640  0.7748 -0.1247 -0.5993
  145SAPE  H11A15881   1.490   2.144  10.745 -0.5774  2.1898 -1.3269
  145SAPE  H11B15882   1.546   2.227  10.597 -0.7063  0.6917  0.4239
  145SAPE     P15883   1.760   2.090  10.710 -0.3108 -0.1371  0.1351
  145SAPE   O1315884   1.720   2.195  10.806  0.1588 -0.0770  0.1542
  145SAPE   O1415885   1.824   1.971  10.770  0.0194 -0.0263 -0.0925
  145SAPE   O1215886   1.631   2.038  10.633 -0.3249  0.0734  0.3082
  145SAPE   O1115887   1.860   2.137  10.601  0.4671  0.1161  0.1574
  145SAPE    C115888   1.860   2.081  10.467 -0.3785 -0.2333 -0.1634
  145SAPE    HA15889   1.965   2.071  10.432  0.3080 -0.1839  1.7605
  145SAPE    HB15890   1.815   1.979  10.470  0.4079 -0.6312 -1.2691
  145SAPE    C215891   1.784   2.178  10.367 -0.0047  0.6811 -0.2920
  145SAPE    HS15892   1.676   2.179  10.393 -0.0310 -2.7275  0.1033
  145SAPE   O2115893   1.814   2.117  10.240 -0.0208 -0.2710 -0.3987
  145SAPE   C2115894   1.725   2.147  10.145 -0.5221 -0.1611 -0.3837
  145SAPE   O2215895   1.612   2.188  10.151  0.3485  0.4210  0.1473
  145SAPE   C2215896   1.800   2.125  10.011 -0.0604 -0.2780  0.1121
  145SAPE   H2R15897   1.886   2.194  10.020  0.6622 -0.9562 -1.3177
  145SAPE   H2S15898   1.848   2.025  10.008 -0.1907 -0.3994  1.4980
  145SAPE    C315899   1.838   2.320  10.378  0.4413 -0.7935 -0.3637
  145SAPE    HX15900   1.811   2.357  10.479 -0.1979 -2.2408  0.0186
  145SAPE    HY15901   1.788   2.382  10.301 -0.1066  0.6051  1.0658
  145SAPE   O3115902   1.978   2.323  10.367 -0.7329  0.3689  0.3139
  145SAPE   C3115903   2.032   2.418  10.291 -0.2724 -0.5484 -0.3682
  145SAPE   O3215904   1.970   2.512  10.240  0.7449  0.2076 -0.1745
  145SAPE   C3215905   2.185   2.383  10.279  0.4260  0.0189  0.0120
  145SAPE   H2X15906   2.228   2.402  10.380 -2.0483 -1.1230  1.3751
  145SAPE   H2Y15907   2.232   2.449  10.203 -0.4034 -0.2399 -0.7450
  145SAPE   C2315908   1.730   2.156   9.872  0.4185  0.3440 -1.0932
  145SAPE   H3R15909   1.726   2.267   9.870 -0.8724  0.3236 -0.9927
  145SAPE   H3S15910   1.626   2.122   9.892  0.8504  0.4142  1.7681
  145SAPE   C2415911   1.800   2.103   9.747 -0.5350  0.6341 -0.2491
  145SAPE   H4R15912   1.841   2.002   9.770 -0.9577  0.2700 -1.0690
  145SAPE   H4S15913   1.886   2.171   9.727  0.0691 -0.2793 -0.8384
  145SAPE   C2515914   1.706   2.099   9.631  0.7679  0.3016  0.0086
  145SAPE   H5R15915   1.600   2.118   9.656  0.2662 -0.8200 -1.1503
  145SAPE   C2615916   1.741   2.070   9.505 -0.7469  0.3956 -0.2006
  145SAPE   H6R15917   1.657   2.062   9.434 -1.1343 -2.5654  0.4702
  145SAPE   C2715918   1.881   2.039   9.449  1.0757 -0.0705  0.9902
  145SAPE   H7R15919   1.944   1.987   9.524 -0.3156 -1.0129  1.5577
  145SAPE   H7S15920   1.925   2.140   9.438 -1.1744  0.8344 -0.4367
  145SAPE   C2815921   1.869   1.967   9.317  0.2736 -0.2477 -0.5512
  145SAPE   H8R15922   1.837   1.863   9.329  0.3610 -0.3852 -1.4554
  145SAPE   C2915923   1.904   2.019   9.197 -0.5721  0.1223  0.3670
  145SAPE   H9R15924   1.891   1.965   9.103  0.7117  2.4732 -1.2552
  145SAPE  C21015925   1.955   2.163   9.173  0.2272  0.4206 -0.6961
  145SAPE  H10R15926   2.054   2.154   9.124  2.0175 -1.5156  2.9187
  145SAPE  H10S15927   1.995   2.218   9.261 -1.0938 -1.2902  1.0516
  145SAPE  C21115928   1.866   2.262   9.101  0.1478 -0.3974  0.4450
  145SAPE  H11R15929   1.793   2.313   9.166 -0.4443 -1.7781  0.8884
  145SAPE  C21215930   1.860   2.291   8.970  0.1210  0.1768  0.4026
  145SAPE  H12R15931   1.794   2.371   8.933 -0.1678 -0.5273 -0.6253
  145SAPE  C21315932   1.959   2.240   8.864  0.8411 -0.0555 -0.0064
  145SAPE  H13R15933   1.913   2.221   8.764  1.0553 -0.5910 -0.0058
  145SAPE  H13S15934   2.003   2.143   8.897  3.3568  0.0529 -2.6109
  145SAPE  C21415935   2.078   2.335   8.848  0.0405 -0.5369  0.9029
  145SAPE  H14R15936   2.120   2.375   8.941  0.6868 -0.6686  0.6756
  145SAPE  C21515937   2.147   2.372   8.736 -0.1526 -0.2478  0.2569
  145SAPE  H15R15938   2.237   2.434   8.751  0.7731 -1.1610 -1.2640
  145SAPE  C21615939   2.120   2.331   8.591 -0.9255  0.3245 -0.0204
  145SAPE  H16R15940   2.055   2.242   8.599 -1.4805  0.7673  0.4968
  145SAPE  H16S15941   2.209   2.297   8.534  1.0405  2.7025  1.3995
  145SAPE  C21715942   2.042   2.432   8.502  0.2714  0.8345  0.0148
  145SAPE  H17R15943   1.940   2.445   8.544 -0.0711  1.0967 -0.8820
  145SAPE  H17S15944   2.037   2.394   8.398 -2.2277  1.7942 -0.2828
  145SAPE  C21815945   2.113   2.568   8.494 -0.6023 -0.1587  0.8464
  145SAPE  H18R15946   2.203   2.554   8.431  1.3176  0.3029  3.3179
  145SAPE  H18S15947   2.127   2.620   8.592 -2.6021  2.4061 -0.1212
  145SAPE  C21915948   2.030   2.677   8.422 -0.2422 -0.7587  0.0843
  145SAPE  H19R15949   2.092   2.769   8.430  1.7614 -1.8848 -1.6679
  145SAPE  H19S15950   1.936   2.693   8.480  0.6224  2.7094  0.7880
  145SAPE  C22015951   2.013   2.669   8.272  0.2598  0.3680  0.3168
  145SAPE  H20R15952   2.016   2.562   8.243  2.4965  0.5021 -0.1661
  145SAPE  H20S15953   2.084   2.730   8.211  0.1273  0.8886  0.6794
  145SAPE  H20T15954   1.907   2.692   8.246  0.2728 -0.4653 -0.5358
  145SAPE   C3315955   2.216   2.228  10.259 -0.3416  0.1681  0.2966
  145SAPE   H3X15956   2.195   2.166  10.349  2.6660  0.8520  1.6046
  145SAPE   H3Y15957   2.325   2.210  10.241  0.0581 -0.6852  3.1421
  145SAPE   C3415958   2.163   2.175  10.127 -0.1737  0.2763 -0.4703
  145SAPE   H4X15959   2.052   2.166  10.136  0.0424 -2.0714  0.7564
  145SAPE   H4Y15960   2.211   2.075  10.119  0.4680  0.5787 -0.4499
  145SAPE   C3515961   2.188   2.256  10.000  0.5509 -0.4482  0.1235
  145SAPE   H5X15962   2.288   2.305  10.005  0.8709 -1.0559 -0.2003
  145SAPE   H5Y15963   2.113   2.337  10.009 -1.2811 -2.1120  0.6506
  145SAPE   C3615964   2.177   2.181   9.871 -0.1620  0.1801 -0.1208
  145SAPE   H6X15965   2.077   2.135   9.855  0.5536 -1.3267 -0.4642
  145SAPE   H6Y15966   2.246   2.094   9.877  1.0633  1.0355 -1.2121
  145SAPE   C3715967   2.195   2.267   9.746 -1.0006  0.1139 -0.3745
  145SAPE   H7X15968   2.296   2.312   9.752 -1.1584  0.3879  0.3259
  145SAPE   H7Y15969   2.118   2.345   9.729 -0.9136  0.1636 -0.5454
  145SAPE   C3815970   2.214   2.181   9.615 -0.0507  0.3613 -0.5472
  145SAPE   H8X15971   2.133   2.108   9.595  0.5149 -1.1721  2.3200
  145SAPE   H8Y15972   2.302   2.116   9.635 -0.5566 -0.0222  0.4725
  145SAPE   C3915973   2.237   2.261   9.492 -0.7522  0.4311 -0.5255
  145SAPE   H9X15974   2.317   2.333   9.520 -1.6559  1.1161  0.3858
  145SAPE   H9Y15975   2.144   2.320   9.478 -0.6695  0.7864  0.3454
  145SAPE  C31015976   2.275   2.162   9.379  0.2087  0.1626  0.1153
  145SAPE  H10X15977   2.190   2.095   9.356  1.0512 -1.0716  0.4571
  145SAPE  H10Y15978   2.369   2.107   9.405  0.2852  1.5171  3.2158
  145SAPE  C31115979   2.309   2.239   9.255  0.0573  0.0239  0.1400
  145SAPE  H11X15980   2.412   2.278   9.272  0.6523 -1.6460  0.5349
  145SAPE  H11Y15981   2.234   2.321   9.249 -1.4528 -1.2503  0.8882
  145SAPE  C31215982   2.316   2.170   9.124  0.2583 -0.2352  0.8987
  145SAPE  H12X15983   2.299   2.237   9.037  0.2404  2.0047  2.5514
  145SAPE  H12Y15984   2.242   2.088   9.117 -0.9332  0.9464 -1.6731
  145SAPE  C31315985   2.457   2.115   9.083 -0.5261  0.2786 -0.4420
  145SAPE  H13X15986   2.491   2.056   9.170  2.6323  0.2358 -1.5781
  145SAPE  H13Y15987   2.521   2.203   9.060 -1.6327  1.7791  1.8870
  145SAPE  C31415988   2.454   2.039   8.943 -0.4213 -0.2227  0.2200
  145SAPE  H14X15989   2.399   2.103   8.871 -0.4140  0.2541  0.6308
  145SAPE  H14Y15990   2.403   1.941   8.951 -1.1796 -0.0126 -1.5316
  145SAPE  C31515991   2.592   2.012   8.889  0.1158 -0.3726  0.4043
  145SAPE  H15X15992   2.655   2.000   8.980 -0.2685 -0.5928  0.6412
  145SAPE  H15Y15993   2.630   2.097   8.828  1.1842 -0.6183  0.7036
  145SAPE  C31615994   2.614   1.894   8.785 -0.3622 -0.2100  0.0088
  145SAPE  H16X15995   2.545   1.917   8.700  1.6353 -1.1155 -1.9566
  145SAPE  H16Y15996   2.587   1.802   8.840  0.6723 -0.9148 -0.6408
  145SAPE  C31715997   2.766   1.868   8.753 -0.7623  0.3494  0.3725
  145SAPE  H17X15998   2.768   1.782   8.683 -2.0924  1.3495 -0.9636
  145SAPE  H17Y15999   2.810   1.831   8.848 -1.2121  3.5670  1.9666
  145SAPE  C31816000   2.850   1.989   8.711  0.2119 -0.1804 -0.6019
  145SAPE  H18X16001   2.940   1.950   8.659  0.5659  0.6790 -0.6474
  145SAPE  H18Y16002   2.884   2.037   8.805  1.1955 -1.2862 -0.3691
  145SAPE  H18Z16003   2.798   2.063   8.647 -2.8947 -0.4807  1.3471
  146SAPE     N16004   2.200   1.201  10.531 -0.0813  0.6129 -0.0467
  146SAPE   HN116005   2.244   1.111  10.558  1.4838  0.4480 -2.8200
  146SAPE   HN216006   2.143   1.236  10.611 -0.6376 -3.1340  1.4146
  146SAPE   HN316007   2.142   1.197  10.445  1.9036  1.3834 -1.4827
  146SAPE   C1216008   2.319   1.289  10.494  0.0733  0.1379  0.8389
  146SAPE  H12A16009   2.281   1.390  10.468  0.5338 -0.3423 -2.0354
  146SAPE  H12B16010   2.365   1.238  10.407  1.1894  1.3588  0.6806
  146SAPE   C1116011   2.424   1.296  10.607 -0.0876  0.3092 -0.1201
  146SAPE  H11A16012   2.369   1.348  10.688 -0.2118 -0.2893  0.1860
  146SAPE  H11B16013   2.507   1.356  10.565  1.7412 -1.5252  0.6879
  146SAPE     P16014   2.551   1.071  10.570 -0.1210  0.0745 -0.1223
  146SAPE   O1316015   2.666   1.156  10.539  0.3238 -0.3186  0.3808
  146SAPE   O1416016   2.574   0.949  10.651 -0.1071 -0.0470  0.1647
  146SAPE   O1216017   2.463   1.165  10.657 -0.3723  0.1002 -0.2672
  146SAPE   O1116018   2.457   1.043  10.448  0.1008 -0.1267 -0.2870
  146SAPE    C116019   2.394   0.918  10.440  0.5397 -0.5242  0.1549
  146SAPE    HA16020   2.356   0.877  10.536 -0.7683  0.3799  0.0444
  146SAPE    HB16021   2.300   0.918  10.381 -0.0173 -0.0530  1.0072
  146SAPE    C216022   2.486   0.810  10.368  0.2735 -0.6545  0.2524
  146SAPE    HS16023   2.555   0.787  10.451 -0.0063  1.8611  1.2677
  146SAPE   O2116024   2.541   0.866  10.241  0.8461 -0.7142  0.1642
  146SAPE   C2116025   2.666   0.910  10.242  0.1504 -0.2961 -0.0335
  146SAPE   O2216026   2.744   0.894  10.335  0.0239  0.7632 -0.0525
  146SAPE   C2216027   2.692   0.991  10.109  0.5074  0.8190 -0.5957
  146SAPE   H2R16028   2.594   1.024  10.067  1.4381  2.0603 -1.9012
  146SAPE   H2S16029   2.761   1.075  10.132  2.0141 -0.6582  0.5097
  146SAPE    C316030   2.395   0.687  10.335 -1.0636 -0.2079 -0.5505
  146SAPE    HX16031   2.298   0.732  10.303 -1.2180  1.1821  1.6607
  146SAPE    HY16032   2.376   0.629  10.427  0.2073  1.4718  0.8415
  146SAPE   O3116033   2.455   0.594  10.238  0.6523 -0.1350  0.3712
  146SAPE   C3116034   2.544   0.516  10.281 -0.1506  0.3043 -0.1078
  146SAPE   O3216035   2.583   0.512  10.398 -0.0557 -0.0939 -0.2857
  146SAPE   C3216036   2.607   0.428  10.170 -0.5688  0.0703 -0.3169
  146SAPE   H2X16037   2.623   0.328  10.216 -0.5051  0.1976 -0.0636
  146SAPE   H2Y16038   2.701   0.478  10.141 -1.5947  2.0443 -0.4105
  146SAPE   C2316039   2.760   0.891  10.016  0.0869 -0.1542  0.1370
  146SAPE   H3R16040   2.849   0.851  10.071  0.6238  0.0831 -0.5446
  146SAPE   H3S16041   2.796   0.963   9.939 -1.2275  1.6070  1.0918
  146SAPE   C2416042   2.671   0.783   9.955  0.5736  0.2209  0.4958
  146SAPE   H4R16043   2.611   0.734  10.035 -0.3437  2.8541  1.5256
  146SAPE   H4S16044   2.741   0.713   9.904  1.2267  1.2714 -0.0798
  146SAPE   C2516045   2.576   0.857   9.868 -0.2190  0.3297 -0.5460
  146SAPE   H5R16046   2.527   0.950   9.900  0.9386 -0.1020  2.8656
  146SAPE   C2616047   2.549   0.813   9.742 -0.2357 -0.9278 -0.3936
  146SAPE   H6R16048   2.486   0.873   9.676  0.0723  0.8531  0.8720
  146SAPE   C2716049   2.596   0.686   9.675 -0.1543 -0.3230  0.7257
  146SAPE   H7R16050   2.510   0.627   9.636  0.0003 -0.6987  0.9538
  146SAPE   H7S16051   2.636   0.615   9.750 -0.4109 -0.3899  0.7995
  146SAPE   C2816052   2.704   0.710   9.574 -0.0516  0.0818 -0.0973
  146SAPE   H8R16053   2.804   0.706   9.619 -0.1307  2.4324  0.4395
  146SAPE   C2916054   2.691   0.716   9.437 -0.2905  0.7016  0.4130
  146SAPE   H9R16055   2.782   0.734   9.378 -0.0462  0.5521  0.7394
  146SAPE  C21016056   2.562   0.723   9.358  0.6697 -0.0823  0.4755
  146SAPE  H10R16057   2.509   0.820   9.375  3.7633  1.6552  1.0602
  146SAPE  H10S16058   2.496   0.641   9.391  0.1502  0.4223  0.7069
  146SAPE  C21116059   2.585   0.715   9.206 -0.3982  0.4717  0.0795
  146SAPE  H11R16060   2.693   0.711   9.184 -0.6738  1.9819 -1.8978
  146SAPE  C21216061   2.490   0.721   9.110  0.2679  0.0742 -0.3644
  146SAPE  H12R16062   2.524   0.694   9.009  3.5644 -0.9616  0.8798
  146SAPE  C21316063   2.344   0.735   9.144 -0.0237 -0.3804 -0.2810
  146SAPE  H13R16064   2.307   0.829   9.097 -0.1519  0.1822  0.9118
  146SAPE  H13S16065   2.329   0.745   9.253  0.0015  0.2030 -0.3246
  146SAPE  C21416066   2.271   0.611   9.101 -0.4833 -0.1745 -0.2576
  146SAPE  H14R16067   2.263   0.534   9.179 -0.1015 -1.5671 -1.5472
  146SAPE  C21516068   2.208   0.590   8.983  0.7696 -0.2379 -0.5104
  146SAPE  H15R16069   2.164   0.490   8.967 -2.1566  1.0745 -1.3246
  146SAPE  C21616070   2.185   0.680   8.872  0.2283 -0.5972  0.1855
  146SAPE  H16R16071   2.255   0.655   8.789 -0.1192 -0.4034 -0.1658
  146SAPE  H16S16072   2.211   0.786   8.894  2.8504 -1.2842  0.8497
  146SAPE  C21716073   2.043   0.668   8.807  0.1840  0.5231  0.0718
  146SAPE  H17R16074   2.007   0.761   8.758  0.0254  0.7512  0.6224
  146SAPE  H17S16075   1.975   0.628   8.885  0.7633 -0.2140  0.2131
  146SAPE  C21816076   2.036   0.570   8.697  0.8215  0.3159  0.7885
  146SAPE  H18R16077   2.081   0.470   8.715  1.7079  0.5150 -0.1766
  146SAPE  H18S16078   2.085   0.606   8.604  2.1628  1.3911  1.8593
  146SAPE  C21916079   1.891   0.524   8.674  0.0438 -0.1633 -0.7322
  146SAPE  H19R16080   1.828   0.613   8.655  2.5872  2.4043  1.7979
  146SAPE  H19S16081   1.863   0.476   8.770  2.4943  0.4015  0.3371
  146SAPE  C22016082   1.881   0.417   8.568 -0.5586  0.1353 -0.1274
  146SAPE  H20R16083   1.960   0.339   8.573 -1.6874 -1.0666 -0.4237
  146SAPE  H20S16084   1.894   0.461   8.467  2.3185 -0.0775  0.0696
  146SAPE  H20T16085   1.784   0.363   8.573 -0.6270  0.2418 -0.2949
  146SAPE   C3316086   2.528   0.411  10.039  0.3285 -0.2646 -0.4637
  146SAPE   H3X16087   2.493   0.510  10.002  0.9292  0.2217  0.2361
  146SAPE   H3Y16088   2.430   0.365  10.061  0.4232  0.7166  2.3799
  146SAPE   C3416089   2.603   0.357   9.917 -0.0182  0.0410  0.2077
  146SAPE   H4X16090   2.630   0.250   9.930 -2.1230 -0.5221  0.3396
  146SAPE   H4Y16091   2.698   0.411   9.897 -0.1512 -0.3290 -1.6189
  146SAPE   C3516092   2.516   0.351   9.783  0.2697  0.1467 -0.7782
  146SAPE   H5X16093   2.474   0.453   9.769 -2.2242 -0.3936  1.9932
  146SAPE   H5Y16094   2.420   0.298   9.798 -0.4929  1.8202  0.6179
  146SAPE   C3616095   2.591   0.314   9.659  0.7843  0.0317 -0.1019
  146SAPE   H6X16096   2.620   0.207   9.667  1.0103  0.1187  0.2326
  146SAPE   H6Y16097   2.687   0.370   9.659  0.0894  1.2734  1.0909
  146SAPE   C3716098   2.518   0.347   9.531  0.2550  0.7692  0.4400
  146SAPE   H7X16099   2.569   0.441   9.499  0.0974  0.8970  0.5631
  146SAPE   H7Y16100   2.410   0.359   9.552  0.4038 -0.1722  1.8722
  146SAPE   C3816101   2.533   0.240   9.422  0.0685  0.1429 -0.1427
  146SAPE   H8X16102   2.461   0.158   9.442  0.4621 -0.7647 -2.1898
  146SAPE   H8Y16103   2.633   0.191   9.426  0.3920  0.8459  0.6789
  146SAPE   C3916104   2.488   0.296   9.286  0.4107  0.0068 -0.2715
  146SAPE   H9X16105   2.567   0.365   9.250 -0.1408  0.8936  0.2075
  146SAPE   H9Y16106   2.406   0.357   9.329 -0.9646 -1.5204 -0.6164
  146SAPE  C31016107   2.461   0.186   9.183 -0.0007  0.2526  0.4083
  146SAPE  H10X16108   2.379   0.118   9.214 -0.6015  0.8875  0.2445
  146SAPE  H10Y16109   2.551   0.121   9.181  0.5489  0.8794  2.4360
  146SAPE  C31116110   2.420   0.248   9.047 -0.6150  0.7046  0.4301
  146SAPE  H11X16111   2.507   0.286   8.989 -0.2360  2.6860  2.1658
  146SAPE  H11Y16112   2.364   0.343   9.066 -0.0666  1.5898 -1.9805
  146SAPE  C31216113   2.332   0.155   8.962 -0.4774  0.6378  0.2490
  146SAPE  H12X16114   2.235   0.141   9.014 -1.0532  0.2843 -0.8788
  146SAPE  H12Y16115   2.385   0.061   8.938  1.4420  1.4679  1.0262
  146SAPE  C31316116   2.304   0.209   8.818 -0.1800 -0.4420 -0.2213
  146SAPE  H13X16117   2.397   0.265   8.791 -0.8262 -0.9773 -4.1980
  146SAPE  H13Y16118   2.225   0.286   8.827  2.1163  1.8125  3.2780
  146SAPE  C31416119   2.292   0.106   8.706  0.2988 -0.1762 -0.4187
  146SAPE  H14X16120   2.199   0.050   8.732  0.2090  0.1330 -0.0596
  146SAPE  H14Y16121   2.389   0.053   8.711 -1.0568 -2.8058  0.0397
  146SAPE  C31516122   2.271   0.163   8.569  0.0383 -0.5729  0.4830
  146SAPE  H15X16123   2.354   0.236   8.558  1.0926 -1.9245 -1.0856
  146SAPE  H15Y16124   2.169   0.206   8.563  0.3978  0.3338  0.6507
  146SAPE  C31616125   2.288   0.059   8.456  0.2896  0.1682  0.7173
  146SAPE  H16X16126   2.227  -0.031   8.477 -0.3313 -0.1474 -2.0335
  146SAPE  H16Y16127   2.393   0.022   8.445  0.8411  2.2957 -2.6349
  146SAPE  C31716128   2.251   0.114   8.317 -0.2963 -0.4283 -0.2395
  146SAPE  H17X16129   2.162   0.180   8.326  1.9034  3.2962 -2.9208
  146SAPE  H17Y16130   2.242   0.033   8.242 -1.6535 -1.3072  0.8109
  146SAPE  C31816131   2.355   0.220   8.264 -0.1865 -0.3819  0.3364
  146SAPE  H18X16132   2.455   0.177   8.244  0.5232  1.3662 -0.1002
  146SAPE  H18Y16133   2.368   0.290   8.349  0.3434  0.4943 -0.4462
  146SAPE  H18Z16134   2.320   0.300   8.194  0.7227  0.7079  1.0801
  147SAPE     N16135   5.398   5.157   6.419 -0.7503  0.8550  0.5106
  147SAPE   HN116136   5.336   5.124   6.495  0.4600 -0.3478  1.0008
  147SAPE   HN216137   5.368   5.256   6.403 -0.8911  0.6099 -0.8145
  147SAPE   HN316138   5.373   5.099   6.337 -0.4674  1.0690  0.2707
  147SAPE   C1216139   5.535   5.124   6.457  0.5946 -0.2466  0.0732
  147SAPE  H12A16140   5.537   5.026   6.509 -1.9394  1.0231  2.8807
  147SAPE  H12B16141   5.581   5.201   6.524  0.6681  2.2095 -2.6121
  147SAPE   C1116142   5.630   5.118   6.336  0.2671 -0.1067 -0.0104
  147SAPE  H11A16143   5.593   5.044   6.262 -0.2365  0.9472 -0.8471
  147SAPE  H11B16144   5.729   5.081   6.370 -0.6547 -1.5689  1.1730
  147SAPE     P16145   5.779   5.304   6.216  0.4133  0.3313  0.4252
  147SAPE   O1316146   5.882   5.198   6.206  0.0299 -0.0451 -0.0681
  147SAPE   O1416147   5.757   5.379   6.087 -0.0660  0.2036  0.4468
  147SAPE   O1216148   5.643   5.239   6.269 -0.0993  0.6905  0.0331
  147SAPE   O1116149   5.821   5.399   6.337 -0.4249  0.0554  0.4202
  147SAPE    C116150   5.722   5.496   6.385  0.1501 -0.2578 -0.3923
  147SAPE    HA16151   5.696   5.566   6.303 -0.3851 -0.8633 -0.7438
  147SAPE    HB16152   5.623   5.450   6.402  0.6500 -0.5628  2.1956
  147SAPE    C216153   5.767   5.562   6.523  0.4442  0.8079  0.2853
  147SAPE    HS16154   5.702   5.649   6.551  1.9739  2.1339 -0.1287
  147SAPE   O2116155   5.900   5.607   6.517  0.0650  1.0614  0.3888
  147SAPE   C2116156   5.940   5.703   6.433 -0.1080 -0.3537  1.0103
  147SAPE   O2216157   5.865   5.764   6.356 -0.0186  0.6062 -0.1752
  147SAPE   C2216158   6.085   5.722   6.441 -0.1239 -0.2110 -0.4616
  147SAPE   H2R16159   6.141   5.628   6.464 -1.4501 -0.9848 -0.3062
  147SAPE   H2S16160   6.117   5.751   6.339 -0.3885 -1.2557 -0.8495
  147SAPE    C316161   5.734   5.457   6.636 -0.2217  0.4395  0.2968
  147SAPE    HX16162   5.766   5.362   6.588 -2.2900 -0.9479  1.5112
  147SAPE    HY16163   5.624   5.451   6.650 -0.5015  0.6053 -1.6013
  147SAPE   O3116164   5.802   5.486   6.760  0.2395 -0.6569  0.1441
  147SAPE   C3116165   5.823   5.382   6.840  0.0878  0.0581 -0.2332
  147SAPE   O3216166   5.800   5.269   6.811 -0.2854 -0.2067  0.0867
  147SAPE   C3216167   5.886   5.423   6.974  0.0579  0.0212  0.1784
  147SAPE   H2X16168   5.883   5.534   6.982  0.7829  0.2163 -1.6980
  147SAPE   H2Y16169   5.995   5.404   6.963 -0.0197 -0.2835 -0.1160
  147SAPE   C2316170   6.127   5.841   6.537 -0.0822  0.2433 -0.4156
  147SAPE   H3R16171   6.050   5.920   6.536  0.9898  1.3535  1.0111
  147SAPE   H3S16172   6.223   5.890   6.510 -0.9974  2.5630  0.3471
  147SAPE   C2416173   6.151   5.794   6.677  0.4921 -0.2236 -0.0430
  147SAPE   H4R16174   6.187   5.884   6.730  0.9428 -1.1238  1.2295
  147SAPE   H4S16175   6.224   5.710   6.675 -0.0347 -0.6824 -2.0249
  147SAPE   C2516176   6.031   5.740   6.748 -0.2790 -0.3646  0.4573
  147SAPE   H5R16177   6.014   5.634   6.723  0.4900 -0.4439  0.2264
  147SAPE   C2616178   5.960   5.810   6.837 -0.4314  0.1361  0.6088
  147SAPE   H6R16179   5.874   5.764   6.888  0.9488  0.7425  3.6650
  147SAPE   C2716180   5.982   5.951   6.885 -0.4038  0.6394 -0.2237
  147SAPE   H7R16181   5.885   5.990   6.922 -0.6621  0.7652 -1.0354
  147SAPE   H7S16182   6.014   6.010   6.797  2.5165 -1.0490 -0.4134
  147SAPE   C2816183   6.089   5.960   6.997  0.8162 -0.4485 -0.2427
  147SAPE   H8R16184   6.193   5.942   6.964  0.6351  2.2214 -2.5548
  147SAPE   C2916185   6.055   5.950   7.132 -0.6539  0.8687  0.0556
  147SAPE   H9R16186   6.140   5.951   7.201  1.1333 -2.9610 -1.7772
  147SAPE  C21016187   5.924   5.933   7.205 -0.0361  0.8843  0.5914
  147SAPE  H10R16188   5.911   5.824   7.220 -0.1201  0.2989 -2.8780
  147SAPE  H10S16189   5.836   5.950   7.139 -0.4440 -1.5764  0.4374
  147SAPE  C21116190   5.900   6.012   7.328 -1.1509  0.6211  0.0785
  147SAPE  H11R16191   5.882   6.119   7.310 -3.6036  0.1849 -0.4901
  147SAPE  C21216192   5.863   5.959   7.450  0.0150 -0.3646  0.4441
  147SAPE  H12R16193   5.842   6.031   7.531  1.8268 -1.0379  1.5906
  147SAPE  C21316194   5.848   5.811   7.485 -0.0756  0.3478  0.0434
  147SAPE  H13R16195   5.950   5.773   7.506  0.7845  1.7927 -1.2479
  147SAPE  H13S16196   5.810   5.744   7.405 -1.1681  1.7920 -0.6980
  147SAPE  C21416197   5.762   5.789   7.609  0.1267 -0.1241  0.5159
  147SAPE  H14R16198   5.658   5.822   7.594  0.5672  1.4182  0.7287
  147SAPE  C21516199   5.799   5.733   7.728 -0.3189  0.0134 -0.1805
  147SAPE  H15R16200   5.716   5.729   7.801  0.8244  1.6207  1.3089
  147SAPE  C21616201   5.940   5.688   7.776 -0.2892 -0.9158 -0.4671
  147SAPE  H16R16202   6.015   5.683   7.695  2.0180  0.6696  1.4383
  147SAPE  H16S16203   5.935   5.587   7.824 -1.4382 -1.4261 -1.6144
  147SAPE  C21716204   5.992   5.800   7.868 -0.1632 -0.1334 -0.2611
  147SAPE  H17R16205   6.014   5.891   7.809  1.7962 -0.3336  0.0895
  147SAPE  H17S16206   6.080   5.770   7.929 -0.7054 -2.6284 -0.5835
  147SAPE  C21816207   5.900   5.853   7.972 -0.0884  0.3956  0.6907
  147SAPE  H18R16208   5.876   5.766   8.037 -1.1889  0.4532  0.3722
  147SAPE  H18S16209   5.801   5.884   7.932  0.7871 -1.1432 -3.0589
  147SAPE  C21916210   5.973   5.960   8.057  0.0085 -0.1897 -0.1065
  147SAPE  H19R16211   6.014   6.033   7.984 -1.5693  1.3692  0.4796
  147SAPE  H19S16212   6.056   5.909   8.109  1.7574  2.3076 -0.2324
  147SAPE  C22016213   5.889   6.026   8.165  0.2534  0.0362 -0.5366
  147SAPE  H20R16214   5.960   6.095   8.216 -0.3142  0.1606  0.1055
  147SAPE  H20S16215   5.853   5.954   8.242  0.9527  1.1625  0.8925
  147SAPE  H20T16216   5.806   6.092   8.133  0.8212 -0.1698 -2.5334
  147SAPE   C3316217   5.827   5.353   7.088  0.3991 -0.1107 -0.1565
  147SAPE   H3X16218   5.831   5.242   7.077 -0.4042 -0.0054 -1.8954
  147SAPE   H3Y16219   5.719   5.380   7.092  0.6574  0.7935  0.9362
  147SAPE   C3416220   5.875   5.396   7.225 -0.1060  0.2776 -0.1045
  147SAPE   H4X16221   5.868   5.507   7.232  2.0292  0.4161  0.6712
  147SAPE   H4Y16222   5.979   5.363   7.248  0.1222 -0.4754 -2.0703
  147SAPE   C3516223   5.783   5.341   7.334  0.7465  1.6608  0.4756
  147SAPE   H5X16224   5.791   5.231   7.343 -0.7147  1.5512  0.6015
  147SAPE   H5Y16225   5.676   5.359   7.310  0.8579  2.4009  0.5030
  147SAPE   C3616226   5.792   5.427   7.462 -0.4198 -0.0098 -0.0194
  147SAPE   H6X16227   5.798   5.529   7.418  0.7121 -0.0914 -0.0749
  147SAPE   H6Y16228   5.881   5.407   7.524 -0.5590  1.2566  0.6200
  147SAPE   C3716229   5.673   5.405   7.562  0.5471 -0.6686  0.1591
  147SAPE   H7X16230   5.579   5.383   7.507  0.1330 -0.4425  0.7638
  147SAPE   H7Y16231   5.671   5.495   7.627 -0.8910  0.0230 -0.8035
  147SAPE   C3816232   5.700   5.277   7.641 -0.5872  0.4686 -0.5122
  147SAPE   H8X16233   5.794   5.286   7.701 -1.3726 -1.0587  1.0407
  147SAPE   H8Y16234   5.703   5.178   7.590  0.8850 -0.6757  1.6174
  147SAPE   C3916235   5.597   5.263   7.765  0.0353  0.1195 -0.2844
  147SAPE   H9X16236   5.614   5.159   7.801 -1.1495 -0.0179 -0.0904
  147SAPE   H9Y16237   5.495   5.266   7.722  0.2477  1.4648 -0.7404
  147SAPE  C31016238   5.601   5.375   7.880  0.0689 -0.1008  0.1102
  147SAPE  H10X16239   5.507   5.357   7.936  0.8363 -2.3643  0.8120
  147SAPE  H10Y16240   5.603   5.481   7.849 -0.2954  0.7687  2.7732
  147SAPE  C31116241   5.711   5.355   7.980  0.5084  0.4330  0.2385
  147SAPE  H11X16242   5.812   5.347   7.933  0.5754  2.9196 -0.1925
  147SAPE  H11Y16243   5.703   5.266   8.046 -0.1854  0.2760 -0.0461
  147SAPE  C31216244   5.720   5.468   8.080  1.0858 -0.1951 -0.9459
  147SAPE  H12X16245   5.616   5.487   8.117  2.1149  1.3050  1.4344
  147SAPE  H12Y16246   5.755   5.561   8.030 -0.7212  0.9882 -0.1099
  147SAPE  C31316247   5.816   5.428   8.198  0.1161  0.0284 -0.0541
  147SAPE  H13X16248   5.898   5.365   8.156 -0.6912  0.3198 -2.1883
  147SAPE  H13Y16249   5.756   5.375   8.275  0.0019 -0.6568 -0.6046
  147SAPE  C31416250   5.894   5.547   8.255  0.1194 -0.3646 -0.2153
  147SAPE  H14X16251   5.815   5.595   8.317 -1.9755 -0.4138 -2.6810
  147SAPE  H14Y16252   5.916   5.623   8.177  1.2628  0.6301  1.0160
  147SAPE  C31516253   6.028   5.508   8.331 -0.0713  0.2203  0.3496
  147SAPE  H15X16254   6.107   5.459   8.270 -1.0277 -0.3023 -0.5076
  147SAPE  H15Y16255   5.998   5.420   8.392 -2.6456  0.6195 -0.2416
  147SAPE  C31616256   6.080   5.618   8.432  0.1994 -0.2733  0.7255
  147SAPE  H16X16257   5.994   5.670   8.479 -0.3394  0.7497 -1.2408
  147SAPE  H16Y16258   6.125   5.690   8.360 -0.0864 -0.8968 -0.1003
  147SAPE  C31716259   6.187   5.573   8.534 -0.5221 -0.2518  0.1268
  147SAPE  H17X16260   6.219   5.662   8.592 -0.1961 -0.9403  1.0257
  147SAPE  H17Y16261   6.281   5.536   8.489 -0.7833 -1.6486  0.6852
  147SAPE  C31816262   6.139   5.468   8.631  0.0733  0.0303 -0.9913
  147SAPE  H18X16263   6.060   5.512   8.695  0.5338  1.3568 -1.3005
  147SAPE  H18Y16264   6.215   5.416   8.693 -1.1111 -1.5739 -0.8480
  147SAPE  H18Z16265   6.082   5.386   8.583  0.0174  0.1613 -1.1513
  148SAPE     N16266   6.586   5.204   5.986 -0.0406  0.1241  0.1307
  148SAPE   HN116267   6.593   5.301   5.950 -1.3398  0.5600  0.9946
  148SAPE   HN216268   6.674   5.166   5.944 -0.6973 -0.1894 -1.0182
  148SAPE   HN316269   6.508   5.159   5.934 -0.2866  1.0784 -0.3574
  148SAPE   C1216270   6.569   5.196   6.137 -0.3430 -0.0975 -0.1778
  148SAPE  H12A16271   6.593   5.091   6.165 -1.5821  0.2112  2.3174
  148SAPE  H12B16272   6.463   5.221   6.159 -0.1046  0.5941  0.2358
  148SAPE   C1116273   6.658   5.305   6.205 -0.4241  0.3747 -0.1833
  148SAPE  H11A16274   6.627   5.322   6.311 -0.2860 -0.9831  0.0937
  148SAPE  H11B16275   6.637   5.407   6.167 -1.4820 -0.8527 -3.1975
  148SAPE     P16276   6.864   5.145   6.222 -0.0690 -0.0501  0.4695
  148SAPE   O1316277   6.829   5.031   6.130  0.3012 -0.2888  0.0787
  148SAPE   O1416278   7.009   5.172   6.233 -0.4013  0.4777  0.1266
  148SAPE   O1216279   6.797   5.279   6.186 -0.0469 -0.2652  0.4538
  148SAPE   O1116280   6.817   5.099   6.367 -0.1426 -0.1106  0.2002
  148SAPE    C116281   6.779   4.963   6.408  0.2866 -0.2340 -0.3067
  148SAPE    HA16282   6.681   4.933   6.363 -0.2154 -1.1592  1.3208
  148SAPE    HB16283   6.844   4.882   6.367 -3.4002 -3.9414  0.4456
  148SAPE    C216284   6.756   4.943   6.561  0.8728 -0.3443  0.0281
  148SAPE    HS16285   6.717   4.839   6.572  1.2242 -0.4083  0.6875
  148SAPE   O2116286   6.658   5.038   6.617  0.0794  0.2838 -0.1350
  148SAPE   C2116287   6.529   5.022   6.581  0.1154  0.8964 -0.4017
  148SAPE   O2216288   6.487   4.927   6.515  0.5082  0.3601 -0.1715
  148SAPE   C2216289   6.444   5.147   6.626  0.1267  0.6255 -0.1706
  148SAPE   H2R16290   6.488   5.196   6.715  0.1745 -0.6964  0.5495
  148SAPE   H2S16291   6.462   5.224   6.548 -0.9296  1.5944  0.5161
  148SAPE    C316292   6.882   4.953   6.653  0.5578 -0.4417 -0.5513
  148SAPE    HX16293   6.918   5.058   6.649 -2.2485  0.5900 -0.9644
  148SAPE    HY16294   6.962   4.892   6.605  0.5159 -1.1352  0.2534
  148SAPE   O3116295   6.859   4.909   6.789 -0.4244 -0.4219  0.7273
  148SAPE   C3116296   6.831   5.001   6.880  0.3963 -0.2510 -0.4679
  148SAPE   O3216297   6.827   5.121   6.868 -0.3154  0.2457 -0.2431
  148SAPE   C3216298   6.820   4.931   7.012  0.5038  0.9697  0.2606
  148SAPE   H2X16299   6.912   4.957   7.068  0.2520  0.7502  0.7866
  148SAPE   H2Y16300   6.813   4.822   6.991  1.1867  0.8119  0.8182
  148SAPE   C2316301   6.293   5.112   6.658  0.0481 -0.5808 -0.4801
  148SAPE   H3R16302   6.256   5.022   6.605  1.1380 -1.1043 -0.3891
  148SAPE   H3S16303   6.245   5.202   6.614 -0.1509 -0.8749 -0.8673
  148SAPE   C2416304   6.266   5.126   6.810  0.1390 -0.0691  0.2342
  148SAPE   H4R16305   6.283   5.231   6.841  0.0061  0.3839 -1.1253
  148SAPE   H4S16306   6.342   5.063   6.861  0.3305  0.3914  0.5203
  148SAPE   C2516307   6.120   5.093   6.837 -0.3141  0.0751  1.0289
  148SAPE   H5R16308   6.065   5.088   6.743  1.7365 -0.3260 -0.2215
  148SAPE   C2616309   6.062   5.071   6.954  0.1009 -0.1048  0.3446
  148SAPE   H6R16310   5.952   5.061   6.950 -0.4544  4.3971 -0.4634
  148SAPE   C2716311   6.125   5.070   7.091  0.2775 -0.1448 -0.2544
  148SAPE   H7R16312   6.061   5.125   7.163  0.8625  0.1306  0.0586
  148SAPE   H7S16313   6.218   5.131   7.097  0.0998  0.0866  0.2586
  148SAPE   C2816314   6.153   4.927   7.136 -0.5518  0.5913 -0.6004
  148SAPE   H8R16315   6.157   4.849   7.059  0.3754  2.3743 -2.4434
  148SAPE   C2916316   6.185   4.890   7.266  0.3390  0.2117  0.1594
  148SAPE   H9R16317   6.205   4.783   7.280  1.0017  0.0542 -1.6583
  148SAPE  C21016318   6.185   4.985   7.384  0.4255 -0.9239  0.1678
  148SAPE  H10R16319   6.244   5.076   7.360 -2.2655  1.1827  1.0064
  148SAPE  H10S16320   6.235   4.931   7.467 -0.0723  0.2696  1.2720
  148SAPE  C21116321   6.050   5.043   7.424  0.0391 -0.2411 -0.4127
  148SAPE  H11R16322   5.974   5.061   7.347 -3.3237 -4.4343  1.4788
  148SAPE  C21216323   6.012   5.045   7.558 -0.0799 -0.0216 -0.1739
  148SAPE  H12R16324   5.914   5.088   7.584 -0.1514  0.9366 -1.9163
  148SAPE  C21316325   6.098   5.013   7.678  0.2617 -0.5463  0.5838
  148SAPE  H13R16326   6.183   5.085   7.675  0.3113 -0.6089  0.4703
  148SAPE  H13S16327   6.153   4.917   7.673 -0.5572 -1.1902  2.9527
  148SAPE  C21416328   6.035   5.035   7.813  0.2696 -0.6271  0.6134
  148SAPE  H14R16329   5.979   4.946   7.845 -0.4661 -0.5857 -0.5213
  148SAPE  C21516330   6.050   5.139   7.897 -0.2549 -0.5359 -0.2506
  148SAPE  H15R16331   6.000   5.136   7.995  2.7170 -0.5306  1.3538
  148SAPE  C21616332   6.147   5.248   7.871  0.3343 -0.2107  0.4852
  148SAPE  H16R16333   6.116   5.292   7.775 -0.9728  0.4509  1.1809
  148SAPE  H16S16334   6.254   5.218   7.871  1.3776  2.7336  4.0826
  148SAPE  C21716335   6.142   5.348   7.990  0.8409 -0.5168  0.0970
  148SAPE  H17R16336   6.162   5.296   8.086 -2.7449  0.4348  1.5034
  148SAPE  H17S16337   6.044   5.400   7.991  0.6598 -0.8518  0.0685
  148SAPE  C21816338   6.267   5.449   7.985  0.2203  0.3924 -0.0778
  148SAPE  H18R16339   6.257   5.499   7.886  0.0311 -1.7678 -1.2182
  148SAPE  H18S16340   6.348   5.381   7.951  1.6119  2.4953 -1.1752
  148SAPE  C21916341   6.306   5.540   8.100  0.0362 -0.7003  0.3779
  148SAPE  H19R16342   6.327   5.479   8.191  2.1109  0.0919  0.4824
  148SAPE  H19S16343   6.225   5.613   8.126 -0.1212 -0.6912 -0.1345
  148SAPE  C22016344   6.425   5.622   8.058 -0.2561 -0.1994  0.2486
  148SAPE  H20R16345   6.468   5.687   8.138  0.6483  1.2883 -1.3566
  148SAPE  H20S16346   6.407   5.678   7.964  3.8809  0.9148 -0.0953
  148SAPE  H20T16347   6.511   5.554   8.038 -0.3839  0.0343 -1.1945
  148SAPE   C3316348   6.685   4.977   7.094  0.2996  0.8451  0.3553
  148SAPE   H3X16349   6.603   4.957   7.022  1.4593 -2.2049 -0.2443
  148SAPE   H3Y16350   6.691   5.085   7.121  1.1619  0.7920  0.4095
  148SAPE   C3416351   6.668   4.900   7.222  0.9825  0.0285  1.2016
  148SAPE   H4X16352   6.681   4.790   7.215  0.4295 -0.0770  1.6954
  148SAPE   H4Y16353   6.559   4.916   7.240  1.1997  2.0903  0.9748
  148SAPE   C3516354   6.737   4.960   7.346  0.1202 -0.2764  0.4005
  148SAPE   H5X16355   6.730   5.070   7.338  1.2029 -0.0745  1.8895
  148SAPE   H5Y16356   6.844   4.931   7.338 -0.1281 -0.8846 -1.1483
  148SAPE   C3616357   6.680   4.917   7.482  0.5053  0.6302 -0.4342
  148SAPE   H6X16358   6.743   4.953   7.566 -0.1967  1.3435 -0.1983
  148SAPE   H6Y16359   6.674   4.806   7.485 -0.6559  0.7024  0.2883
  148SAPE   C3716360   6.540   4.987   7.512  0.6756  0.2482 -0.6583
  148SAPE   H7X16361   6.460   4.965   7.439 -1.0967 -1.5384  1.6944
  148SAPE   H7Y16362   6.559   5.096   7.521  3.6386 -0.0947 -1.7196
  148SAPE   C3816363   6.492   4.939   7.652  0.5483  0.4032 -0.1770
  148SAPE   H8X16364   6.491   4.828   7.657 -0.5333  0.4463  3.1590
  148SAPE   H8Y16365   6.382   4.955   7.654  0.6406  1.4614 -1.8154
  148SAPE   C3916366   6.548   5.005   7.786 -0.0400 -1.3234  0.7983
  148SAPE   H9X16367   6.535   5.113   7.767  1.1439 -1.3119 -0.0222
  148SAPE   H9Y16368   6.658   4.989   7.787  0.2346  0.3930  0.1025
  148SAPE  C31016369   6.467   4.974   7.914 -0.7219 -0.2565 -0.3030
  148SAPE  H10X16370   6.462   4.864   7.925 -2.0387 -0.2323 -0.5078
  148SAPE  H10Y16371   6.361   4.997   7.891 -0.2809  0.7549 -1.4220
  148SAPE  C31116372   6.516   5.047   8.037 -0.3943  0.1116  0.3474
  148SAPE  H11X16373   6.517   5.157   8.019 -1.6431  0.8803  4.0768
  148SAPE  H11Y16374   6.622   5.027   8.063 -0.1737  0.3364 -0.3659
  148SAPE  C31216375   6.422   5.036   8.158 -0.3005 -0.0590 -0.5521
  148SAPE  H12X16376   6.432   4.943   8.219  1.5373  1.8153  2.2170
  148SAPE  H12Y16377   6.321   5.032   8.111 -0.2806  1.1016 -0.7177
  148SAPE  C31316378   6.430   5.151   8.257 -0.4726  0.1300 -0.2540
  148SAPE  H13X16379   6.354   5.135   8.336  0.0977 -0.0981  0.2536
  148SAPE  H13Y16380   6.402   5.247   8.209 -1.6195 -0.6931 -1.3143
  148SAPE  C31416381   6.564   5.159   8.327  0.3610 -0.3645 -0.1239
  148SAPE  H14X16382   6.638   5.202   8.256 -0.3915 -0.7141 -1.1530
  148SAPE  H14Y16383   6.595   5.052   8.333 -3.7402 -1.7678 -0.8831
  148SAPE  C31516384   6.577   5.232   8.460 -0.0200 -0.1095  0.1989
  148SAPE  H15X16385   6.549   5.338   8.440  0.6001 -0.2934 -1.7955
  148SAPE  H15Y16386   6.680   5.244   8.499 -0.2552  1.7583  0.3671
  148SAPE  C31616387   6.484   5.191   8.577 -0.3147  0.7736 -0.7073
  148SAPE  H16X16388   6.521   5.095   8.618 -0.4117  0.0566 -2.2380
  148SAPE  H16Y16389   6.383   5.167   8.539  0.4528 -3.1249 -0.6850
  148SAPE  C31716390   6.473   5.280   8.697 -0.0973 -0.1623 -0.3042
  148SAPE  H17X16391   6.393   5.241   8.762 -0.0594 -0.0987 -0.2185
  148SAPE  H17Y16392   6.431   5.377   8.661 -0.2381 -0.2502 -0.3765
  148SAPE  C31816393   6.593   5.310   8.784  0.2264 -0.0422 -0.3483
  148SAPE  H18X16394   6.568   5.392   8.855  0.0975 -0.0474 -0.3890
  148SAPE  H18Y16395   6.680   5.344   8.724  0.0105 -0.9872 -1.2310
  148SAPE  H18Z16396   6.617   5.212   8.832 -0.3967 -0.4807 -0.9131
  149SAPE     N16397   1.638   5.531   6.297  0.0836  0.2711  0.1405
  149SAPE   HN116398   1.598   5.435   6.303 -0.8984  0.6662  0.0899
  149SAPE   HN216399   1.622   5.559   6.198 -6.3332  0.2843  0.7692
  149SAPE   HN316400   1.740   5.532   6.314  0.0375 -2.0286  0.9404
  149SAPE   C1216401   1.580   5.624   6.391 -0.5759 -0.0380  0.1455
  149SAPE  H12A16402   1.636   5.719   6.394  2.9216 -1.9515  2.2597
  149SAPE  H12B16403   1.602   5.575   6.488 -0.2103  3.2442  1.8236
  149SAPE   C1116404   1.428   5.634   6.378 -0.5863 -0.0707 -0.1831
  149SAPE  H11A16405   1.393   5.715   6.445 -1.5020  0.2813 -1.0656
  149SAPE  H11B16406   1.377   5.538   6.402 -1.8462  0.1761 -1.7023
  149SAPE     P16407   1.400   5.818   6.200  0.0970 -0.6801 -0.0327
  149SAPE   O1316408   1.516   5.821   6.110 -1.2722 -0.2244 -0.2492
  149SAPE   O1416409   1.268   5.850   6.137 -0.9305  0.3729  0.1035
  149SAPE   O1216410   1.388   5.671   6.248  0.1419 -0.1630  0.7541
  149SAPE   O1116411   1.437   5.916   6.327 -0.1874 -0.3959  0.5902
  149SAPE    C116412   1.542   6.014   6.307 -0.1598  0.9747 -0.3411
  149SAPE    HA16413   1.642   5.971   6.285 -0.8714  0.1034 -2.0510
  149SAPE    HB16414   1.512   6.090   6.233  0.2755  1.9374  0.4498
  149SAPE    C216415   1.574   6.090   6.441 -0.1170 -1.0739  0.2004
  149SAPE    HS16416   1.566   6.012   6.521 -0.7390 -1.4698 -0.2419
  149SAPE   O2116417   1.480   6.196   6.458 -0.6796  0.2928 -0.7643
  149SAPE   C2116418   1.376   6.173   6.537 -0.2891 -0.5628 -0.0917
  149SAPE   O2216419   1.363   6.090   6.627 -0.1117 -0.0045  0.2689
  149SAPE   C2216420   1.256   6.250   6.486 -0.3424 -0.4467  0.5695
  149SAPE   H2R16421   1.246   6.219   6.379  0.4452 -1.4280  0.7594
  149SAPE   H2S16422   1.165   6.219   6.540 -1.1578 -0.3365 -0.7026
  149SAPE    C316423   1.716   6.151   6.460 -0.3621  0.1029 -0.1158
  149SAPE    HX16424   1.738   6.229   6.384  0.2167  0.2274  0.1711
  149SAPE    HY16425   1.795   6.078   6.431  0.7016  0.4923  1.6566
  149SAPE   O3116426   1.737   6.185   6.607 -0.2619  0.3325  0.0236
  149SAPE   C3116427   1.729   6.326   6.616  0.4069  0.7559 -0.0191
  149SAPE   O3216428   1.699   6.403   6.529 -0.5700 -0.3759 -0.7786
  149SAPE   C3216429   1.760   6.368   6.759  0.2432 -0.2302  0.0587
  149SAPE   H2X16430   1.867   6.351   6.787 -0.0109 -0.6154  0.8520
  149SAPE   H2Y16431   1.711   6.294   6.826  0.0497  0.5456  0.7953
  149SAPE   C2316432   1.282   6.405   6.492  0.2910 -0.1994  0.5884
  149SAPE   H3R16433   1.228   6.438   6.401  0.3820  0.5571  0.8021
  149SAPE   H3S16434   1.388   6.433   6.473 -0.1161  1.6284  0.8612
  149SAPE   C2416435   1.224   6.471   6.618 -0.0370 -0.4475 -0.5091
  149SAPE   H4R16436   1.142   6.405   6.655  2.1329 -3.0735 -0.0645
  149SAPE   H4S16437   1.200   6.571   6.578  0.8280  0.2793  0.7349
  149SAPE   C2516438   1.331   6.492   6.721  0.0909 -0.2787 -0.9169
  149SAPE   H5R16439   1.405   6.568   6.692  0.9865 -1.1457 -0.9557
  149SAPE   C2616440   1.357   6.425   6.836  0.1392 -0.8824  0.5336
  149SAPE   H6R16441   1.435   6.474   6.896  0.6782  1.2133 -1.7292
  149SAPE   C2716442   1.288   6.306   6.898  0.2219  0.0904 -0.6162
  149SAPE   H7R16443   1.226   6.258   6.819  0.0418  1.7287 -1.5382
  149SAPE   H7S16444   1.221   6.344   6.978  1.0202  0.8850 -0.3095
  149SAPE   C2816445   1.404   6.219   6.949  1.0025 -0.1037  0.1561
  149SAPE   H8R16446   1.461   6.166   6.871  0.2153 -1.9854  0.8104
  149SAPE   C2916447   1.456   6.220   7.073  0.1510  0.1429  0.0788
  149SAPE   H9R16448   1.540   6.157   7.105 -2.7038 -1.6644  5.1283
  149SAPE  C21016449   1.400   6.310   7.186 -0.4861 -0.6378  0.4016
  149SAPE  H10R16450   1.323   6.377   7.143  0.6120  1.2008  1.1913
  149SAPE  H10S16451   1.486   6.376   7.212 -1.0132  0.5513 -0.7747
  149SAPE  C21116452   1.362   6.218   7.297  0.4771 -0.0391  0.6035
  149SAPE  H11R16453   1.298   6.136   7.259  0.8391 -0.2480  0.4424
  149SAPE  C21216454   1.397   6.215   7.431  0.5287 -0.6122  0.4217
  149SAPE  H12R16455   1.348   6.135   7.490 -0.3491 -0.1854  0.2765
  149SAPE  C21316456   1.491   6.318   7.499 -0.1481  0.0875  0.8020
  149SAPE  H13R16457   1.498   6.302   7.609  1.4398  0.3885  0.7665
  149SAPE  H13S16458   1.442   6.415   7.480 -0.6003 -0.0681  1.1424
  149SAPE  C21416459   1.633   6.323   7.448 -0.6004  0.2355  0.1067
  149SAPE  H14R16460   1.658   6.245   7.375  0.4534 -0.9855  1.7063
  149SAPE  C21516461   1.737   6.391   7.512 -0.2080 -0.4784  0.5794
  149SAPE  H15R16462   1.827   6.402   7.449  0.3396  0.3555  1.4891
  149SAPE  C21616463   1.715   6.478   7.627 -0.7003 -0.9226 -0.3874
  149SAPE  H16R16464   1.610   6.516   7.631 -1.0753 -1.5585 -2.6667
  149SAPE  H16S16465   1.778   6.569   7.633 -1.6756 -0.1692 -1.1412
  149SAPE  C21716466   1.742   6.408   7.756  0.1497 -0.3297  0.5077
  149SAPE  H17R16467   1.843   6.364   7.765  0.1407 -0.5801 -0.4438
  149SAPE  H17S16468   1.682   6.314   7.747  1.1417 -0.8521 -1.1498
  149SAPE  C21816469   1.718   6.488   7.882 -0.6576  1.0909  0.3852
  149SAPE  H18R16470   1.612   6.520   7.894  0.3188  4.0106  2.4671
  149SAPE  H18S16471   1.783   6.578   7.883  0.1643  0.6018 -2.2094
  149SAPE  C21916472   1.758   6.400   8.005  0.3933 -0.1981  0.0976
  149SAPE  H19R16473   1.864   6.368   8.002  0.2028 -0.7789 -1.2564
  149SAPE  H19S16474   1.694   6.310   8.018  0.1538 -0.1182 -0.5039
  149SAPE  C22016475   1.739   6.488   8.128  0.1418 -0.4288  0.3890
  149SAPE  H20R16476   1.631   6.505   8.143  0.2090  1.3704 -0.8380
  149SAPE  H20S16477   1.786   6.588   8.111 -0.5214  0.1021  1.5377
  149SAPE  H20T16478   1.787   6.449   8.220 -2.0507  0.1804  1.8655
  149SAPE   C3316479   1.706   6.508   6.789 -0.0611  0.2202  0.0404
  149SAPE   H3X16480   1.605   6.526   6.746  0.4676 -0.7129 -1.6627
  149SAPE   H3Y16481   1.774   6.586   6.748 -0.2422  0.4726  0.2114
  149SAPE   C3416482   1.687   6.551   6.935 -0.8228  0.4821  1.0671
  149SAPE   H4X16483   1.627   6.470   6.982 -2.3187  1.6358  1.2223
  149SAPE   H4Y16484   1.629   6.642   6.961 -0.3566  0.3014  2.8626
  149SAPE   C3516485   1.818   6.581   7.002  0.0232  0.0586 -0.2050
  149SAPE   H5X16486   1.861   6.673   6.957 -1.9194  0.6407 -1.0010
  149SAPE   H5Y16487   1.891   6.497   7.002  0.6293  0.4829 -3.4796
  149SAPE   C3616488   1.796   6.613   7.145  0.6752  0.3317 -0.2213
  149SAPE   H6X16489   1.734   6.536   7.196  0.2981  0.8488  0.1010
  149SAPE   H6Y16490   1.732   6.703   7.149  0.7023  0.4000 -1.0609
  149SAPE   C3716491   1.924   6.640   7.233  0.5790 -0.0975  0.0028
  149SAPE   H7X16492   1.901   6.698   7.325  1.6948  1.6367 -0.7691
  149SAPE   H7Y16493   1.976   6.712   7.167 -1.2652  0.2126 -1.1714
  149SAPE   C3816494   2.006   6.509   7.252 -0.1053  0.5749  0.1422
  149SAPE   H8X16495   2.045   6.467   7.158 -4.0992 -2.2288 -0.5267
  149SAPE   H8Y16496   1.944   6.427   7.294  2.6464 -2.1488 -0.7894
  149SAPE   C3916497   2.117   6.528   7.361 -0.4436 -0.2791 -0.0918
  149SAPE   H9X16498   2.180   6.614   7.329 -1.3843  0.7368  0.7045
  149SAPE   H9Y16499   2.175   6.433   7.364 -1.4353 -0.9236 -0.6031
  149SAPE  C31016500   2.073   6.545   7.505 -0.2074  0.3493 -0.7003
  149SAPE  H10X16501   1.993   6.472   7.529 -1.2653  1.4928 -0.6953
  149SAPE  H10Y16502   2.025   6.643   7.522 -0.2783  0.2492 -0.3107
  149SAPE  C31116503   2.186   6.519   7.611 -0.7627  0.2478 -0.4485
  149SAPE  H11X16504   2.272   6.588   7.597 -1.0336  0.6003 -0.3818
  149SAPE  H11Y16505   2.221   6.415   7.595  0.0441  0.5913 -1.0083
  149SAPE  C31216506   2.135   6.534   7.760 -0.1328 -0.4546  0.7590
  149SAPE  H12X16507   2.069   6.447   7.777  1.8197 -1.9207  1.2159
  149SAPE  H12Y16508   2.090   6.633   7.781 -1.6698 -1.0921  0.5935
  149SAPE  C31316509   2.253   6.507   7.858 -0.3168 -0.0518  0.0856
  149SAPE  H13X16510   2.334   6.574   7.823 -0.0472 -0.2641  0.2995
  149SAPE  H13Y16511   2.296   6.405   7.845  1.1864  0.7398 -1.5628
  149SAPE  C31416512   2.198   6.527   8.001 -0.2619 -0.0138 -0.2089
  149SAPE  H14X16513   2.129   6.441   8.018 -1.4244  0.5483 -1.8887
  149SAPE  H14Y16514   2.133   6.616   8.006  0.5244  0.6095 -0.8949
  149SAPE  C31516515   2.304   6.509   8.111 -0.3506  0.3335  0.3866
  149SAPE  H15X16516   2.392   6.576   8.097 -0.2616 -0.1360 -1.6148
  149SAPE  H15Y16517   2.349   6.407   8.106 -0.4275  0.3324 -0.4922
  149SAPE  C31616518   2.250   6.524   8.258 -0.3222  0.1115 -0.2350
  149SAPE  H16X16519   2.224   6.628   8.287  1.5862  0.2354  1.2015
  149SAPE  H16Y16520   2.335   6.510   8.328 -0.3756  0.2250 -0.1470
  149SAPE  C31716521   2.138   6.431   8.301 -0.0111 -0.2869 -0.6833
  149SAPE  H17X16522   2.179   6.328   8.297 -2.0315 -1.2453  0.9516
  149SAPE  H17Y16523   2.054   6.439   8.229  0.1371  2.2550 -0.6691
  149SAPE  C31816524   2.084   6.471   8.442  0.4534  0.1551  0.6581
  149SAPE  H18X16525   2.165   6.440   8.512  0.0271 -0.5192  0.8659
  149SAPE  H18Y16526   1.993   6.410   8.461  0.4772 -0.4697 -1.0725
  149SAPE  H18Z16527   2.057   6.578   8.437  0.9673  0.2336 -0.9031
  150SAPE     N16528   1.901   1.788   6.372 -0.5671 -0.3049 -0.2861
  150SAPE   HN116529   1.953   1.878   6.374 -0.9108 -0.1092  1.6857
  150SAPE   HN216530   1.944   1.734   6.294  1.5815 -0.0029  0.6054
  150SAPE   HN316531   1.800   1.805   6.354 -0.0575 -0.5079 -4.3321
  150SAPE   C1216532   1.952   1.718   6.493  0.8552  0.1714  0.0777
  150SAPE  H12A16533   1.898   1.622   6.508 -1.0412  1.0146 -1.0095
  150SAPE  H12B16534   1.941   1.787   6.579 -1.3387 -1.2802  1.0371
  150SAPE   C1116535   2.103   1.686   6.475  0.4740  0.3764 -0.4068
  150SAPE  H11A16536   2.125   1.610   6.553  0.1754  0.0609 -0.6209
  150SAPE  H11B16537   2.168   1.775   6.490  2.8924 -0.6077 -3.8965
  150SAPE     P16538   2.120   1.472   6.321  0.1823 -0.2847 -0.6417
  150SAPE   O1316539   2.001   1.450   6.238  0.0819  0.1892 -0.0084
  150SAPE   O1416540   2.246   1.417   6.267  0.5789  0.9152 -0.1447
  150SAPE   O1216541   2.128   1.633   6.350 -0.8334  0.3340  0.3168
  150SAPE   O1116542   2.085   1.398   6.449 -0.4989 -0.5453  0.1533
  150SAPE    C116543   2.115   1.259   6.457  0.5466  0.4501 -0.0167
  150SAPE    HA16544   2.048   1.199   6.393  0.8238 -1.3553  1.3152
  150SAPE    HB16545   2.222   1.240   6.434  0.4799  0.1099 -0.0396
  150SAPE    C216546   2.086   1.206   6.604  0.8980  0.8329  0.5237
  150SAPE    HS16547   1.981   1.171   6.620  1.8374 -3.1328 -0.8651
  150SAPE   O2116548   2.140   1.288   6.707 -0.2765  0.3295  0.0062
  150SAPE   C2116549   2.065   1.392   6.739 -0.4092 -0.0825 -0.4661
  150SAPE   O2216550   1.957   1.418   6.696 -0.1324  0.2771  0.1699
  150SAPE   C2216551   2.128   1.469   6.849 -0.6026  0.1980 -0.2869
  150SAPE   H2R16552   2.187   1.557   6.815 -0.5296  0.4571  0.4799
  150SAPE   H2S16553   2.045   1.512   6.910  0.1227  0.0201  0.8527
  150SAPE    C316554   2.150   1.062   6.615  0.4297 -0.9641 -0.3725
  150SAPE    HX16555   2.113   1.009   6.525 -0.6995  0.0752 -0.5381
  150SAPE    HY16556   2.118   1.019   6.712  0.2325  0.4837  0.2376
  150SAPE   O3116557   2.298   1.076   6.611  0.8753  0.1622  0.0990
  150SAPE   C3116558   2.356   1.082   6.727  0.5654  0.5585 -0.0368
  150SAPE   O3216559   2.300   1.074   6.837 -0.0252 -0.3137  0.3397
  150SAPE   C3216560   2.502   1.117   6.703  0.3269 -0.0691  0.4603
  150SAPE   H2X16561   2.511   1.218   6.658 -0.4653 -0.3750 -0.4258
  150SAPE   H2Y16562   2.542   1.047   6.626 -1.5801 -0.3202 -0.3486
  150SAPE   C2316563   2.219   1.383   6.944 -0.8275 -0.0708  0.4166
  150SAPE   H3R16564   2.278   1.466   6.990 -2.6072  2.1816 -1.1143
  150SAPE   H3S16565   2.301   1.328   6.893 -1.0211  0.5811 -0.6209
  150SAPE   C2416566   2.154   1.312   7.061 -0.1011 -0.7769  0.7148
  150SAPE   H4R16567   2.099   1.386   7.123 -0.2685 -0.1093 -0.2083
  150SAPE   H4S16568   2.227   1.261   7.129  2.3266 -1.8581 -2.4646
  150SAPE   C2516569   2.072   1.199   7.006  0.3987  0.5124 -0.0018
  150SAPE   H5R16570   2.092   1.169   6.902 -1.7812 -0.6716 -0.1404
  150SAPE   C2616571   1.964   1.148   7.067  0.2950 -0.1618 -0.1245
  150SAPE   H6R16572   1.899   1.079   7.011 -0.4206  0.2091  0.2355
  150SAPE   C2716573   1.900   1.182   7.196 -0.3348 -0.5783 -0.1193
  150SAPE   H7R16574   1.794   1.200   7.167  0.3922  0.9690 -2.0962
  150SAPE   H7S16575   1.943   1.277   7.236  2.9334 -1.4931 -1.1323
  150SAPE   C2816576   1.915   1.090   7.313 -0.5600  0.0856  0.0704
  150SAPE   H8R16577   1.991   1.013   7.294  0.3418  1.3272 -1.6694
  150SAPE   C2916578   1.843   1.093   7.422 -0.4222  0.2642  0.6731
  150SAPE   H9R16579   1.852   1.014   7.498 -2.5081 -1.3998 -0.6858
  150SAPE  C21016580   1.727   1.188   7.448 -0.7362  0.6636  0.5807
  150SAPE  H10R16581   1.635   1.131   7.474 -0.3781  1.1306  3.0913
  150SAPE  H10S16582   1.697   1.242   7.355 -2.8511  1.4258  1.6304
  150SAPE  C21116583   1.761   1.283   7.563  0.2416 -0.0764  0.2187
  150SAPE  H11R16584   1.813   1.374   7.529  1.0807 -0.9511 -0.9011
  150SAPE  C21216585   1.740   1.258   7.695  0.6070 -0.3419  0.2248
  150SAPE  H12R16586   1.761   1.336   7.770  0.8947  0.4466 -0.6506
  150SAPE  C21316587   1.678   1.136   7.744 -0.0141 -0.0755  0.2745
  150SAPE  H13R16588   1.606   1.095   7.669  0.6035  1.0812 -0.9960
  150SAPE  H13S16589   1.613   1.156   7.832 -0.8446  0.4035 -0.4339
  150SAPE  C21416590   1.780   1.030   7.790  0.1032 -0.1140  0.4319
  150SAPE  H14R16591   1.887   1.055   7.788  0.8128 -2.7985  0.7784
  150SAPE  C21516592   1.741   0.913   7.848 -0.0950 -0.3426  0.1896
  150SAPE  H15R16593   1.819   0.847   7.889  2.9025  2.4025 -0.7343
  150SAPE  C21616594   1.608   0.860   7.879  0.1136 -0.9665  0.1071
  150SAPE  H16R16595   1.604   0.758   7.838 -2.6991 -1.6106  1.7049
  150SAPE  H16S16596   1.535   0.929   7.831  2.8667  1.8330 -0.4607
  150SAPE  C21716597   1.563   0.844   8.025 -0.1881  0.8066 -0.0185
  150SAPE  H17R16598   1.638   0.799   8.093  0.6913  1.5909 -0.4357
  150SAPE  H17S16599   1.473   0.779   8.028 -0.1526  0.6005 -1.8883
  150SAPE  C21816600   1.515   0.974   8.080 -1.2785 -0.1908 -0.1933
  150SAPE  H18R16601   1.455   1.025   8.002  1.2309  1.7335 -0.9872
  150SAPE  H18S16602   1.596   1.043   8.111 -0.9005  0.5809 -2.7001
  150SAPE  C21916603   1.422   0.952   8.198  0.1861  0.3377  0.3357
  150SAPE  H19R16604   1.465   0.880   8.272  1.8637  0.2070 -0.7086
  150SAPE  H19S16605   1.333   0.899   8.160  0.6790 -2.4260  2.6547
  150SAPE  C22016606   1.381   1.082   8.270  0.3973 -0.4424  0.0539
  150SAPE  H20R16607   1.289   1.126   8.225  1.7562  1.8431 -0.6493
  150SAPE  H20S16608   1.466   1.153   8.266 -0.0552  0.1074  0.0699
  150SAPE  H20T16609   1.350   1.056   8.374 -0.4534 -1.9676 -0.5533
  150SAPE   C3316610   2.584   1.131   6.836 -0.3663 -0.5668  0.4004
  150SAPE   H3X16611   2.530   1.198   6.906  0.2153  0.3676 -0.0258
  150SAPE   H3Y16612   2.679   1.183   6.810  0.1697 -1.4824  0.4763
  150SAPE   C3416613   2.628   0.999   6.899 -0.1316 -0.1640  0.2488
  150SAPE   H4X16614   2.610   0.923   6.820  0.8294  2.1676 -2.3829
  150SAPE   H4Y16615   2.556   0.983   6.981 -0.2612  1.4984  0.4891
  150SAPE   C3516616   2.769   0.993   6.952 -0.1939 -0.4936 -0.1403
  150SAPE   H5X16617   2.819   1.089   6.926 -2.0372  0.2372 -1.1634
  150SAPE   H5Y16618   2.826   0.907   6.909 -1.5591 -2.2289  1.3592
  150SAPE   C3616619   2.755   0.968   7.103  0.2713  0.6966  0.1839
  150SAPE   H6X16620   2.701   0.873   7.123 -0.7822  1.4119  0.9189
  150SAPE   H6Y16621   2.683   1.042   7.146 -0.7340 -0.4874  0.5801
  150SAPE   C3716622   2.894   0.966   7.174 -0.1702  0.6454  0.2195
  150SAPE   H7X16623   2.959   1.056   7.178  1.2201 -0.3597  1.8333
  150SAPE   H7Y16624   2.947   0.892   7.110  0.5880  3.2834 -2.4541
  150SAPE   C3816625   2.885   0.908   7.316  0.2221 -0.5103 -0.3729
  150SAPE   H8X16626   2.988   0.896   7.357 -0.5053 -2.1028  1.1314
  150SAPE   H8Y16627   2.832   0.810   7.318  1.2896 -1.1225  1.7230
  150SAPE   C3916628   2.813   0.993   7.423 -0.2390  0.0617  0.9275
  150SAPE   H9X16629   2.715   1.019   7.377  1.6482  3.0237 -1.8166
  150SAPE   H9Y16630   2.877   1.083   7.436 -2.4053  1.3946  3.3610
  150SAPE  C31016631   2.820   0.920   7.561 -0.0612  0.3576  0.3060
  150SAPE  H10X16632   2.928   0.925   7.585 -0.1831  2.0938  0.6214
  150SAPE  H10Y16633   2.778   0.817   7.552 -0.7712  0.6515  0.1905
  150SAPE  C31116634   2.747   1.001   7.665 -0.9151 -0.6865 -0.3250
  150SAPE  H11X16635   2.758   1.111   7.656 -1.8500 -0.4055  1.5723
  150SAPE  H11Y16636   2.785   0.988   7.768 -2.4735  0.9360  0.5104
  150SAPE  C31216637   2.598   0.972   7.674 -0.6198 -0.6860  0.0833
  150SAPE  H12X16638   2.577   0.863   7.675 -0.8499 -0.7398 -2.3511
  150SAPE  H12Y16639   2.552   1.013   7.581  0.1640  0.0163 -0.0038
  150SAPE  C31316640   2.529   1.033   7.799  0.1184 -1.0383  0.4434
  150SAPE  H13X16641   2.564   1.138   7.809  0.0818 -0.8565 -1.0693
  150SAPE  H13Y16642   2.568   0.971   7.882  1.4311 -0.4543  0.2810
  150SAPE  C31416643   2.369   1.038   7.795  1.1193  0.1076  0.4601
  150SAPE  H14X16644   2.333   0.938   7.765  1.2870  0.6985 -1.8954
  150SAPE  H14Y16645   2.326   1.103   7.716  0.1410 -2.3776 -1.1583
  150SAPE  C31516646   2.317   1.069   7.933  0.4168  0.4177  0.1705
  150SAPE  H15X16647   2.354   1.163   7.979 -1.1103  1.0734  0.1231
  150SAPE  H15Y16648   2.353   0.997   8.010 -0.5138 -1.4381 -1.0471
  150SAPE  C31616649   2.158   1.083   7.934  0.3758  0.2519  0.5309
  150SAPE  H16X16650   2.112   0.982   7.924 -0.2051  0.3994  1.5586
  150SAPE  H16Y16651   2.120   1.146   7.851 -1.0499  0.8803  1.6150
  150SAPE  C31716652   2.104   1.155   8.057  0.3058  0.2094  0.2770
  150SAPE  H17X16653   2.186   1.225   8.086  0.1181 -0.1048  1.6228
  150SAPE  H17Y16654   2.092   1.080   8.138  0.8743 -2.7507 -2.1690
  150SAPE  C31816655   1.973   1.232   8.030 -0.3388 -0.6385 -0.1557
  150SAPE  H18X16656   1.891   1.168   7.992  0.3310 -1.2591 -0.5767
  150SAPE  H18Y16657   1.978   1.326   7.970 -0.5621  0.4422  1.4341
  150SAPE  H18Z16658   1.937   1.262   8.131  1.1026 -0.2789  0.2697
  151SAPE     N16659   2.445   1.267   6.192 -0.7961 -0.3936 -0.6263
  151SAPE   HN116660   2.426   1.195   6.119 -1.1011  0.8252 -1.7894
  151SAPE   HN216661   2.362   1.324   6.217  0.0844  1.5632 -1.9163
  151SAPE   HN316662   2.515   1.338   6.163  0.1180 -0.2985  1.6095
  151SAPE   C1216663   2.488   1.192   6.316  0.0323 -0.3073  0.2238
  151SAPE  H12A16664   2.456   1.255   6.402  3.1004  0.6326  0.8079
  151SAPE  H12B16665   2.599   1.189   6.313  0.1002 -0.0635  1.5611
  151SAPE   C1116666   2.417   1.054   6.321  0.3467  0.4846  0.1246
  151SAPE  H11A16667   2.311   1.074   6.346  0.5162  0.5242  0.8375
  151SAPE  H11B16668   2.460   0.998   6.407  2.1446 -1.4763 -1.9052
  151SAPE     P16669   2.491   0.845   6.176 -0.1919  0.1660  0.0153
  151SAPE   O1316670   2.428   0.790   6.057  0.8539 -0.2136  1.0345
  151SAPE   O1416671   2.636   0.855   6.167 -0.2479  0.7157 -0.7685
  151SAPE   O1216672   2.426   0.982   6.197 -0.2009 -0.2566 -0.4202
  151SAPE   O1116673   2.444   0.763   6.305  0.1869  0.5453 -0.2746
  151SAPE    C116674   2.508   0.644   6.354  0.1873 -0.4089 -0.1214
  151SAPE    HA16675   2.449   0.551   6.337  2.0752 -1.9392  1.2349
  151SAPE    HB16676   2.593   0.626   6.285  1.5014  0.7226  1.1671
  151SAPE    C216677   2.544   0.644   6.502 -0.1427  0.3625  0.5939
  151SAPE    HS16678   2.539   0.538   6.535 -1.0979  0.2738  0.2080
  151SAPE   O2116679   2.456   0.725   6.574  0.1692  0.5170  0.1509
  151SAPE   C2116680   2.338   0.664   6.592 -0.3122  0.3561  0.2947
  151SAPE   O2216681   2.310   0.555   6.545 -0.0355  0.7471  0.0991
  151SAPE   C2216682   2.257   0.731   6.705  0.2435 -0.0672  0.0055
  151SAPE   H2R16683   2.330   0.767   6.780  0.6237 -0.7617 -0.0183
  151SAPE   H2S16684   2.193   0.814   6.669 -0.3522  0.0302  1.2477
  151SAPE    C316685   2.684   0.700   6.540 -0.3904 -0.2845  0.1816
  151SAPE    HX16686   2.692   0.726   6.648  5.9180  4.7518 -0.8918
  151SAPE    HY16687   2.704   0.796   6.487  3.4971 -0.5375  0.9440
  151SAPE   O3116688   2.795   0.610   6.505  0.0310  0.1952 -0.6643
  151SAPE   C3116689   2.891   0.621   6.600 -0.5221 -0.4522  0.0250
  151SAPE   O3216690   2.888   0.688   6.702 -0.3763  0.4122  0.1588
  151SAPE   C3216691   3.016   0.542   6.545  0.6416 -0.7518  0.6458
  151SAPE   H2X16692   3.095   0.619   6.531  0.0731  0.0333  1.6601
  151SAPE   H2Y16693   2.989   0.493   6.449 -0.1923  1.3045 -0.2260
  151SAPE   C2316694   2.156   0.634   6.773 -0.7499  0.3163 -0.4181
  151SAPE   H3R16695   2.206   0.553   6.831 -1.6361  1.1257  1.5521
  151SAPE   H3S16696   2.086   0.588   6.699 -0.3528 -1.0853  0.0441
  151SAPE   C2416697   2.066   0.711   6.878 -0.1547  0.2035 -0.2575
  151SAPE   H4R16698   1.987   0.645   6.920 -2.2144  0.8111 -2.9483
  151SAPE   H4S16699   2.010   0.775   6.807  0.5613 -1.1722 -2.1633
  151SAPE   C2516700   2.155   0.781   6.979  0.8334 -0.2046  1.4284
  151SAPE   H5R16701   2.231   0.850   6.941  0.2530 -0.7863 -1.0110
  151SAPE   C2616702   2.152   0.764   7.116 -0.6789 -0.6736  1.1337
  151SAPE   H6R16703   2.213   0.832   7.176 -0.3741  0.3050 -0.2470
  151SAPE   C2716704   2.055   0.666   7.188 -0.0752 -0.8062  0.2788
  151SAPE   H7R16705   2.098   0.635   7.286 -0.7303 -0.0068  0.8332
  151SAPE   H7S16706   2.019   0.583   7.123  0.8796 -0.0214 -1.3078
  151SAPE   C2816707   1.923   0.731   7.216  0.2460 -1.0018 -0.3428
  151SAPE   H8R16708   1.895   0.809   7.144 -0.5771  0.1995  1.2048
  151SAPE   C2916709   1.832   0.712   7.324  0.0671 -1.1447  0.7361
  151SAPE   H9R16710   1.740   0.771   7.311  1.0415  0.3190  0.2967
  151SAPE  C21016711   1.836   0.626   7.442  0.1660 -0.2540  0.3025
  151SAPE  H10R16712   1.934   0.574   7.432 -0.4141 -1.5549  1.1558
  151SAPE  H10S16713   1.766   0.540   7.438 -1.2064  0.8719 -1.6653
  151SAPE  C21116714   1.831   0.687   7.583 -0.9707  0.1001 -0.2695
  151SAPE  H11R16715   1.827   0.797   7.594 -2.7327 -0.0254  0.5761
  151SAPE  C21216716   1.825   0.608   7.693  0.0310 -0.3558 -0.8397
  151SAPE  H12R16717   1.816   0.663   7.788  1.4476 -1.1963 -0.1867
  151SAPE  C21316718   1.823   0.459   7.708 -0.2812  0.7005 -0.5210
  151SAPE  H13R16719   1.804   0.403   7.614  0.3018  1.3355 -1.0338
  151SAPE  H13S16720   1.737   0.437   7.774 -1.2039  1.9089 -1.2556
  151SAPE  C21416721   1.962   0.419   7.761  0.1022  0.7940 -0.4455
  151SAPE  H14R16722   2.038   0.401   7.684 -0.2098 -1.5664 -0.2936
  151SAPE  C21516723   1.995   0.410   7.890  0.0383 -0.2237  0.6784
  151SAPE  H15R16724   2.099   0.383   7.912  0.1606 -0.3093  0.0321
  151SAPE  C21616725   1.897   0.426   8.001 -0.6722  0.6439 -0.0193
  151SAPE  H16R16726   1.839   0.332   8.013  1.8176 -0.7396  2.4676
  151SAPE  H16S16727   1.822   0.507   7.987  0.0543  1.1512 -1.0841
  151SAPE  C21716728   1.983   0.461   8.124 -0.5003  0.2172 -0.7096
  151SAPE  H17R16729   2.060   0.381   8.139 -1.0973 -0.0999  0.8170
  151SAPE  H17S16730   1.919   0.445   8.213 -0.1372  0.2667 -0.4325
  151SAPE  C21816731   2.041   0.608   8.132 -0.0273 -0.2275  0.5523
  151SAPE  H18R16732   1.952   0.673   8.128 -0.8271 -1.3647 -1.5121
  151SAPE  H18S16733   2.096   0.649   8.045 -0.5315 -0.2951  0.2045
  151SAPE  C21916734   2.122   0.631   8.264  0.0600 -0.7552  0.4760
  151SAPE  H19R16735   2.201   0.554   8.269 -1.4628 -2.4719 -0.6820
  151SAPE  H19S16736   2.055   0.605   8.349 -0.2074 -1.5141  0.0427
  151SAPE  C22016737   2.193   0.769   8.284  0.0884  0.4403 -0.2372
  151SAPE  H20R16738   2.250   0.758   8.379 -0.8855  2.4023  0.6390
  151SAPE  H20S16739   2.274   0.777   8.208 -0.3567 -3.4710 -1.3042
  151SAPE  H20T16740   2.119   0.852   8.278 -1.5291 -1.0133 -1.0738
  151SAPE   C3316741   3.064   0.427   6.637 -0.1370  0.2911  0.7099
  151SAPE   H3X16742   3.142   0.369   6.583 -1.5299 -1.5745  0.6285
  151SAPE   H3Y16743   2.979   0.359   6.655  0.5396 -0.6562  0.3925
  151SAPE   C3416744   3.114   0.476   6.772  0.1486  0.2400 -0.1702
  151SAPE   H4X16745   3.030   0.528   6.823  0.3419  0.8296 -0.4407
  151SAPE   H4Y16746   3.199   0.548   6.768  0.6394 -0.2512  1.0107
  151SAPE   C3516747   3.160   0.355   6.856  0.1145  0.0474 -0.7844
  151SAPE   H5X16748   3.254   0.311   6.817 -0.7409 -2.1794 -0.4401
  151SAPE   H5Y16749   3.069   0.291   6.852 -1.0363  1.6639 -2.1368
  151SAPE   C3616750   3.178   0.391   7.003 -0.1973  0.6342  0.7367
  151SAPE   H6X16751   3.260   0.465   7.013  1.7045 -1.3152  0.2875
  151SAPE   H6Y16752   3.222   0.299   7.049 -1.0929  0.2559  0.8656
  151SAPE   C3716753   3.059   0.435   7.088  0.3942 -0.2605  0.3203
  151SAPE   H7X16754   3.005   0.339   7.107  0.0678 -0.0422  0.5010
  151SAPE   H7Y16755   3.001   0.509   7.030 -1.2962 -1.3363  0.5543
  151SAPE   C3816756   3.113   0.493   7.215  1.0928 -0.2951 -0.3389
  151SAPE   H8X16757   3.165   0.584   7.178  0.3561  0.0762 -0.4912
  151SAPE   H8Y16758   3.177   0.423   7.272  0.6216  0.0841  0.6773
  151SAPE   C3916759   2.998   0.546   7.306  0.4767  0.1472 -0.1057
  151SAPE   H9X16760   2.943   0.455   7.341  2.0947 -0.0499  2.1717
  151SAPE   H9Y16761   2.927   0.602   7.241  1.3474  0.3709 -0.8776
  151SAPE  C31016762   3.050   0.638   7.419  0.5159 -0.0719  0.3308
  151SAPE  H10X16763   2.962   0.674   7.477  1.1005 -1.1723  1.9740
  151SAPE  H10Y16764   3.096   0.720   7.360 -1.4335  1.2910  0.6173
  151SAPE  C31116765   3.141   0.558   7.514 -0.6759  0.0035 -0.5377
  151SAPE  H11X16766   3.229   0.516   7.461 -0.7174 -1.7381  0.6842
  151SAPE  H11Y16767   3.087   0.473   7.562 -0.6280  0.3770  0.1893
  151SAPE  C31216768   3.183   0.647   7.632  0.2394 -0.9801  0.9375
  151SAPE  H12X16769   3.103   0.694   7.692 -1.3557 -2.3264 -0.0611
  151SAPE  H12Y16770   3.243   0.730   7.590 -0.0047 -0.7644  1.0160
  151SAPE  C31316771   3.265   0.566   7.731 -0.1860 -0.7657 -0.7591
  151SAPE  H13X16772   3.370   0.566   7.697 -0.0520  0.8864 -0.4139
  151SAPE  H13Y16773   3.226   0.463   7.718  0.8621 -1.0453 -1.8188
  151SAPE  C31416774   3.267   0.603   7.879 -0.7834  0.7363  0.0678
  151SAPE  H14X16775   3.164   0.591   7.920 -0.5905  1.2983  0.7307
  151SAPE  H14Y16776   3.294   0.711   7.884  3.4003 -0.1479  0.1557
  151SAPE  C31516777   3.346   0.505   7.972 -0.0533 -0.4468  0.0595
  151SAPE  H15X16778   3.332   0.546   8.074 -1.9673 -0.2291 -0.2628
  151SAPE  H15Y16779   3.452   0.522   7.942  0.1140  0.1669  0.9844
  151SAPE  C31616780   3.314   0.350   7.960 -0.3599  0.0004  0.0750
  151SAPE  H16X16781   3.404   0.310   8.010 -0.6746  0.2423  0.8515
  151SAPE  H16Y16782   3.323   0.331   7.851 -0.7929 -0.9763  0.1908
  151SAPE  C31716783   3.188   0.297   8.033 -0.4024  0.0327  0.0775
  151SAPE  H17X16784   3.166   0.194   7.999  1.4344  0.0098 -1.1969
  151SAPE  H17Y16785   3.105   0.362   7.999 -0.4541 -0.5103 -0.8356
  151SAPE  C31816786   3.205   0.299   8.183 -0.7893 -0.1674  0.1466
  151SAPE  H18X16787   3.115   0.268   8.241 -1.4757  0.2910 -0.6336
  151SAPE  H18Y16788   3.217   0.400   8.227  3.2199 -0.7736  0.7911
  151SAPE  H18Z16789   3.285   0.230   8.214  0.2404 -0.2269 -2.3951
  152SAPE     N16790   0.498   1.017   5.902 -0.0716 -0.7818 -0.6907
  152SAPE   HN116791   0.572   1.079   5.862 -0.9316  1.7831  1.3708
  152SAPE   HN216792   0.530   0.921   5.882  1.3762 -0.0645 -2.0615
  152SAPE   HN316793   0.411   1.040   5.850 -0.7879  1.9985  1.4900
  152SAPE   C1216794   0.484   1.059   6.051 -0.1710  0.7495  0.1187
  152SAPE  H12A16795   0.447   1.164   6.051  2.2860  1.6862  1.6617
  152SAPE  H12B16796   0.586   1.069   6.093 -0.1909 -0.6696  0.5703
  152SAPE   C1116797   0.378   0.957   6.115  0.4933  0.3018 -0.4824
  152SAPE  H11A16798   0.397   0.955   6.225 -2.0237 -0.5329  0.0155
  152SAPE  H11B16799   0.388   0.853   6.079  1.0994  0.4431 -0.7318
  152SAPE     P16800   0.176   1.120   6.178 -0.4208  0.0836 -0.0261
  152SAPE   O1316801   0.181   1.240   6.097  0.2589  0.2208 -0.2842
  152SAPE   O1416802   0.038   1.073   6.219 -0.0327  0.6286 -0.5935
  152SAPE   O1216803   0.242   1.001   6.091  0.3779 -0.5217 -0.0761
  152SAPE   O1116804   0.287   1.137   6.301  0.6858  0.4148  0.7341
  152SAPE    C116805   0.249   1.068   6.420  0.5996  0.0262 -0.1741
  152SAPE    HA16806   0.193   0.973   6.402 -2.5566  1.3754  1.7461
  152SAPE    HB16807   0.342   1.034   6.471  0.7824 -0.5462 -0.8609
  152SAPE    C216808   0.166   1.157   6.520 -0.9424 -0.1074 -0.0050
  152SAPE    HS16809   0.079   1.196   6.463 -0.6725  0.3046 -0.1466
  152SAPE   O2116810   0.260   1.262   6.570  0.1977 -0.1920 -0.9186
  152SAPE   C2116811   0.210   1.379   6.576  0.5744  0.1540 -0.3825
  152SAPE   O2216812   0.092   1.412   6.554  0.0201  0.6630 -0.3214
  152SAPE   C2216813   0.316   1.474   6.621 -0.8130 -0.3201 -0.4277
  152SAPE   H2R16814   0.415   1.428   6.644  0.3698  3.4455  3.2436
  152SAPE   H2S16815   0.323   1.545   6.536 -1.2044  0.3840  0.1159
  152SAPE    C316816   0.116   1.061   6.631 -0.1214 -0.3252 -0.4595
  152SAPE    HX16817   0.198   1.002   6.678 -0.9997  0.6450  2.5367
  152SAPE    HY16818   0.043   0.990   6.588  0.8774 -1.0656 -0.9824
  152SAPE   O3116819   0.066   1.136   6.748  0.2415  0.2192  0.3399
  152SAPE   C3116820  -0.059   1.192   6.736 -0.6259  0.1794  0.7667
  152SAPE   O3216821  -0.115   1.201   6.625 -0.0080 -0.4871 -0.2135
  152SAPE   C3216822  -0.116   1.239   6.872 -0.5967  0.3329  0.2411
  152SAPE   H2X16823  -0.038   1.307   6.912 -0.3582  0.3233 -0.2024
  152SAPE   H2Y16824  -0.130   1.150   6.938  0.2839  1.7894  2.4983
  152SAPE   C2316825   0.273   1.561   6.742 -0.6823 -0.7171 -0.0553
  152SAPE   H3R16826   0.172   1.603   6.723 -0.6992 -0.5072  0.4798
  152SAPE   H3S16827   0.344   1.646   6.753 -2.9371  1.0190  1.9899
  152SAPE   C2416828   0.269   1.482   6.876  0.6819 -0.2355  0.5727
  152SAPE   H4R16829   0.189   1.407   6.861  2.1940 -1.7746 -0.0797
  152SAPE   H4S16830   0.233   1.550   6.955 -2.0145 -3.1392  2.0711
  152SAPE   C2516831   0.391   1.393   6.912  0.7310  0.1145  0.7360
  152SAPE   H5R16832   0.439   1.341   6.828  2.7388  2.3358  0.3855
  152SAPE   C2616833   0.461   1.404   7.022  0.3410  0.9557 -0.5238
  152SAPE   H6R16834   0.554   1.346   7.028 -0.2407  0.0118 -0.4125
  152SAPE   C2716835   0.428   1.482   7.144 -0.6044 -0.3778 -0.5231
  152SAPE   H7R16836   0.324   1.521   7.140 -0.3691  0.2149 -1.0681
  152SAPE   H7S16837   0.506   1.561   7.147  0.9928 -1.8733 -1.1166
  152SAPE   C2816838   0.425   1.398   7.266 -0.7197 -0.6047 -1.2314
  152SAPE   H8R16839   0.524   1.360   7.297 -1.9043 -2.6260  0.3056
  152SAPE   C2916840   0.327   1.368   7.350  0.1029  0.6450  0.1652
  152SAPE   H9R16841   0.352   1.298   7.431 -0.3972  1.0637  0.6868
  152SAPE  C21016842   0.186   1.409   7.344 -0.3079 -0.0218  0.0019
  152SAPE  H10R16843   0.118   1.322   7.358 -1.7693  1.2841  1.3956
  152SAPE  H10S16844   0.155   1.453   7.247  0.3930  1.1159  0.2756
  152SAPE  C21116845   0.167   1.515   7.449  0.1853  0.2884 -0.1499
  152SAPE  H11R16846   0.224   1.607   7.433 -1.8526  1.6619  0.1813
  152SAPE  C21216847   0.099   1.506   7.564  0.3331  0.7218  0.4093
  152SAPE  H12R16848   0.102   1.594   7.630  0.2940  0.9459  0.1139
  152SAPE  C21316849   0.017   1.393   7.622  0.6119 -0.3445  0.9560
  152SAPE  H13R16850  -0.055   1.359   7.544 -2.5275  3.6533  1.8062
  152SAPE  H13S16851  -0.038   1.435   7.709  0.4050 -0.0854  0.6984
  152SAPE  C21416852   0.097   1.278   7.675 -0.5969  0.3290  0.4390
  152SAPE  H14R16853   0.138   1.207   7.602 -1.0586  1.2090 -0.7150
  152SAPE  C21516854   0.141   1.262   7.799 -0.3751  0.0336  0.9036
  152SAPE  H15R16855   0.217   1.187   7.826  2.3260  2.1475 -0.3561
  152SAPE  C21616856   0.113   1.348   7.922 -0.2404  0.2844  0.8221
  152SAPE  H16R16857   0.075   1.448   7.891 -0.3245  0.6438  2.0232
  152SAPE  H16S16858   0.203   1.356   7.988  0.4478  1.8375 -0.2498
  152SAPE  C21716859   0.001   1.280   8.009 -0.6465 -0.0847  0.0330
  152SAPE  H17R16860   0.021   1.172   8.029 -0.9268 -0.3482 -1.0172
  152SAPE  H17S16861  -0.095   1.289   7.954 -0.2564  0.4332 -0.5771
  152SAPE  C21816862  -0.015   1.348   8.145  0.1765  0.0541  0.3241
  152SAPE  H18R16863   0.069   1.340   8.217 -0.2092 -1.2925  0.6416
  152SAPE  H18S16864  -0.097   1.292   8.195 -0.9170  1.1595 -0.1576
  152SAPE  C21916865  -0.068   1.491   8.157 -0.7265  0.0715  0.2844
  152SAPE  H19R16866  -0.153   1.483   8.086 -0.6226  1.8106 -0.0979
  152SAPE  H19S16867   0.007   1.564   8.121 -1.5942  1.6237  1.4645
  152SAPE  C22016868  -0.106   1.529   8.299 -0.0155  1.2291 -0.4728
  152SAPE  H20R16869  -0.015   1.512   8.360  0.6096 -1.3302 -1.9882
  152SAPE  H20S16870  -0.180   1.457   8.341  0.5769  0.3245 -0.9520
  152SAPE  H20T16871  -0.139   1.635   8.305 -0.4119  1.0632  0.6160
  152SAPE   C3316872  -0.242   1.318   6.872 -0.0589 -0.4226 -0.5404
  152SAPE   H3X16873  -0.324   1.274   6.811 -1.6756 -0.1259  1.3309
  152SAPE   H3Y16874  -0.219   1.413   6.820  0.6697 -0.7683 -0.8675
  152SAPE   C3416875  -0.303   1.343   7.012 -0.0153 -0.5535 -0.2456
  152SAPE   H4X16876  -0.344   1.248   7.052 -0.7005 -0.4565 -0.7023
  152SAPE   H4Y16877  -0.388   1.414   7.000 -0.0018 -0.4911  0.0059
  152SAPE   C3516878  -0.196   1.393   7.110  0.1536 -0.2211  0.0815
  152SAPE   H5X16879  -0.140   1.479   7.067 -0.4123 -0.4880 -1.2293
  152SAPE   H5Y16880  -0.122   1.310   7.114  0.2321 -0.3785 -2.8488
  152SAPE   C3616881  -0.246   1.446   7.258 -0.7283  0.0042  0.2099
  152SAPE   H6X16882  -0.336   1.509   7.241  0.4320  1.9562  1.0698
  152SAPE   H6Y16883  -0.165   1.509   7.299 -1.9197 -0.2127  3.1436
  152SAPE   C3716884  -0.273   1.324   7.349  0.1019  0.1511 -0.0127
  152SAPE   H7X16885  -0.169   1.295   7.376 -0.2717 -2.7614 -1.2484
  152SAPE   H7Y16886  -0.327   1.241   7.297 -0.5987  1.3996 -1.3314
  152SAPE   C3816887  -0.345   1.361   7.481  0.4903 -0.2889 -0.4882
  152SAPE   H8X16888  -0.455   1.373   7.473  0.4828 -1.1539 -2.0008
  152SAPE   H8Y16889  -0.310   1.460   7.519 -3.9802  0.8607  1.1627
  152SAPE   C3916890  -0.339   1.239   7.583  0.1701  0.0525 -0.1492
  152SAPE   H9X16891  -0.233   1.239   7.616 -0.4739  2.0222  2.2575
  152SAPE   H9Y16892  -0.359   1.135   7.550  0.1811  0.3700 -1.1838
  152SAPE  C31016893  -0.430   1.264   7.703 -0.9773  0.0274 -0.1844
  152SAPE  H10X16894  -0.536   1.241   7.680 -1.5306  1.3537  0.9069
  152SAPE  H10Y16895  -0.432   1.374   7.718  1.7771 -0.0401  1.1390
  152SAPE  C31116896  -0.396   1.171   7.819  0.1986 -0.8289 -0.4163
  152SAPE  H11X16897  -0.291   1.190   7.850 -0.0428 -0.0291 -0.0589
  152SAPE  H11Y16898  -0.412   1.063   7.796  1.3977 -1.0326 -0.3628
  152SAPE  C31216899  -0.484   1.206   7.945 -0.3017  0.6174 -0.0005
  152SAPE  H12X16900  -0.444   1.302   7.982  2.6988 -0.5246  0.0112
  152SAPE  H12Y16901  -0.457   1.137   8.028 -3.4527  0.7847  1.3027
  152SAPE  C31316902  -0.634   1.192   7.915  0.0957  0.4417 -0.5194
  152SAPE  H13X16903  -0.649   1.082   7.902 -1.3541  0.5355  0.2035
  152SAPE  H13Y16904  -0.673   1.246   7.826 -1.6338 -1.0219 -0.7107
  152SAPE  C31416905  -0.729   1.223   8.034 -0.0467 -0.8678 -0.6551
  152SAPE  H14X16906  -0.683   1.174   8.122 -1.2326  0.3554  0.6996
  152SAPE  H14Y16907  -0.829   1.176   8.027 -0.5500 -0.1820  1.2415
  152SAPE  C31516908  -0.742   1.371   8.053 -0.3003 -0.1913 -0.2319
  152SAPE  H15X16909  -0.842   1.418   8.037 -0.1195  0.3932  0.2936
  152SAPE  H15Y16910  -0.667   1.414   7.984  0.4858 -0.8961  0.1668
  152SAPE  C31616911  -0.690   1.413   8.189  0.1225 -0.6431 -0.5122
  152SAPE  H16X16912  -0.585   1.382   8.210  0.0909 -0.8561 -0.6681
  152SAPE  H16Y16913  -0.759   1.367   8.263  0.4645  0.1896  0.3645
  152SAPE  C31716914  -0.701   1.564   8.205 -0.5019  0.2753  1.1640
  152SAPE  H17X16915  -0.806   1.594   8.183 -0.4672 -0.3297  0.0933
  152SAPE  H17Y16916  -0.641   1.619   8.129  0.3082  1.0065  2.3054
  152SAPE  C31816917  -0.651   1.623   8.341 -0.1624  0.2012 -0.0823
  152SAPE  H18X16918  -0.546   1.593   8.360  0.0226  0.7139 -0.2837
  152SAPE  H18Y16919  -0.721   1.583   8.418 -0.8326 -0.2641 -0.9144
  152SAPE  H18Z16920  -0.660   1.733   8.344 -0.9293  0.1301  0.7063
  153SAPE     N16921   2.862   1.442   5.962  0.2171 -0.1429  0.3333
  153SAPE   HN116922   2.768   1.466   5.923  0.6156 -0.0226 -0.5852
  153SAPE   HN216923   2.933   1.505   5.920 -1.8127  2.2347  0.1840
  153SAPE   HN316924   2.892   1.345   5.941  1.0315 -0.3407  2.2344
  153SAPE   C1216925   2.851   1.461   6.113 -0.4215  0.5109  0.1926
  153SAPE  H12A16926   2.954   1.431   6.140  0.2391  0.2512 -2.3553
  153SAPE  H12B16927   2.775   1.389   6.150 -0.1367  0.4726  0.7134
  153SAPE   C1116928   2.842   1.610   6.168  1.4881 -0.2852  0.3332
  153SAPE  H11A16929   2.935   1.665   6.144  0.8882 -0.2483 -2.0790
  153SAPE  H11B16930   2.817   1.604   6.276  2.0493 -0.1310  0.4733
  153SAPE     P16931   2.591   1.656   6.128  0.5074  0.0558 -0.1401
  153SAPE   O1316932   2.505   1.763   6.070 -0.3516 -0.1409  0.0291
  153SAPE   O1416933   2.561   1.513   6.097 -0.3190  0.3793 -0.1765
  153SAPE   O1216934   2.738   1.676   6.092  0.5570  0.2936  0.3727
  153SAPE   O1116935   2.582   1.660   6.289  0.2636  0.0857  0.1696
  153SAPE    C116936   2.523   1.772   6.358  0.0275  0.1597 -0.1472
  153SAPE    HA16937   2.563   1.865   6.313 -1.1180  0.1180 -1.3073
  153SAPE    HB16938   2.412   1.776   6.351 -0.2358 -2.1650  1.5973
  153SAPE    C216939   2.551   1.761   6.511 -0.3975 -0.4382  0.9336
  153SAPE    HS16940   2.510   1.854   6.557  0.4354  1.3841 -1.7446
  153SAPE   O2116941   2.688   1.743   6.541 -0.5339 -0.1786 -0.1103
  153SAPE   C2116942   2.757   1.854   6.539 -0.6464  0.4634 -0.3180
  153SAPE   O2216943   2.718   1.969   6.547 -0.1844  0.1769  0.4109
  153SAPE   C2216944   2.906   1.820   6.536 -0.1687  0.5078  0.5500
  153SAPE   H2R16945   2.927   1.713   6.514  2.9181  1.3977 -1.2911
  153SAPE   H2S16946   2.945   1.872   6.447 -1.9002 -0.7473 -1.0210
  153SAPE    C316947   2.474   1.649   6.579 -0.1783  0.3760 -0.0373
  153SAPE    HX16948   2.505   1.560   6.520 -0.0080  0.8056 -0.6015
  153SAPE    HY16949   2.365   1.657   6.559 -0.5942 -0.6012  1.5516
  153SAPE   O3116950   2.489   1.632   6.721 -0.1542  0.9079  0.2847
  153SAPE   C3116951   2.571   1.534   6.759 -0.3076 -0.7090 -0.1314
  153SAPE   O3216952   2.634   1.458   6.689 -0.3218  0.1367 -0.3584
  153SAPE   C3216953   2.591   1.534   6.915  0.6421  0.6761  0.6006
  153SAPE   H2X16954   2.520   1.482   6.983  2.4027 -2.0229  0.5707
  153SAPE   H2Y16955   2.593   1.639   6.949  0.2583  1.1221 -0.7021
  153SAPE   C2316956   2.979   1.859   6.662  0.1438 -0.1489  0.1428
  153SAPE   H3R16957   2.945   1.955   6.707  2.3184  0.1856  1.2277
  153SAPE   H3S16958   3.081   1.878   6.622 -0.3924 -1.0946 -1.7774
  153SAPE   C2416959   2.979   1.753   6.770  0.5547  0.1410 -0.4871
  153SAPE   H4R16960   3.002   1.659   6.714  0.4565  0.4445 -1.0426
  153SAPE   H4S16961   2.880   1.750   6.820  0.5987 -0.6582 -0.4254
  153SAPE   C2516962   3.101   1.776   6.866  0.1642 -0.1710  0.2783
  153SAPE   H5R16963   3.201   1.751   6.828  0.7999  0.8461  1.2166
  153SAPE   C2616964   3.097   1.819   6.995  0.4089 -0.5606  0.5177
  153SAPE   H6R16965   3.188   1.819   7.057  0.3754  0.7373  0.5899
  153SAPE   C2716966   2.974   1.834   7.078  0.0985  0.2386 -1.1362
  153SAPE   H7R16967   2.981   1.758   7.158  2.5926  0.1630 -1.3670
  153SAPE   H7S16968   2.885   1.802   7.019  0.8906 -5.5579  0.2363
  153SAPE   C2816969   2.962   1.969   7.146 -0.6496 -1.0656  0.3601
  153SAPE   H8R16970   2.906   2.048   7.093 -0.0198 -0.8399  0.0264
  153SAPE   C2916971   3.024   2.000   7.268  0.7150 -0.4095 -0.2040
  153SAPE   H9R16972   2.998   2.100   7.304  0.7029  0.4705 -2.4465
  153SAPE  C21016973   3.106   1.895   7.347 -0.1604 -0.0588 -0.1132
  153SAPE  H10R16974   3.187   1.944   7.405  0.6543  0.2633 -1.4953
  153SAPE  H10S16975   3.142   1.812   7.282  0.4713 -0.7558  1.0875
  153SAPE  C21116976   3.017   1.826   7.447 -0.2514 -0.1012  0.1048
  153SAPE  H11R16977   2.952   1.752   7.399 -1.9843  0.3948  1.5700
  153SAPE  C21216978   3.002   1.842   7.583 -0.6187 -0.6238 -0.0288
  153SAPE  H12R16979   2.924   1.789   7.640  0.2055 -1.2767  0.5065
  153SAPE  C21316980   3.075   1.940   7.672 -0.1991 -0.0462  0.4505
  153SAPE  H13R16981   3.179   1.950   7.633 -0.6534 -1.7803 -1.3884
  153SAPE  H13S16982   3.090   1.905   7.777 -0.6773  2.0346  1.2554
  153SAPE  C21416983   3.006   2.075   7.671 -0.8818 -0.7309  0.4462
  153SAPE  H14R16984   2.998   2.115   7.569  2.0163 -1.9416 -0.3952
  153SAPE  C21516985   2.976   2.147   7.776  0.3851  0.0045 -1.1081
  153SAPE  H15R16986   2.926   2.244   7.763 -2.4103 -1.3289 -1.0024
  153SAPE  C21616987   3.000   2.110   7.927 -0.3730  0.2160 -0.3478
  153SAPE  H16R16988   3.110   2.098   7.938 -0.4927 -1.8273 -0.9391
  153SAPE  H16S16989   2.948   2.017   7.960 -1.3631  0.2866 -1.6178
  153SAPE  C21716990   2.950   2.223   8.030  0.4813  0.3427  0.2118
  153SAPE  H17R16991   2.842   2.202   8.044  0.9465 -2.6807 -0.0624
  153SAPE  H17S16992   2.971   2.325   7.992 -0.3307  1.1913  1.9408
  153SAPE  C21816993   3.019   2.222   8.164 -0.2121 -0.1686 -0.2152
  153SAPE  H18R16994   2.954   2.267   8.242  1.0003  1.2645  0.0209
  153SAPE  H18S16995   3.120   2.267   8.154 -0.6970  0.7416 -1.1807
  153SAPE  C21916996   3.050   2.081   8.206  0.6494 -0.3970 -0.2038
  153SAPE  H19R16997   3.106   2.027   8.127 -2.2945  1.1055 -3.6071
  153SAPE  H19S16998   2.952   2.031   8.227  1.1863 -1.3709  0.0268
  153SAPE  C22016999   3.128   2.083   8.340  0.7776  0.6712  0.0077
  153SAPE  H20R17000   3.238   2.086   8.327  0.8974 -0.7569  0.5748
  153SAPE  H20S17001   3.102   1.997   8.405 -0.3154  1.0555  0.1112
  153SAPE  H20T17002   3.099   2.178   8.391  1.9248  2.4542 -2.4278
  153SAPE   C3317003   2.741   1.482   6.945 -0.0369 -0.1200 -0.3250
  153SAPE   H3X17004   2.804   1.561   6.899 -2.2687  1.4394 -0.9042
  153SAPE   H3Y17005   2.763   1.386   6.892 -2.0095  0.5011 -2.4382
  153SAPE   C3417006   2.760   1.469   7.096  0.1726  0.3497  0.0726
  153SAPE   H4X17007   2.713   1.560   7.141  0.2010  0.5988 -0.3987
  153SAPE   H4Y17008   2.866   1.492   7.119  0.1644  0.2065  0.2560
  153SAPE   C3517009   2.728   1.325   7.141 -0.2838 -0.0514  0.6954
  153SAPE   H5X17010   2.819   1.264   7.160 -0.5939 -1.3497 -1.6098
  153SAPE   H5Y17011   2.663   1.269   7.070 -0.4823 -0.1848  0.9808
  153SAPE   C3617012   2.646   1.318   7.267 -0.1422  0.2409  0.0799
  153SAPE   H6X17013   2.617   1.213   7.284 -1.8243  0.4201 -1.4224
  153SAPE   H6Y17014   2.549   1.370   7.250  0.6932  1.5059 -1.1319
  153SAPE   C3717015   2.719   1.382   7.390  0.1401  0.0961 -0.3303
  153SAPE   H7X17016   2.730   1.491   7.374  1.3400  0.1552  0.7614
  153SAPE   H7Y17017   2.816   1.328   7.404 -1.9297 -3.5253  1.5099
  153SAPE   C3817018   2.646   1.364   7.530 -0.4560 -0.6601  0.5125
  153SAPE   H8X17019   2.649   1.255   7.550  0.1704 -1.3363 -2.7166
  153SAPE   H8Y17020   2.541   1.400   7.531  0.5695  2.7409 -0.6426
  153SAPE   C3917021   2.723   1.451   7.636  0.0931 -0.3197 -0.2252
  153SAPE   H9X17022   2.713   1.556   7.602  1.4662 -0.3586 -0.8299
  153SAPE   H9Y17023   2.828   1.415   7.645 -0.3918 -1.7029  0.3195
  153SAPE  C31017024   2.659   1.429   7.773 -0.6749 -0.3682  0.5352
  153SAPE  H10X17025   2.657   1.318   7.786 -1.7383 -0.5491 -0.9667
  153SAPE  H10Y17026   2.550   1.452   7.766 -0.0689  2.6302 -0.0751
  153SAPE  C31117027   2.718   1.511   7.880  0.2005 -0.0253  0.2866
  153SAPE  H11X17028   2.676   1.612   7.862 -2.3254 -1.2281 -1.2959
  153SAPE  H11Y17029   2.827   1.529   7.875  0.1322  0.2800 -0.2499
  153SAPE  C31217030   2.692   1.466   8.026  0.3493 -0.1604  1.0835
  153SAPE  H12X17031   2.582   1.451   8.037  0.2728  0.2997  0.9691
  153SAPE  H12Y17032   2.712   1.546   8.100  2.8245 -0.7724  1.1569
  153SAPE  C31317033   2.784   1.355   8.063  0.0950  0.1856  0.1305
  153SAPE  H13X17034   2.877   1.411   8.084 -0.0004  1.1344 -1.7123
  153SAPE  H13Y17035   2.807   1.295   7.972 -0.2886  0.4522 -0.1483
  153SAPE  C31417036   2.730   1.270   8.183 -0.3862  0.1704  0.5334
  153SAPE  H14X17037   2.739   1.334   8.273  0.7298  0.5271  0.1778
  153SAPE  H14Y17038   2.801   1.185   8.190  0.1920  0.4998 -1.0120
  153SAPE  C31517039   2.593   1.222   8.165  0.1016  0.1170 -0.6310
  153SAPE  H15X17040   2.562   1.195   8.061 -0.3300 -2.3566  0.0672
  153SAPE  H15Y17041   2.518   1.301   8.190  0.5058  0.4896 -0.5961
  153SAPE  C31617042   2.557   1.113   8.266  0.1069 -0.1065  0.0926
  153SAPE  H16X17043   2.449   1.117   8.292 -0.2281 -1.6586 -0.9095
  153SAPE  H16Y17044   2.609   1.140   8.360  1.9781  1.5348 -1.3240
  153SAPE  C31717045   2.584   0.968   8.220 -0.2984 -0.5793  0.3526
  153SAPE  H17X17046   2.683   0.974   8.169 -1.9151  1.6255 -2.8815
  153SAPE  H17Y17047   2.516   0.951   8.134 -0.2377  2.1407 -0.2991
  153SAPE  C31817048   2.577   0.861   8.328 -0.1644 -0.1561  0.1169
  153SAPE  H18X17049   2.488   0.887   8.389  0.1514  0.4852  0.3205
  153SAPE  H18Y17050   2.677   0.854   8.376 -0.2613 -2.9652  0.0745
  153SAPE  H18Z17051   2.568   0.756   8.295 -0.9837  0.0501 -0.3230
  154SAPE     N17052   1.357   0.798   6.130 -0.3796  0.0929 -0.5271
  154SAPE   HN117053   1.298   0.760   6.205 -1.8228  2.8083 -0.1441
  154SAPE   HN217054   1.404   0.722   6.077 -1.5623 -0.9302 -0.1451
  154SAPE   HN317055   1.424   0.860   6.180  0.8567 -0.7095 -1.1398
  154SAPE   C1217056   1.272   0.891   6.050  0.2645 -0.2692  0.7841
  154SAPE  H12A17057   1.333   0.971   6.003  0.3563 -1.2180 -0.7771
  154SAPE  H12B17058   1.208   0.941   6.125 -0.1711 -0.7931  0.7663
  154SAPE   C1117059   1.178   0.819   5.952  0.5356  0.7047  0.1478
  154SAPE  H11A17060   1.238   0.765   5.876  0.8786 -0.0821  0.9652
  154SAPE  H11B17061   1.129   0.901   5.894 -0.9349 -0.8428 -0.9095
  154SAPE     P17062   0.961   0.787   6.107 -0.1560  0.1998 -0.4214
  154SAPE   O1317063   0.944   0.931   6.087 -0.4472 -0.2143  0.8853
  154SAPE   O1417064   0.844   0.702   6.077 -0.7875 -0.2616 -0.5769
  154SAPE   O1217065   1.091   0.737   6.030 -0.3984 -0.4051 -0.0374
  154SAPE   O1117066   0.998   0.770   6.264  0.1140  0.3117 -0.8889
  154SAPE    C117067   1.012   0.636   6.314 -0.0135  0.3031  0.1454
  154SAPE    HA17068   1.048   0.566   6.235  1.2017  1.4947 -0.3902
  154SAPE    HB17069   1.097   0.635   6.386  0.6490 -0.5802 -0.6214
  154SAPE    C217070   0.894   0.570   6.384  0.1556 -0.0675 -0.4253
  154SAPE    HS17071   0.807   0.579   6.316  0.1222 -0.5725 -0.4574
  154SAPE   O2117072   0.876   0.648   6.509  0.0343 -0.6087  0.9699
  154SAPE   C2117073   0.755   0.643   6.564  0.5723  0.5954  0.6106
  154SAPE   O2217074   0.662   0.570   6.531 -0.1408 -0.6506 -0.6063
  154SAPE   C2217075   0.758   0.742   6.680 -0.4765  0.2214 -0.8924
  154SAPE   H2R17076   0.802   0.681   6.762  0.3699 -2.9086 -3.4782
  154SAPE   H2S17077   0.803   0.838   6.645 -1.4039  0.9005 -0.2877
  154SAPE    C317078   0.917   0.417   6.405 -0.0687  0.2817  0.1966
  154SAPE    HX17079   0.933   0.384   6.300 -0.4950  4.1971 -1.2925
  154SAPE    HY17080   0.828   0.354   6.427  1.7496 -2.7967 -0.6756
  154SAPE   O3117081   1.032   0.377   6.488  0.3636 -0.0337 -0.4741
  154SAPE   C3117082   1.017   0.362   6.616 -0.3856 -0.4968  0.5543
  154SAPE   O3217083   0.919   0.383   6.686  0.0402  0.0585 -0.3791
  154SAPE   C3217084   1.142   0.289   6.671 -0.1631  0.1440  0.7611
  154SAPE   H2X17085   1.231   0.337   6.626 -0.3007  0.8418  1.2270
  154SAPE   H2Y17086   1.132   0.189   6.623 -2.1804  2.3602 -4.0682
  154SAPE   C2317087   0.614   0.779   6.724  0.4821  0.1605 -0.4078
  154SAPE   H3R17088   0.570   0.689   6.772  1.5367  0.5045  1.2795
  154SAPE   H3S17089   0.559   0.823   6.639  0.5610 -0.3122 -0.7065
  154SAPE   C2417090   0.627   0.882   6.843  0.1647  0.2327  0.2685
  154SAPE   H4R17091   0.694   0.964   6.807 -0.4423  0.1415 -1.1251
  154SAPE   H4S17092   0.680   0.833   6.928 -0.5967 -0.5138  0.3200
  154SAPE   C2517093   0.486   0.928   6.878 -0.0681 -0.0819  0.2268
  154SAPE   H5R17094   0.445   1.005   6.811  2.7063  1.4786  0.1574
  154SAPE   C2617095   0.424   0.907   6.999 -0.3688 -0.6457  0.1063
  154SAPE   H6R17096   0.321   0.942   7.015  0.0116  0.0615  1.2054
  154SAPE   C2717097   0.487   0.827   7.110  0.6036 -0.8416 -0.7565
  154SAPE   H7R17098   0.569   0.878   7.165  0.4327  0.3054 -1.5337
  154SAPE   H7S17099   0.539   0.739   7.066 -0.3976 -1.9250  0.1667
  154SAPE   C2817100   0.388   0.799   7.216  0.1151  0.9825 -0.0160
  154SAPE   H8R17101   0.312   0.722   7.195  1.5993 -0.8049  0.9164
  154SAPE   C2917102   0.386   0.845   7.344 -0.2857  0.5109 -0.4778
  154SAPE   H9R17103   0.302   0.814   7.409  0.0715  2.6377  1.0862
  154SAPE  C21017104   0.489   0.936   7.412 -0.5284  0.2460 -0.1016
  154SAPE  H10R17105   0.438   1.013   7.475  0.8804 -0.3865  1.9325
  154SAPE  H10S17106   0.541   0.988   7.330 -0.9034 -2.1413 -1.9735
  154SAPE  C21117107   0.585   0.862   7.502 -0.4277  0.1845 -0.0656
  154SAPE  H11R17108   0.677   0.840   7.448 -1.1197  1.6896 -1.9731
  154SAPE  C21217109   0.550   0.826   7.632 -0.3591 -0.4627  0.3715
  154SAPE  H12R17110   0.629   0.798   7.703  0.8896 -0.0231 -0.8025
  154SAPE  C21317111   0.424   0.863   7.701  0.4581 -0.5395  0.1552
  154SAPE  H13R17112   0.345   0.867   7.623  1.0725  1.8115 -0.4371
  154SAPE  H13S17113   0.434   0.967   7.741 -1.0163 -1.3789  3.0346
  154SAPE  C21417114   0.372   0.780   7.816 -0.0162 -0.1233 -0.9547
  154SAPE  H14R17115   0.341   0.678   7.786  0.8986 -0.8915  0.5554
  154SAPE  C21517116   0.365   0.806   7.943 -0.3119 -0.1320 -0.5365
  154SAPE  H15R17117   0.341   0.723   8.011 -0.7302  1.0810  0.8462
  154SAPE  C21617118   0.416   0.937   8.010  0.1384 -0.0624  0.4471
  154SAPE  H16R17119   0.338   0.980   8.076  1.3220  2.3268  0.3723
  154SAPE  H16S17120   0.439   1.009   7.929 -1.1793 -0.5538 -0.4041
  154SAPE  C21717121   0.549   0.923   8.078  0.1197  0.5478  0.8110
  154SAPE  H17R17122   0.584   1.020   8.118  1.1890  2.3779 -3.9541
  154SAPE  H17S17123   0.624   0.899   8.000  0.2999 -0.2398  1.2159
  154SAPE  C21817124   0.544   0.820   8.187  0.2999  0.8421  0.2931
  154SAPE  H18R17125   0.524   0.723   8.137 -0.1054  0.6401  0.8409
  154SAPE  H18S17126   0.467   0.851   8.261  0.5086  0.2780  0.7496
  154SAPE  C21917127   0.675   0.812   8.262 -0.1832 -0.6823 -0.1513
  154SAPE  H19R17128   0.693   0.911   8.308  0.0046 -1.0509  0.5978
  154SAPE  H19S17129   0.757   0.795   8.189 -0.5381  0.8262 -0.9307
  154SAPE  C22017130   0.663   0.707   8.368  0.0120  1.1029 -0.1678
  154SAPE  H20R17131   0.630   0.609   8.327 -0.1844  0.5139  1.3297
  154SAPE  H20S17132   0.584   0.744   8.437  1.0657  0.7474  1.2737
  154SAPE  H20T17133   0.760   0.706   8.422  0.5101 -0.8355 -1.0097
  154SAPE   C3317134   1.168   0.308   6.828 -0.0606 -0.3546  0.5695
  154SAPE   H3X17135   1.154   0.417   6.847 -0.8242 -0.2554 -0.4582
  154SAPE   H3Y17136   1.274   0.281   6.848  1.1332  0.9213 -3.0659
  154SAPE   C3417137   1.065   0.236   6.910  0.1687 -0.8299 -0.4095
  154SAPE   H4X17138   1.080   0.126   6.905  0.9504 -0.9032  2.1984
  154SAPE   H4Y17139   0.963   0.271   6.884  0.5951  0.5860 -0.2273
  154SAPE   C3517140   1.075   0.262   7.061  0.5892 -0.6436  0.3164
  154SAPE   H5X17141   1.059   0.370   7.082  3.9603  0.1069 -0.3062
  154SAPE   H5Y17142   1.181   0.242   7.089  1.0283  0.1174 -0.7240
  154SAPE   C3617143   0.983   0.175   7.152  0.6583 -0.1566 -0.2196
  154SAPE   H6X17144   0.985   0.066   7.128  1.6548 -0.5180  1.2773
  154SAPE   H6Y17145   0.881   0.211   7.128  0.0452 -0.6601  1.4808
  154SAPE   C3717146   1.004   0.198   7.303 -0.0184 -0.2279  0.4220
  154SAPE   H7X17147   1.010   0.305   7.332  3.2627  0.9055 -3.4866
  154SAPE   H7Y17148   1.096   0.148   7.338 -1.1604 -1.5907  1.6298
  154SAPE   C3817149   0.890   0.140   7.388  0.2568 -0.4275  0.8363
  154SAPE   H8X17150   0.896   0.033   7.358 -0.7474  0.2031 -1.8325
  154SAPE   H8Y17151   0.794   0.187   7.358  0.2860  1.2487  3.0630
  154SAPE   C3917152   0.920   0.164   7.537  0.1636  0.4240  0.8481
  154SAPE   H9X17153   0.839   0.227   7.581 -0.7272  0.6272 -1.0081
  154SAPE   H9Y17154   1.015   0.222   7.544 -0.0794  0.7374  1.7308
  154SAPE  C31017155   0.943   0.047   7.626 -0.5717 -0.3991  0.1694
  154SAPE  H10X17156   1.037  -0.002   7.594 -0.7087 -1.4471  1.3320
  154SAPE  H10Y17157   0.859  -0.025   7.635 -2.5326  1.5483 -1.1930
  154SAPE  C31117158   0.979   0.088   7.769 -0.0136  0.0439  0.3475
  154SAPE  H11X17159   0.901   0.155   7.812 -0.7164  0.0877 -0.9489
  154SAPE  H11Y17160   1.070   0.150   7.755  0.1764  0.4546  2.9376
  154SAPE  C31217161   1.018  -0.021   7.857  0.2094 -0.7232  0.4856
  154SAPE  H12X17162   1.078   0.026   7.937 -2.1373  4.0439 -0.2078
  154SAPE  H12Y17163   1.076  -0.087   7.789 -1.7588 -0.1672 -1.8824
  154SAPE  C31317164   0.909  -0.097   7.928  0.1058  0.3487 -0.2615
  154SAPE  H13X17165   0.837  -0.115   7.845  2.2691  2.1957 -2.7323
  154SAPE  H13Y17166   0.866  -0.039   8.012  1.9609 -0.0611  1.0258
  154SAPE  C31417167   0.938  -0.237   7.987  0.3032  0.0027  0.4776
  154SAPE  H14X17168   0.982  -0.226   8.089 -0.0872 -0.1288  0.6605
  154SAPE  H14Y17169   1.024  -0.275   7.927  1.0538  0.4392  1.2477
  154SAPE  C31517170   0.816  -0.327   7.976  0.6065  0.1959 -0.4492
  154SAPE  H15X17171   0.792  -0.335   7.868  1.1441 -0.8281 -0.5053
  154SAPE  H15Y17172   0.728  -0.277   8.023 -0.2660  1.1653 -2.9270
  154SAPE  C31617173   0.837  -0.470   8.027 -0.5082 -0.3920  0.4964
  154SAPE  H16X17174   0.924  -0.519   7.977 -0.5665 -0.1788  0.1859
  154SAPE  H16Y17175   0.744  -0.526   8.006 -0.7979 -0.2279  1.2982
  154SAPE  C31717176   0.837  -0.466   8.182  0.2261  0.3162 -0.0493
  154SAPE  H17X17177   0.929  -0.413   8.214 -0.2498  0.4227  1.2010
  154SAPE  H17Y17178   0.844  -0.569   8.221 -0.3887  0.4419  0.4154
  154SAPE  C31817179   0.719  -0.388   8.244  0.0089  0.2911 -0.1523
  154SAPE  H18X17180   0.718  -0.425   8.349 -1.1156  2.6830  0.7365
  154SAPE  H18Y17181   0.627  -0.409   8.187 -0.2240  1.1268 -0.0881
  154SAPE  H18Z17182   0.734  -0.279   8.255 -1.1109  0.3139  1.5230
  155SAPE     N17183   1.988   3.947   6.346 -0.3958 -0.5136  1.1097
  155SAPE   HN117184   1.951   3.998   6.263  2.1703 -0.0636  0.1472
  155SAPE   HN217185   2.016   4.014   6.421 -0.1938  0.7900 -0.0868
  155SAPE   HN317186   2.080   3.904   6.326 -0.8308 -0.6991 -0.6999
  155SAPE   C1217187   1.896   3.842   6.395  0.2399  0.5966 -0.7605
  155SAPE  H12A17188   1.793   3.878   6.375 -0.0372  0.9391  1.0875
  155SAPE  H12B17189   1.913   3.816   6.502 -2.5225 -1.1259 -0.6282
  155SAPE   C1117190   1.918   3.705   6.316  0.2207 -0.0338 -0.4421
  155SAPE  H11A17191   1.868   3.714   6.217 -1.1479  1.1164  0.3037
  155SAPE  H11B17192   1.868   3.627   6.377 -1.7526  0.2066 -1.6730
  155SAPE     P17193   2.099   3.568   6.194 -0.0189  0.2691 -0.2027
  155SAPE   O1317194   1.985   3.485   6.155  0.2557 -0.4683 -0.1340
  155SAPE   O1417195   2.158   3.637   6.082 -0.8073 -0.1852 -0.0944
  155SAPE   O1217196   2.055   3.672   6.306 -0.7591  1.2932 -0.2061
  155SAPE   O1117197   2.208   3.471   6.263  0.1833  0.3032  0.0028
  155SAPE    C117198   2.303   3.518   6.357 -0.1240 -0.4987 -0.4506
  155SAPE    HA17199   2.264   3.586   6.436  3.4903  0.0087  1.0575
  155SAPE    HB17200   2.337   3.436   6.423  0.7376 -0.5992 -1.0056
  155SAPE    C217201   2.430   3.572   6.287  0.2871 -0.1256 -0.7394
  155SAPE    HS17202   2.392   3.635   6.205 -2.8265  0.3866  0.9405
  155SAPE   O2117203   2.504   3.460   6.236 -0.2773  0.1189  0.0037
  155SAPE   C2117204   2.600   3.496   6.156 -0.2408  0.3216 -0.0303
  155SAPE   O2217205   2.630   3.609   6.117  0.1466 -0.1122  0.0571
  155SAPE   C2217206   2.677   3.371   6.116  0.2618 -0.1607  0.2768
  155SAPE   H2R17207   2.609   3.284   6.110  2.6446 -2.2100  1.3775
  155SAPE   H2S17208   2.731   3.392   6.021 -0.4219 -0.6816 -0.2342
  155SAPE    C317209   2.514   3.666   6.374  0.1874 -0.4706  0.7699
  155SAPE    HX17210   2.444   3.743   6.413 -0.5343 -1.0560  0.6657
  155SAPE    HY17211   2.598   3.718   6.324  0.6805 -1.4439  0.5729
  155SAPE   O3117212   2.580   3.591   6.469 -0.0772  0.6626 -0.2319
  155SAPE   C3117213   2.529   3.591   6.598  0.0134  0.2589  0.6468
  155SAPE   O3217214   2.427   3.646   6.630 -0.1412 -0.2890  0.6815
  155SAPE   C3217215   2.618   3.514   6.689  0.3237 -0.5650 -0.4498
  155SAPE   H2X17216   2.716   3.524   6.637 -0.8659  3.3356 -2.2863
  155SAPE   H2Y17217   2.600   3.404   6.696  1.4359 -0.6681  1.9165
  155SAPE   C2317218   2.777   3.329   6.223  0.2170 -0.0951  0.2148
  155SAPE   H3R17219   2.803   3.224   6.200  0.1616  0.2579 -1.5885
  155SAPE   H3S17220   2.721   3.326   6.319  1.4369 -0.0920  0.9405
  155SAPE   C2417221   2.903   3.421   6.231 -1.0042  0.5028 -0.2619
  155SAPE   H4R17222   2.886   3.530   6.244  3.5143  1.6942 -2.3428
  155SAPE   H4S17223   2.950   3.413   6.131  1.4294  1.1268  0.7585
  155SAPE   C2517224   2.987   3.368   6.343 -0.5368 -0.1625  0.3914
  155SAPE   H5R17225   3.017   3.263   6.328  3.1608  0.8378 -0.2984
  155SAPE   C2617226   3.028   3.441   6.447  0.0768  0.1730 -0.3782
  155SAPE   H6R17227   3.096   3.388   6.515  0.7694  0.8521 -0.5219
  155SAPE   C2717228   2.988   3.583   6.477  0.3741  0.3250  0.3735
  155SAPE   H7R17229   2.887   3.595   6.523 -0.6364  0.0727 -1.6316
  155SAPE   H7S17230   2.988   3.647   6.386 -1.0537 -1.1230 -0.7129
  155SAPE   C2817231   3.082   3.645   6.571  0.2224  1.2342  0.3530
  155SAPE   H8R17232   3.157   3.698   6.509  0.8920  0.7660  0.7544
  155SAPE   C2917233   3.087   3.638   6.710 -0.2981 -0.3957  0.3757
  155SAPE   H9R17234   3.161   3.688   6.773 -2.6740  0.9040  2.2821
  155SAPE  C21017235   3.006   3.560   6.798  0.2833 -0.2309  0.4143
  155SAPE  H10R17236   2.922   3.506   6.748 -0.4813 -1.3549  2.7404
  155SAPE  H10S17237   2.959   3.626   6.873 -1.1242 -1.7864  0.9671
  155SAPE  C21117238   3.087   3.452   6.865  0.1307  0.3254 -0.6555
  155SAPE  H11R17239   3.152   3.389   6.803 -0.2895 -1.0106  0.1986
  155SAPE  C21217240   3.097   3.429   7.000 -0.3208  0.2762  0.1956
  155SAPE  H12R17241   3.164   3.352   7.041 -1.2465 -1.8314 -2.0333
  155SAPE  C21317242   3.024   3.503   7.113  0.7217  0.7820  0.0500
  155SAPE  H13R17243   2.967   3.588   7.069  0.8407  0.5061 -0.6619
  155SAPE  H13S17244   3.101   3.537   7.185  0.4307  0.0481  0.7148
  155SAPE  C21417245   2.932   3.414   7.188 -0.1465 -0.0345 -0.6697
  155SAPE  H14R17246   2.946   3.306   7.171 -0.7506 -0.2349  0.0055
  155SAPE  C21517247   2.836   3.449   7.276  0.5227 -0.3547 -0.1408
  155SAPE  H15R17248   2.784   3.365   7.326 -0.5787 -1.3622 -2.7664
  155SAPE  C21617249   2.791   3.598   7.310 -0.1823  0.8963  0.0030
  155SAPE  H16R17250   2.687   3.606   7.347 -0.3344  0.9100 -0.4157
  155SAPE  H16S17251   2.774   3.663   7.221  0.2147  1.6693  0.4865
  155SAPE  C21717252   2.892   3.672   7.399 -0.4109 -0.2211 -0.1747
  155SAPE  H17R17253   2.862   3.779   7.409 -1.5943 -0.6281  0.8611
  155SAPE  H17S17254   2.998   3.672   7.364  0.0133  4.1528  0.4909
  155SAPE  C21817255   2.883   3.614   7.545  0.0704  0.3530  0.8000
  155SAPE  H18R17256   2.921   3.510   7.549  2.3126  1.0866  0.1846
  155SAPE  H18S17257   2.775   3.594   7.564  0.2347 -1.0573  0.4005
  155SAPE  C21917258   2.938   3.694   7.659  0.0545 -0.0664 -0.0696
  155SAPE  H19R17259   3.045   3.703   7.628  0.9849 -0.7779  2.6651
  155SAPE  H19S17260   2.930   3.644   7.758  0.5747  0.4254  0.2320
  155SAPE  C22017261   2.878   3.839   7.679  0.1496 -0.1728  0.0687
  155SAPE  H20R17262   2.768   3.841   7.690 -0.0906 -2.5888 -1.0969
  155SAPE  H20S17263   2.916   3.905   7.598  1.3208 -0.7621  0.1132
  155SAPE  H20T17264   2.924   3.881   7.771 -0.3092  1.5358 -0.4457
  155SAPE   C3317265   2.628   3.573   6.829  0.5345 -0.2492 -0.4210
  155SAPE   H3X17266   2.635   3.683   6.819 -0.2968 -0.1586 -0.1478
  155SAPE   H3Y17267   2.718   3.539   6.884  0.7693 -0.7189 -1.0945
  155SAPE   C3417268   2.513   3.529   6.923 -0.6402 -0.0262 -0.0198
  155SAPE   H4X17269   2.523   3.419   6.935 -1.0003 -0.3736 -2.3955
  155SAPE   H4Y17270   2.414   3.544   6.874 -0.5659  0.8663  0.0963
  155SAPE   C3517271   2.507   3.591   7.073  0.4556 -0.3134  0.1261
  155SAPE   H5X17272   2.529   3.700   7.070  1.5672 -0.4959  0.8772
  155SAPE   H5Y17273   2.591   3.544   7.130  1.1730  0.0439 -0.6156
  155SAPE   C3617274   2.370   3.569   7.136  0.5446  0.1425 -0.6602
  155SAPE   H6X17275   2.351   3.461   7.153 -1.2060  0.6753  1.1121
  155SAPE   H6Y17276   2.295   3.598   7.059  1.0418 -0.5609 -1.4177
  155SAPE   C3717277   2.355   3.637   7.273  0.0514  0.0993 -0.2403
  155SAPE   H7X17278   2.336   3.746   7.266 -1.6626 -0.1985 -0.6813
  155SAPE   H7Y17279   2.456   3.623   7.319 -0.5099 -1.9696  0.4647
  155SAPE   C3817280   2.245   3.570   7.363 -0.0269  0.2387 -0.2421
  155SAPE   H8X17281   2.277   3.466   7.388  2.4588  1.3811  1.7364
  155SAPE   H8Y17282   2.156   3.563   7.297 -0.1026 -1.7789 -0.0140
  155SAPE   C3917283   2.216   3.640   7.499 -0.7830  0.4803  0.5219
  155SAPE   H9X17284   2.142   3.568   7.541  0.7164 -0.3724  1.8441
  155SAPE   H9Y17285   2.181   3.744   7.483  2.1190  1.4432 -0.1703
  155SAPE  C31017286   2.349   3.650   7.588  0.7609  0.1840  0.1924
  155SAPE  H10X17287   2.433   3.687   7.526  2.1529 -1.5873  0.9441
  155SAPE  H10Y17288   2.384   3.547   7.610  2.0728  0.6389  0.3358
  155SAPE  C31117289   2.330   3.735   7.709 -0.4353 -0.2466  0.7565
  155SAPE  H11X17290   2.300   3.835   7.671  0.6013  0.0663  0.7544
  155SAPE  H11Y17291   2.426   3.751   7.761 -0.1903  1.6201 -0.1841
  155SAPE  C31217292   2.225   3.672   7.804 -0.3782  0.1415  0.3022
  155SAPE  H12X17293   2.258   3.569   7.828 -0.8263 -0.0719  0.0129
  155SAPE  H12Y17294   2.124   3.657   7.761  0.5339 -0.6880 -1.7042
  155SAPE  C31317295   2.208   3.764   7.934  0.8955 -0.8045  0.3671
  155SAPE  H13X17296   2.120   3.830   7.922  1.6537  0.3535  0.9719
  155SAPE  H13Y17297   2.300   3.825   7.947 -2.4062  4.4857  2.2916
  155SAPE  C31417298   2.175   3.686   8.065 -0.3405  0.1690 -0.3394
  155SAPE  H14X17299   2.261   3.617   8.084  0.4244  0.7892 -1.4437
  155SAPE  H14Y17300   2.085   3.622   8.054 -1.2946  0.2282  4.6721
  155SAPE  C31517301   2.168   3.790   8.176  0.0929 -0.0341 -0.0999
  155SAPE  H15X17302   2.089   3.757   8.247  1.4541  0.1326  1.5572
  155SAPE  H15Y17303   2.141   3.890   8.138  1.9701  1.0097  1.1499
  155SAPE  C31617304   2.302   3.788   8.259  0.3175  0.1810  0.3476
  155SAPE  H16X17305   2.297   3.862   8.341  2.3062  1.4629 -0.6148
  155SAPE  H16Y17306   2.394   3.820   8.206 -0.5814  0.8277 -0.8801
  155SAPE  C31717307   2.325   3.646   8.322  0.7747 -0.0866 -0.3467
  155SAPE  H17X17308   2.335   3.566   8.246 -1.1924 -0.5470 -0.1730
  155SAPE  H17Y17309   2.241   3.620   8.391 -0.8289  1.8263 -1.4738
  155SAPE  C31817310   2.460   3.653   8.402 -0.4519  0.1367  0.4492
  155SAPE  H18X17311   2.546   3.661   8.332  0.3494 -1.2282  1.2155
  155SAPE  H18Y17312   2.470   3.559   8.461 -0.5338  1.0253  1.9280
  155SAPE  H18Z17313   2.455   3.742   8.468  0.5855  0.7164 -0.2162
  156SAPE     N17314   5.542   2.648   6.262 -0.4907  0.0402  0.5876
  156SAPE   HN117315   5.474   2.624   6.187  2.8490 -0.9609 -2.3823
  156SAPE   HN217316   5.568   2.749   6.262  1.7255 -0.4752  0.6139
  156SAPE   HN317317   5.623   2.587   6.239 -1.2648 -1.0688  0.6961
  156SAPE   C1217318   5.488   2.610   6.393  0.7461  0.8882  0.4800
  156SAPE  H12A17319   5.483   2.500   6.384 -1.6651  1.0877 -1.5731
  156SAPE  H12B17320   5.384   2.649   6.401 -0.4169 -2.2838  2.8988
  156SAPE   C1117321   5.578   2.654   6.509 -0.1997 -0.6230 -0.4562
  156SAPE  H11A17322   5.533   2.625   6.607  2.5355 -1.2042  0.7308
  156SAPE  H11B17323   5.576   2.764   6.499 -1.9695 -0.7329 -1.8976
  156SAPE     P17324   5.763   2.474   6.547 -0.0721  0.1634 -0.2914
  156SAPE   O1317325   5.682   2.363   6.493  0.6053  0.0328  0.4188
  156SAPE   O1417326   5.909   2.458   6.533 -0.1866 -0.5180  0.4626
  156SAPE   O1217327   5.710   2.609   6.493  0.1152  0.3299 -0.4283
  156SAPE   O1117328   5.735   2.477   6.702  0.5059  0.7336 -0.1729
  156SAPE    C117329   5.753   2.593   6.789 -1.1242  0.1563 -0.3424
  156SAPE    HA17330   5.751   2.692   6.739  3.3259  0.8760  0.4623
  156SAPE    HB17331   5.675   2.602   6.868  0.8605 -0.0190  1.7486
  156SAPE    C217332   5.885   2.573   6.883  0.2449 -0.2600  0.1538
  156SAPE    HS17333   5.978   2.578   6.821  0.6625 -0.7005  0.7356
  156SAPE   O2117334   5.883   2.442   6.945 -0.2358 -0.3168  0.0316
  156SAPE   C2117335   5.994   2.373   6.968 -0.0210 -0.3901  0.0119
  156SAPE   O2217336   6.106   2.398   6.926 -0.7097 -0.1335 -0.3695
  156SAPE   C2217337   5.947   2.247   7.037 -0.1512 -0.3555  0.1269
  156SAPE   H2R17338   5.856   2.260   7.100 -0.2747 -1.4162  0.1700
  156SAPE   H2S17339   5.926   2.184   6.948 -0.3350 -2.8399  1.8458
  156SAPE    C317340   5.891   2.687   6.987  0.0923  0.5455  0.0663
  156SAPE    HX17341   5.794   2.689   7.041  0.3641  2.0467  0.5401
  156SAPE    HY17342   5.887   2.781   6.928  0.9586  0.6967  0.2236
  156SAPE   O3117343   5.994   2.671   7.088 -0.2366 -0.2581  0.0918
  156SAPE   C3117344   6.110   2.717   7.036  0.0786  0.5995  0.4178
  156SAPE   O3217345   6.124   2.768   6.926  0.1874 -0.3894 -0.0611
  156SAPE   C3217346   6.222   2.707   7.142  0.1090  0.0541  0.3608
  156SAPE   H2X17347   6.249   2.600   7.157  0.9987  0.5083  2.2929
  156SAPE   H2Y17348   6.193   2.740   7.244  1.0799  3.7217 -0.4096
  156SAPE   C2317349   6.061   2.194   7.121  0.2747  0.1082 -0.0134
  156SAPE   H3R17350   6.120   2.279   7.162 -1.5521  0.6238  1.7241
  156SAPE   H3S17351   6.128   2.140   7.051 -1.7686 -0.6133 -1.5035
  156SAPE   C2417352   6.005   2.113   7.238  0.7124 -0.2811 -0.6659
  156SAPE   H4R17353   5.931   2.035   7.209  1.4281 -1.2517  0.0759
  156SAPE   H4S17354   5.944   2.182   7.301 -0.8954 -1.1888 -1.1742
  156SAPE   C2517355   6.106   2.051   7.326 -0.1696  0.0623  0.4697
  156SAPE   H5R17356   6.200   2.021   7.276  0.5408  1.0845  1.1501
  156SAPE   C2617357   6.088   2.018   7.451 -0.1963 -0.1235 -0.3072
  156SAPE   H6R17358   6.173   1.967   7.498  0.2479  1.8198  1.1072
  156SAPE   C2717359   5.973   2.039   7.550  0.0872 -0.6409  0.1437
  156SAPE   H7R17360   5.932   1.957   7.613 -2.5719  0.2697 -0.2559
  156SAPE   H7S17361   5.888   2.067   7.484  0.3572 -0.8178 -0.2781
  156SAPE   C2817362   5.996   2.152   7.652  0.5250 -0.3026  0.2547
  156SAPE   H8R17363   5.936   2.243   7.636 -0.1470 -1.0518 -1.9470
  156SAPE   C2917364   6.092   2.145   7.745  0.6577  0.1014 -0.2937
  156SAPE   H9R17365   6.096   2.230   7.815 -1.2796  0.7724 -0.9278
  156SAPE  C21017366   6.197   2.030   7.767  0.5988  0.4026  0.1838
  156SAPE  H10R17367   6.272   2.038   7.685 -0.0572  0.5083 -0.4097
  156SAPE  H10S17368   6.148   1.931   7.762  0.9611  0.2846 -1.9744
  156SAPE  C21117369   6.274   2.042   7.895 -0.1973  0.3639 -1.0613
  156SAPE  H11R17370   6.277   2.138   7.947  3.2900 -0.4355  0.5194
  156SAPE  C21217371   6.340   1.943   7.954  0.1722 -0.1827 -0.1713
  156SAPE  H12R17372   6.401   1.963   8.043 -1.7680  1.1879  0.9249
  156SAPE  C21317373   6.371   1.804   7.895  0.5331 -0.7885  0.2996
  156SAPE  H13R17374   6.375   1.809   7.784 -0.2275 -1.4839  0.2339
  156SAPE  H13S17375   6.280   1.740   7.902 -0.4355  0.6497  1.6266
  156SAPE  C21417376   6.492   1.729   7.936  0.7579 -0.0514 -0.7712
  156SAPE  H14R17377   6.503   1.726   8.046  1.0770 -1.9222 -0.8321
  156SAPE  C21517378   6.591   1.698   7.851  0.6166  0.1232 -0.1013
  156SAPE  H15R17379   6.671   1.635   7.893  0.0078 -1.6144 -1.4539
  156SAPE  C21617380   6.609   1.715   7.701  0.1527  0.2746  0.3064
  156SAPE  H16R17381   6.517   1.721   7.640  1.0842  2.2517 -1.0157
  156SAPE  H16S17382   6.662   1.625   7.663 -2.0811 -0.8919 -0.2126
  156SAPE  C21717383   6.698   1.835   7.684 -0.0666 -0.4828  0.2694
  156SAPE  H17R17384   6.801   1.804   7.710  1.1479  1.1192 -2.2563
  156SAPE  H17S17385   6.654   1.917   7.745  1.3107  0.0060  0.6345
  156SAPE  C21817386   6.708   1.897   7.544 -0.0817 -0.4038 -0.0553
  156SAPE  H18R17387   6.752   1.999   7.552 -0.5266 -0.3008  1.3018
  156SAPE  H18S17388   6.609   1.920   7.498 -0.0382  0.1474  0.1219
  156SAPE  C21917389   6.800   1.815   7.452 -0.0876  0.0420  0.2297
  156SAPE  H19R17390   6.741   1.730   7.411  0.4129 -1.2347  2.0208
  156SAPE  H19S17391   6.890   1.777   7.506  1.3804 -0.5360 -2.4284
  156SAPE  C22017392   6.845   1.891   7.334  0.1257  0.0975  0.2820
  156SAPE  H20R17393   6.767   1.968   7.316  1.5922  1.8357  1.0680
  156SAPE  H20S17394   6.861   1.827   7.245  2.2905  1.8644 -0.6896
  156SAPE  H20T17395   6.938   1.945   7.359  1.0787 -0.0564 -2.6051
  156SAPE   C3317396   6.355   2.776   7.098  0.4173  0.1650 -0.1223
  156SAPE   H3X17397   6.336   2.883   7.078  0.4712  0.6950  2.3223
  156SAPE   H3Y17398   6.398   2.731   7.006  1.9686 -0.1286  0.7116
  156SAPE   C3417399   6.463   2.755   7.205  1.0066 -0.4319  0.8823
  156SAPE   H4X17400   6.560   2.777   7.154 -0.0936 -0.6220 -1.3791
  156SAPE   H4Y17401   6.464   2.647   7.228 -4.3659 -1.3809 -1.8582
  156SAPE   C3517402   6.442   2.838   7.327 -0.7050 -0.4210  0.2381
  156SAPE   H5X17403   6.374   2.789   7.399 -1.3043 -1.8003 -1.2241
  156SAPE   H5Y17404   6.398   2.936   7.297  1.3007 -0.2615 -2.6898
  156SAPE   C3617405   6.576   2.862   7.407  0.4666 -0.0585 -0.5539
  156SAPE   H6X17406   6.641   2.928   7.345  0.0216 -1.1292 -2.2038
  156SAPE   H6Y17407   6.636   2.770   7.420  0.7135  0.0347 -1.0168
  156SAPE   C3717408   6.549   2.922   7.546  0.5341 -0.0041 -0.0931
  156SAPE   H7X17409   6.450   2.892   7.587 -0.3923  2.6155 -0.1949
  156SAPE   H7Y17410   6.557   3.033   7.553 -1.4050  0.1693  0.0057
  156SAPE   C3817411   6.643   2.868   7.648 -0.2782  0.1326  0.3034
  156SAPE   H8X17412   6.745   2.905   7.623 -0.6437 -0.6416 -2.7280
  156SAPE   H8Y17413   6.648   2.760   7.625 -2.4744 -0.2172  1.2799
  156SAPE   C3917414   6.613   2.895   7.800 -0.2331  0.2575  0.6445
  156SAPE   H9X17415   6.518   2.849   7.835  0.0182 -0.0098  0.9847
  156SAPE   H9Y17416   6.612   3.005   7.818  2.1756  0.4989 -0.3892
  156SAPE  C31017417   6.720   2.831   7.885 -0.0032 -0.4244  0.3337
  156SAPE  H10X17418   6.818   2.878   7.859  0.2444 -0.9997  0.2095
  156SAPE  H10Y17419   6.723   2.723   7.862  3.0389 -0.5433  0.8659
  156SAPE  C31117420   6.680   2.838   8.032  0.8343 -0.4834  0.5185
  156SAPE  H11X17421   6.591   2.772   8.034  0.9056 -0.7156 -1.5992
  156SAPE  H11Y17422   6.641   2.942   8.045 -3.5961 -1.8513  0.0847
  156SAPE  C31217423   6.780   2.777   8.124 -0.1523  0.8891  0.1332
  156SAPE  H12X17424   6.865   2.848   8.130  0.7643 -0.1896  0.1454
  156SAPE  H12Y17425   6.816   2.686   8.072 -3.5951  0.5497 -1.9460
  156SAPE  C31317426   6.732   2.769   8.269 -0.1933 -1.1450 -0.5729
  156SAPE  H13X17427   6.642   2.704   8.268 -2.0623  1.2823 -0.6365
  156SAPE  H13Y17428   6.699   2.873   8.289  0.7102 -0.1459 -3.6791
  156SAPE  C31417429   6.843   2.722   8.373  0.5558  0.6966  0.0562
  156SAPE  H14X17430   6.811   2.734   8.479  1.1215 -2.2516  0.6719
  156SAPE  H14Y17431   6.930   2.789   8.358  1.1808 -0.0892  0.1200
  156SAPE  C31517432   6.883   2.576   8.347  0.6309  0.5541 -0.7011
  156SAPE  H15X17433   6.958   2.553   8.426 -1.1283 -1.7770  0.4200
  156SAPE  H15Y17434   6.936   2.564   8.250 -0.1623 -0.4401 -1.0251
  156SAPE  C31617435   6.767   2.473   8.345 -0.5123 -0.0346  0.7592
  156SAPE  H16X17436   6.816   2.377   8.318 -1.7702  0.1176 -2.5020
  156SAPE  H16Y17437   6.700   2.502   8.260  1.2302 -1.6632 -1.2884
  156SAPE  C31717438   6.707   2.473   8.484 -0.2140  0.1110 -0.2928
  156SAPE  H17X17439   6.685   2.573   8.527  2.1923 -0.4410  2.5412
  156SAPE  H17Y17440   6.780   2.429   8.555  1.3337  0.1376 -1.7751
  156SAPE  C31817441   6.574   2.389   8.508 -0.2155  0.1211  0.0681
  156SAPE  H18X17442   6.485   2.444   8.470 -0.1664 -0.5537 -1.0695
  156SAPE  H18Y17443   6.581   2.357   8.614 -0.4831 -0.3160 -0.0472
  156SAPE  H18Z17444   6.584   2.297   8.447  0.0537  1.0407 -1.3379
  157SAPE     N17445   0.492   4.980   6.298  0.0035 -0.1437 -0.0802
  157SAPE   HN117446   0.569   5.048   6.282  0.1068  0.1225  1.3798
  157SAPE   HN217447   0.446   5.005   6.388 -1.6819  0.0693 -0.9495
  157SAPE   HN317448   0.539   4.891   6.323  0.3834  0.1447  0.2388
  157SAPE   C1217449   0.394   4.957   6.185 -0.1429  0.2127  0.4456
  157SAPE  H12A17450   0.460   4.943   6.097 -1.0493 -1.8336  0.0237
  157SAPE  H12B17451   0.335   5.050   6.175  1.1456  1.0210  0.0796
  157SAPE   C1117452   0.287   4.845   6.198  0.1573  0.0387  0.1332
  157SAPE  H11A17453   0.206   4.879   6.130  0.3291  1.3522  0.5624
  157SAPE  H11B17454   0.246   4.840   6.301  2.1202  0.9050  1.0175
  157SAPE     P17455   0.328   4.653   6.030 -0.1819 -0.1366 -0.0550
  157SAPE   O1317456   0.356   4.761   5.929  0.2887 -0.0581  0.1015
  157SAPE   O1417457   0.396   4.522   6.020  0.0267 -0.0658 -0.5870
  157SAPE   O1217458   0.356   4.724   6.169  0.3654 -0.2837 -0.4431
  157SAPE   O1117459   0.165   4.640   6.027 -1.1046 -0.1333  0.0520
  157SAPE    C117460   0.093   4.526   6.074 -0.7640 -0.0880  0.9499
  157SAPE    HA17461   0.020   4.506   5.992  1.8683 -1.7533 -1.1647
  157SAPE    HB17462   0.157   4.435   6.068  0.3924  0.7340  0.3134
  157SAPE    C217463   0.029   4.540   6.207  0.3055  0.1055 -0.2801
  157SAPE    HS17464  -0.021   4.639   6.208 -1.0086 -0.5121 -1.6317
  157SAPE   O2117465   0.141   4.528   6.298  0.3076  0.3326 -0.1147
  157SAPE   C2117466   0.137   4.597   6.419  0.7937  0.7380  0.8765
  157SAPE   O2217467   0.043   4.670   6.444  0.3560  0.3464 -0.4151
  157SAPE   C2217468   0.242   4.548   6.511  0.3876  0.5085 -0.4103
  157SAPE   H2R17469   0.191   4.476   6.578  1.9558  2.2848  2.9563
  157SAPE   H2S17470   0.329   4.509   6.454  0.6345 -1.1977  1.0356
  157SAPE    C317471  -0.068   4.423   6.237  0.3937  0.3118 -0.3578
  157SAPE    HX17472  -0.005   4.331   6.246  0.3222  0.3898  1.3982
  157SAPE    HY17473  -0.143   4.424   6.155 -0.6979  1.1587  0.6106
  157SAPE   O3117474  -0.142   4.414   6.363  0.1680  0.4210  0.5578
  157SAPE   C3117475  -0.221   4.522   6.389  0.3685 -0.1481  0.3880
  157SAPE   O3217476  -0.229   4.620   6.309 -0.0759  0.4369  0.3496
  157SAPE   C3217477  -0.283   4.510   6.521  0.0334 -0.1261  0.5202
  157SAPE   H2X17478  -0.375   4.448   6.512  1.6231 -2.5355  0.0591
  157SAPE   H2Y17479  -0.304   4.614   6.554  3.6885  0.7284  0.5771
  157SAPE   C2317480   0.285   4.665   6.597 -0.0486  0.0465  0.7962
  157SAPE   H3R17481   0.198   4.701   6.655 -0.4300 -0.2543  0.4211
  157SAPE   H3S17482   0.310   4.752   6.532 -1.9945 -0.1762 -0.3416
  157SAPE   C2417483   0.408   4.630   6.686 -0.5564  0.2194  0.0129
  157SAPE   H4R17484   0.479   4.551   6.654 -0.6766  0.1004  0.0367
  157SAPE   H4S17485   0.372   4.592   6.784  0.6541 -1.5195 -0.1661
  157SAPE   C2517486   0.493   4.750   6.702 -0.2137 -1.0981 -0.1341
  157SAPE   H5R17487   0.579   4.757   6.635  1.9114 -3.7109  2.0676
  157SAPE   C2617488   0.456   4.849   6.790  0.8717  0.5675  0.6230
  157SAPE   H6R17489   0.528   4.932   6.798  2.6301 -0.6233 -1.5545
  157SAPE   C2717490   0.333   4.854   6.882 -0.0276  0.1185 -0.1508
  157SAPE   H7R17491   0.361   4.807   6.979 -1.2494 -0.5014 -0.0815
  157SAPE   H7S17492   0.253   4.787   6.844  0.0910 -0.0401 -0.1249
  157SAPE   C2817493   0.288   5.001   6.903  0.0775  0.6114  0.2930
  157SAPE   H8R17494   0.257   5.050   6.810  1.6973  0.7129 -0.2195
  157SAPE   C2917495   0.279   5.066   7.019  0.7093 -0.0981  0.0492
  157SAPE   H9R17496   0.242   5.169   7.017 -0.4557 -0.4693  0.9947
  157SAPE  C21017497   0.325   5.011   7.154 -0.1916 -0.3845 -0.9511
  157SAPE  H10R17498   0.341   5.087   7.233  2.0682  0.0366 -1.7547
  157SAPE  H10S17499   0.423   4.962   7.136  1.4638  2.6204 -0.6915
  157SAPE  C21117500   0.239   4.897   7.206 -0.1288  0.1836  0.5192
  157SAPE  H11R17501   0.204   4.836   7.122  0.6624  1.0512 -0.4635
  157SAPE  C21217502   0.217   4.865   7.339  0.6107 -1.0091  0.0729
  157SAPE  H12R17503   0.141   4.792   7.370  0.3514 -0.0977  1.6668
  157SAPE  C21317504   0.272   4.943   7.455 -0.7128  0.0987 -0.6712
  157SAPE  H13R17505   0.230   5.046   7.466  1.2013  0.7782  0.8201
  157SAPE  H13S17506   0.379   4.969   7.445 -0.6919  0.1207 -0.4032
  157SAPE  C21417507   0.266   4.876   7.589  0.0945 -0.1531  0.2030
  157SAPE  H14R17508   0.303   4.773   7.592  0.5917  0.0417  1.4421
  157SAPE  C21517509   0.234   4.933   7.710  0.0980  0.7854  0.0333
  157SAPE  H15R17510   0.248   4.863   7.794  0.0997  0.4839 -0.2131
  157SAPE  C21617511   0.185   5.072   7.734 -0.0349 -0.6434  0.5499
  157SAPE  H16R17512   0.093   5.076   7.671  0.1088 -2.2703  0.1910
  157SAPE  H16S17513   0.253   5.156   7.708 -1.0191  0.0492  0.1320
  157SAPE  C21717514   0.125   5.093   7.877  0.2641  0.0594  0.0034
  157SAPE  H17R17515   0.205   5.091   7.954 -1.0961 -3.8964  1.5673
  157SAPE  H17S17516   0.044   5.025   7.909  0.0776  1.4062  2.6553
  157SAPE  C21817517   0.036   5.217   7.868  0.0961 -0.0360  0.6622
  157SAPE  H18R17518  -0.046   5.203   7.795  0.6494  0.4858 -0.0853
  157SAPE  H18S17519   0.105   5.299   7.837  1.0737 -0.4886  1.5581
  157SAPE  C21917520  -0.027   5.255   8.009  0.0837 -0.3773  0.4231
  157SAPE  H19R17521   0.057   5.278   8.077  0.0757  0.3126  0.2085
  157SAPE  H19S17522  -0.086   5.171   8.051 -2.3993  1.9138  1.8277
  157SAPE  C22017523  -0.101   5.391   7.993  0.2054  0.4610 -0.6093
  157SAPE  H20R17524  -0.119   5.416   8.100  3.2207 -2.6500  0.8104
  157SAPE  H20S17525  -0.186   5.375   7.923  0.7835  1.2490 -1.5065
  157SAPE  H20T17526  -0.030   5.466   7.953  0.6779  0.6367  0.5084
  157SAPE   C3317527  -0.197   4.449   6.634  0.0146  0.1266  0.2630
  157SAPE   H3X17528  -0.118   4.382   6.594 -0.6386 -1.1304  1.0122
  157SAPE   H3Y17529  -0.271   4.394   6.696 -0.8989 -0.4800 -1.3135
  157SAPE   C3417530  -0.126   4.551   6.732 -0.6071 -0.3703  0.4840
  157SAPE   H4X17531  -0.189   4.629   6.780  1.5254  1.1175  1.0036
  157SAPE   H4Y17532  -0.045   4.603   6.677 -0.2831 -1.4363 -0.0759
  157SAPE   C3517533  -0.060   4.472   6.844 -0.0469  0.5246 -0.0003
  157SAPE   H5X17534  -0.054   4.364   6.818 -0.5396  0.1256  1.4658
  157SAPE   H5Y17535  -0.135   4.484   6.925  1.9392  1.2723  1.8114
  157SAPE   C3617536   0.082   4.525   6.885  0.5004 -0.0226 -0.4983
  157SAPE   H6X17537   0.080   4.634   6.905 -0.5047 -0.2213  0.6097
  157SAPE   H6Y17538   0.138   4.519   6.789  0.2988  0.1624 -0.6288
  157SAPE   C3717539   0.148   4.449   7.002  0.1981  0.1913 -0.2743
  157SAPE   H7X17540   0.234   4.512   7.034 -0.1106  0.2721  0.3995
  157SAPE   H7Y17541   0.185   4.350   6.969 -0.4110  0.0988 -0.6928
  157SAPE   C3817542   0.058   4.422   7.125 -0.3067 -0.4160  0.5806
  157SAPE   H8X17543   0.116   4.363   7.200  0.2215 -0.7085 -0.0430
  157SAPE   H8Y17544  -0.019   4.346   7.102 -1.0603  0.7251 -0.7797
  157SAPE   C3917545   0.003   4.548   7.186  0.3488  0.3528  0.9590
  157SAPE   H9X17546  -0.068   4.592   7.113  1.5580 -1.5625 -1.5050
  157SAPE   H9Y17547   0.084   4.622   7.203 -0.1550  0.8801  1.0822
  157SAPE  C31017548  -0.060   4.527   7.327  0.1253 -0.1563  0.2397
  157SAPE  H10X17549  -0.129   4.442   7.303  2.3571 -2.2706  0.9213
  157SAPE  H10Y17550  -0.107   4.624   7.354 -1.8044 -1.2820  1.1202
  157SAPE  C31117551   0.043   4.488   7.435 -0.2268  0.5324 -0.2022
  157SAPE  H11X17552   0.132   4.554   7.437  0.0423  0.1569  0.5385
  157SAPE  H11Y17553   0.086   4.392   7.399  0.9059  1.0252 -0.2102
  157SAPE  C31217554  -0.028   4.473   7.578 -0.3813 -0.0585  0.9464
  157SAPE  H12X17555  -0.106   4.397   7.560 -0.7275  0.9605 -2.6705
  157SAPE  H12Y17556  -0.065   4.576   7.599  1.6732  1.2656 -1.3197
  157SAPE  C31317557   0.068   4.421   7.675  0.0070  0.2080  0.0115
  157SAPE  H13X17558   0.165   4.476   7.673  1.3310 -1.9953 -0.1933
  157SAPE  H13Y17559   0.090   4.312   7.665  0.8951  0.0360  2.8376
  157SAPE  C31417560   0.017   4.443   7.824 -0.0933 -0.4269 -0.0310
  157SAPE  H14X17561   0.071   4.377   7.895  0.4424 -1.0725 -1.0227
  157SAPE  H14Y17562  -0.091   4.425   7.837  0.4503 -2.6375  2.1877
  157SAPE  C31517563   0.048   4.590   7.875  0.7338 -0.0632  0.0163
  157SAPE  H15X17564  -0.016   4.658   7.815  0.0339  1.0026  1.9190
  157SAPE  H15Y17565   0.153   4.613   7.846  0.8103 -0.4753 -0.0477
  157SAPE  C31617566   0.024   4.602   8.026  0.2143  0.2993  0.1810
  157SAPE  H16X17567   0.101   4.548   8.084 -1.7231  0.3623  2.9973
  157SAPE  H16Y17568  -0.071   4.556   8.063 -0.1004  1.0120  0.2779
  157SAPE  C31717569   0.023   4.750   8.065  0.4208  0.0881 -0.4729
  157SAPE  H17X17570  -0.065   4.814   8.044  1.0163  1.1073  0.0570
  157SAPE  H17Y17571   0.114   4.787   8.014  2.4934 -0.6626  2.4014
  157SAPE  C31817572   0.061   4.766   8.214  0.0658 -0.4714  0.0785
  157SAPE  H18X17573   0.088   4.872   8.234  0.4485 -1.0597  3.0775
  157SAPE  H18Y17574   0.145   4.697   8.239  0.0098 -1.0685 -1.3049
  157SAPE  H18Z17575  -0.028   4.748   8.278  0.2856 -1.1961  0.1852
  158SAPE     N17576   5.339   2.285   6.794  0.1213  0.0826  0.2987
  158SAPE   HN117577   5.371   2.325   6.884 -0.1450 -0.5721  0.6903
  158SAPE   HN217578   5.247   2.327   6.769  0.5151  0.4793 -0.5180
  158SAPE   HN317579   5.322   2.182   6.799  2.6165 -0.3637  1.1572
  158SAPE   C1217580   5.424   2.303   6.675  0.0824 -0.1511 -0.2319
  158SAPE  H12A17581   5.505   2.227   6.674  0.1466 -0.1696  1.7825
  158SAPE  H12B17582   5.478   2.400   6.672  0.9839 -0.6486 -0.3072
  158SAPE   C1117583   5.345   2.286   6.545 -0.1486 -0.5861 -0.0493
  158SAPE  H11A17584   5.301   2.184   6.548  0.4306 -0.8441 -0.2505
  158SAPE  H11B17585   5.419   2.307   6.465 -2.3087  0.5533 -1.8664
  158SAPE     P17586   5.139   2.363   6.414  0.0448 -0.0382 -0.3355
  158SAPE   O1317587   5.209   2.409   6.293  0.0067 -0.0055 -0.8942
  158SAPE   O1417588   5.080   2.226   6.407 -0.4001 -0.5750 -0.0081
  158SAPE   O1217589   5.237   2.380   6.536 -0.2248  1.3545  0.0395
  158SAPE   O1117590   5.028   2.468   6.452  0.1665  0.0394 -0.2026
  158SAPE    C117591   5.053   2.590   6.515  0.4930 -0.3872  0.0680
  158SAPE    HA17592   5.161   2.613   6.512  0.0299  1.9089 -1.4631
  158SAPE    HB17593   4.986   2.665   6.467  0.2293 -0.6502  0.0229
  158SAPE    C217594   5.019   2.575   6.665  1.4537 -0.7298  0.0494
  158SAPE    HS17595   5.114   2.568   6.722  0.4016 -0.8905  1.8515
  158SAPE   O2117596   4.918   2.474   6.698 -0.0123 -0.1019  0.1765
  158SAPE   C2117597   4.964   2.379   6.764  0.3178 -0.3131  0.5450
  158SAPE   O2217598   5.077   2.355   6.803 -0.0252 -0.6985 -1.0379
  158SAPE   C2217599   4.851   2.272   6.770 -0.1887 -0.3538 -1.1481
  158SAPE   H2R17600   4.758   2.332   6.759 -0.7635 -1.1441 -0.6782
  158SAPE   H2S17601   4.874   2.204   6.686  1.9436  0.9096 -1.6683
  158SAPE    C317602   4.965   2.713   6.727 -0.3110 -0.7910  0.4897
  158SAPE    HX17603   4.869   2.746   6.680  0.3986 -1.3727 -1.4607
  158SAPE    HY17604   5.036   2.796   6.706  1.1276 -1.0656  3.6462
  158SAPE   O3117605   4.948   2.705   6.872 -0.2542  0.0718 -0.5020
  158SAPE   C3117606   5.060   2.709   6.938 -0.0752 -0.0794  0.7019
  158SAPE   O3217607   5.172   2.705   6.895 -0.0538 -0.2894 -0.2394
  158SAPE   C3217608   5.026   2.730   7.084  0.3087  0.3534 -0.0352
  158SAPE   H2X17609   5.004   2.628   7.120  1.9014 -0.5622 -1.5067
  158SAPE   H2Y17610   4.929   2.783   7.086 -0.1791 -0.3233 -2.5980
  158SAPE   C2317611   4.843   2.196   6.901  0.5923 -0.0784  0.2352
  158SAPE   H3R17612   4.877   2.270   6.977  0.4382  0.6612 -0.4014
  158SAPE   H3S17613   4.921   2.117   6.901  1.5860  0.8102  2.5873
  158SAPE   C2417614   4.709   2.136   6.946  0.0496 -0.3160 -0.2138
  158SAPE   H4R17615   4.643   2.214   6.990  4.3047  2.0670  2.6063
  158SAPE   H4S17616   4.737   2.073   7.033 -1.9491 -2.0703 -0.7402
  158SAPE   C2517617   4.650   2.059   6.828  0.2277  0.6304 -0.7859
  158SAPE   H5R17618   4.652   2.112   6.731  3.7462  1.4325 -0.4135
  158SAPE   C2617619   4.604   1.937   6.831  0.2091 -0.6086  0.3360
  158SAPE   H6R17620   4.561   1.891   6.741 -1.0884 -0.8179  1.0300
  158SAPE   C2717621   4.595   1.854   6.953  1.0160 -0.1527 -0.3579
  158SAPE   H7R17622   4.493   1.855   6.997  0.7547  0.1650 -0.9695
  158SAPE   H7S17623   4.664   1.880   7.036  0.3222 -0.7646  0.4335
  158SAPE   C2817624   4.630   1.713   6.916  0.1326 -1.2203 -0.5488
  158SAPE   H8R17625   4.549   1.650   6.876 -2.6073  1.9788 -0.5743
  158SAPE   C2917626   4.744   1.657   6.931  0.3447  0.0340 -0.0629
  158SAPE   H9R17627   4.759   1.551   6.907  1.4387  0.2408 -0.3482
  158SAPE  C21017628   4.866   1.724   6.984  0.2298  0.3616  0.0960
  158SAPE  H10R17629   4.855   1.829   7.017 -0.5309  1.0751 -2.2214
  158SAPE  H10S17630   4.927   1.741   6.893  0.7187 -2.9669 -0.3399
  158SAPE  C21117631   4.944   1.640   7.086  0.2156  0.0190 -0.9818
  158SAPE  H11R17632   5.025   1.577   7.045  2.2212  2.6862 -1.3680
  158SAPE  C21217633   4.920   1.631   7.224  0.9511  0.4124  0.2021
  158SAPE  H12R17634   4.988   1.565   7.280  2.2895  1.7885  0.2299
  158SAPE  C21317635   4.812   1.703   7.308  0.8114  0.4565  0.0017
  158SAPE  H13R17636   4.824   1.661   7.410  0.3256 -3.3503 -1.3425
  158SAPE  H13S17637   4.710   1.675   7.274  1.2446 -1.2916  0.0124
  158SAPE  C21417638   4.820   1.850   7.330  0.0256 -1.0020 -0.1402
  158SAPE  H14R17639   4.896   1.906   7.274 -1.3591  1.0430 -0.0729
  158SAPE  C21517640   4.760   1.915   7.432  0.3963  0.2890  0.0461
  158SAPE  H15R17641   4.787   2.019   7.457  0.3645  0.4029 -0.3801
  158SAPE  C21617642   4.665   1.850   7.526  0.2113  0.4401  0.4177
  158SAPE  H16R17643   4.718   1.783   7.597 -1.5321 -1.3572  0.1350
  158SAPE  H16S17644   4.610   1.778   7.461  1.8962  0.1220 -0.7387
  158SAPE  C21717645   4.569   1.944   7.598  0.2444  0.2466 -0.1353
  158SAPE  H17R17646   4.506   1.998   7.524  0.7171 -1.6261 -1.9724
  158SAPE  H17S17647   4.630   2.021   7.652  0.1740  0.3557 -0.2102
  158SAPE  C21817648   4.484   1.874   7.705 -0.6293 -0.2617  0.0263
  158SAPE  H18R17649   4.554   1.841   7.785  1.4470 -0.9085 -1.9420
  158SAPE  H18S17650   4.433   1.793   7.650  1.4811 -1.2823 -0.5018
  158SAPE  C21917651   4.376   1.962   7.758 -0.1045 -0.3201  0.0834
  158SAPE  H19R17652   4.296   1.893   7.796 -0.2026  0.1910  0.8333
  158SAPE  H19S17653   4.319   2.017   7.680 -1.9620 -1.2374  0.7234
  158SAPE  C22017654   4.411   2.063   7.867  0.4300 -0.3221 -0.6227
  158SAPE  H20R17655   4.469   2.151   7.832 -0.4446  0.3984 -0.3052
  158SAPE  H20S17656   4.466   2.008   7.947 -0.4305  0.4078  0.4971
  158SAPE  H20T17657   4.318   2.095   7.918 -1.2871 -1.7414 -2.7040
  158SAPE   C3317658   5.143   2.789   7.162 -0.4685  0.0247 -0.1643
  158SAPE   H3X17659   5.163   2.895   7.137  3.1946 -0.1357  1.4947
  158SAPE   H3Y17660   5.232   2.733   7.125 -0.7240 -0.5648  0.0888
  158SAPE   C3417661   5.136   2.759   7.311 -0.6463  0.2312 -0.0821
  158SAPE   H4X17662   5.130   2.650   7.330  1.5270  0.6148  3.8565
  158SAPE   H4Y17663   5.051   2.821   7.348  0.2565  1.6520 -0.2909
  158SAPE   C3517664   5.255   2.817   7.386 -0.0454 -0.5146  0.2174
  158SAPE   H5X17665   5.275   2.919   7.349 -1.2981 -0.6812 -1.0069
  158SAPE   H5Y17666   5.343   2.753   7.362 -1.5755 -2.0909 -1.5845
  158SAPE   C3617667   5.221   2.826   7.535 -0.4826 -0.0516 -0.1557
  158SAPE   H6X17668   5.161   2.734   7.551  0.2085 -0.5148 -0.1965
  158SAPE   H6Y17669   5.144   2.903   7.555 -1.8195 -1.8618  2.0860
  158SAPE   C3717670   5.334   2.835   7.634  0.2117  0.4007  0.2090
  158SAPE   H7X17671   5.389   2.931   7.629  0.8813  0.1945  2.4648
  158SAPE   H7Y17672   5.295   2.842   7.738  1.4448 -0.2169  0.7313
  158SAPE   C3817673   5.428   2.708   7.638  0.2315 -0.7564 -1.1213
  158SAPE   H8X17674   5.516   2.734   7.574  1.4576 -0.5000  0.5870
  158SAPE   H8Y17675   5.382   2.616   7.596  2.4049 -1.2764 -2.5312
  158SAPE   C3917676   5.494   2.685   7.779  0.1147 -0.4897 -0.1172
  158SAPE   H9X17677   5.422   2.618   7.832  1.3814 -1.6703  0.1686
  158SAPE   H9Y17678   5.504   2.778   7.839  0.0274 -0.6393  0.1328
  158SAPE  C31017679   5.633   2.610   7.764  0.0546 -0.5585  0.0721
  158SAPE  H10X17680   5.702   2.659   7.692 -1.3857  1.8807  0.2418
  158SAPE  H10Y17681   5.622   2.503   7.736  1.4538 -0.2959 -1.6762
  158SAPE  C31117682   5.705   2.606   7.904  0.3731  0.0245  0.2320
  158SAPE  H11X17683   5.634   2.537   7.954  1.9433 -2.2184 -0.4774
  158SAPE  H11Y17684   5.701   2.712   7.937 -1.1277  0.2284 -0.5457
  158SAPE  C31217685   5.848   2.546   7.896  0.2923 -0.7589 -0.4795
  158SAPE  H12X17686   5.842   2.455   7.833 -1.8526 -0.8212 -0.2558
  158SAPE  H12Y17687   5.890   2.511   7.992 -0.4282 -1.3105 -0.3656
  158SAPE  C31317688   5.952   2.651   7.841 -0.1453  0.2674 -1.2607
  158SAPE  H13X17689   5.960   2.712   7.933  0.3441 -1.4979 -0.1023
  158SAPE  H13Y17690   5.910   2.714   7.759  1.4658 -0.6116 -2.8357
  158SAPE  C31417691   6.084   2.582   7.813  0.7242 -0.1333 -1.0082
  158SAPE  H14X17692   6.154   2.654   7.767  1.4441 -0.0886  0.1322
  158SAPE  H14Y17693   6.062   2.503   7.737  0.8633  0.8439 -2.1014
  158SAPE  C31517694   6.159   2.521   7.932  0.5469 -0.1216  0.1311
  158SAPE  H15X17695   6.256   2.475   7.902  0.2000 -1.0377  0.3788
  158SAPE  H15Y17696   6.097   2.431   7.956 -3.4174  2.3871  0.1387
  158SAPE  C31617697   6.170   2.593   8.068  0.6438  0.5195  0.0941
  158SAPE  H16X17698   6.077   2.649   8.090  0.3094  0.0636 -0.1404
  158SAPE  H16Y17699   6.242   2.673   8.040 -0.3433  1.9048  1.3376
  158SAPE  C31717700   6.221   2.517   8.184  0.0784  0.0260  0.4767
  158SAPE  H17X17701   6.152   2.434   8.208  1.6611 -1.6333 -0.4414
  158SAPE  H17Y17702   6.235   2.589   8.268  0.2422  0.6142 -0.0422
  158SAPE  C31817703   6.359   2.457   8.161 -0.1566  0.0235  0.8533
  158SAPE  H18X17704   6.389   2.391   8.245 -2.4387  0.3655  2.0062
  158SAPE  H18Y17705   6.431   2.541   8.158 -0.5520  0.3440 -0.0515
  158SAPE  H18Z17706   6.371   2.392   8.071  1.0561 -1.1177  1.7974
  159SAPE     N17707   0.731   5.888   6.112 -0.5932  0.6173  0.8430
  159SAPE   HN117708   0.653   5.936   6.160 -0.2825  1.5475  0.4416
  159SAPE   HN217709   0.807   5.959   6.121 -0.8631  1.3870 -2.0384
  159SAPE   HN317710   0.718   5.879   6.009  0.6908  1.1715  0.6056
  159SAPE   C1217711   0.759   5.755   6.182 -0.5914 -0.6443  0.0078
  159SAPE  H12A17712   0.848   5.780   6.245 -1.3309  0.6584  0.5825
  159SAPE  H12B17713   0.777   5.683   6.099 -2.4963 -0.5220 -0.5497
  159SAPE   C1117714   0.639   5.731   6.274  0.2977  0.7223 -0.2884
  159SAPE  H11A17715   0.648   5.798   6.363  1.8455  1.1760 -0.7680
  159SAPE  H11B17716   0.648   5.625   6.306  2.9602  0.3385 -2.0344
  159SAPE     P17717   0.408   5.685   6.142 -0.2067  0.0320 -0.2377
  159SAPE   O1317718   0.278   5.751   6.145 -0.4842  0.6337 -0.1997
  159SAPE   O1417719   0.457   5.625   6.016  0.0717  0.1596 -0.1514
  159SAPE   O1217720   0.524   5.778   6.206  0.0931 -0.1451  0.1992
  159SAPE   O1117721   0.403   5.568   6.242 -0.0965  0.0447 -0.2442
  159SAPE    C117722   0.324   5.589   6.366 -0.8208 -0.2460  0.5197
  159SAPE    HA17723   0.348   5.688   6.409 -0.2650 -0.5869  0.9922
  159SAPE    HB17724   0.218   5.569   6.337 -0.5139  0.5702 -1.2752
  159SAPE    C217725   0.354   5.487   6.473  0.1509 -0.0227  0.2504
  159SAPE    HS17726   0.319   5.393   6.427  0.2437  0.2947 -0.4908
  159SAPE   O2117727   0.274   5.517   6.589  0.7568 -0.1331  0.5224
  159SAPE   C2117728   0.244   5.413   6.662  0.2557  0.8479  0.0944
  159SAPE   O2217729   0.257   5.295   6.630 -0.6031  0.5046 -0.7988
  159SAPE   C2217730   0.186   5.461   6.795  0.1609 -0.8457 -0.5046
  159SAPE   H2R17731   0.186   5.373   6.863  3.4464 -1.7448 -1.4620
  159SAPE   H2S17732   0.252   5.532   6.850 -2.0010 -0.8120  2.2605
  159SAPE    C317733   0.504   5.488   6.517  0.7211 -0.9648 -0.2649
  159SAPE    HX17734   0.522   5.591   6.556 -2.1179  0.1892 -1.6801
  159SAPE    HY17735   0.578   5.483   6.434  1.0561 -0.6190  0.0124
  159SAPE   O3117736   0.541   5.398   6.624  0.1618  0.3051 -0.6214
  159SAPE   C3117737   0.565   5.270   6.591 -0.3816  0.4333  0.3633
  159SAPE   O3217738   0.565   5.220   6.479 -0.4595 -0.0934  0.1881
  159SAPE   C3217739   0.600   5.188   6.714 -0.0878  0.2813  0.2853
  159SAPE   H2X17740   0.578   5.082   6.692 -1.6589  0.8893 -1.3992
  159SAPE   H2Y17741   0.546   5.224   6.805 -1.9200 -1.5784  0.0217
  159SAPE   C2317742   0.045   5.512   6.779  0.1154 -0.1037  0.1420
  159SAPE   H3R17743  -0.010   5.466   6.694  0.4711  3.6350 -2.3390
  159SAPE   H3S17744   0.039   5.621   6.759  0.5780 -0.1742 -0.3776
  159SAPE   C2417745  -0.048   5.492   6.905  0.7243  0.3870  0.9442
  159SAPE   H4R17746  -0.065   5.384   6.922  1.3269  0.1167 -0.1420
  159SAPE   H4S17747  -0.150   5.523   6.874  0.6365 -0.6674  0.1400
  159SAPE   C2517748   0.012   5.554   7.033  0.7238 -0.8922  0.9044
  159SAPE   H5R17749   0.041   5.659   7.016 -0.0589 -0.9462 -0.9655
  159SAPE   C2617750   0.039   5.495   7.150 -0.9957 -0.4813 -0.5952
  159SAPE   H6R17751   0.084   5.561   7.226 -0.5657 -0.4451 -0.8806
  159SAPE   C2717752   0.021   5.353   7.180  0.0057 -0.0979  0.1743
  159SAPE   H7R17753   0.071   5.298   7.097  0.9061  0.3271  0.4209
  159SAPE   H7S17754  -0.085   5.321   7.187 -0.1623  0.1737 -1.0833
  159SAPE   C2817755   0.095   5.331   7.312 -0.4063  0.4703  0.6151
  159SAPE   H8R17756   0.202   5.308   7.300 -0.0597  1.9111  0.8412
  159SAPE   C2917757   0.033   5.329   7.433 -0.0293 -0.6539  0.7017
  159SAPE   H9R17758   0.088   5.295   7.522 -0.3610 -0.2680  1.0560
  159SAPE  C21017759  -0.111   5.342   7.475 -0.2609 -0.0831  0.2698
  159SAPE  H10R17760  -0.150   5.239   7.492  0.1049 -0.0664  1.2673
  159SAPE  H10S17761  -0.166   5.358   7.379  1.2717 -0.4445 -0.6946
  159SAPE  C21117762  -0.138   5.447   7.577 -0.0714 -0.2750 -0.1698
  159SAPE  H11R17763  -0.053   5.515   7.597  1.2369 -1.9948  0.3480
  159SAPE  C21217764  -0.251   5.471   7.644  0.4706 -0.6363 -0.2021
  159SAPE  H12R17765  -0.255   5.547   7.723  3.0574  0.1018 -0.6886
  159SAPE  C21317766  -0.377   5.390   7.620 -0.1914 -0.3616 -0.4859
  159SAPE  H13R17767  -0.396   5.319   7.703 -0.1272  0.1866  0.0080
  159SAPE  H13S17768  -0.377   5.325   7.531 -2.4513 -0.3280 -0.5789
  159SAPE  C21417769  -0.497   5.484   7.610  0.1589 -0.2110 -0.0308
  159SAPE  H14R17770  -0.495   5.577   7.668  0.4798 -0.6235  0.6321
  159SAPE  C21517771  -0.598   5.464   7.529  0.5660 -0.3534  0.9578
  159SAPE  H15R17772  -0.689   5.526   7.533  1.3897  1.0248 -0.4059
  159SAPE  C21617773  -0.617   5.355   7.423 -0.1906  0.2116  0.3623
  159SAPE  H16R17774  -0.714   5.303   7.436 -1.9884  3.2355  0.1072
  159SAPE  H16S17775  -0.533   5.282   7.428 -0.4407 -0.0681  0.5455
  159SAPE  C21717776  -0.617   5.398   7.274 -0.1394  0.1346  0.3050
  159SAPE  H17R17777  -0.689   5.483   7.265 -0.2938  0.0341  0.5945
  159SAPE  H17S17778  -0.642   5.323   7.195  0.1195  0.7550 -0.3818
  159SAPE  C21817779  -0.485   5.476   7.233  0.8559 -0.2385  0.2272
  159SAPE  H18R17780  -0.405   5.418   7.283  0.7142  1.1723  2.2121
  159SAPE  H18S17781  -0.491   5.574   7.285  0.2921 -0.1867  0.0763
  159SAPE  C21917782  -0.473   5.492   7.086  1.0924  0.1941  0.5287
  159SAPE  H19R17783  -0.451   5.393   7.041 -1.0850  0.5989 -1.6921
  159SAPE  H19S17784  -0.391   5.561   7.055  1.3166 -0.5686 -0.6699
  159SAPE  C22017785  -0.608   5.532   7.010 -0.2887  0.6269  0.3112
  159SAPE  H20R17786  -0.671   5.441   7.008  2.6712 -1.5924 -1.3974
  159SAPE  H20S17787  -0.580   5.565   6.908 -1.5112 -0.6293 -0.4638
  159SAPE  H20T17788  -0.651   5.622   7.060  0.2623  1.3886 -0.5552
  159SAPE   C3317789   0.750   5.193   6.760 -0.0618 -1.1314 -0.0851
  159SAPE   H3X17790   0.777   5.296   6.789  2.1373 -1.8865  0.7812
  159SAPE   H3Y17791   0.822   5.176   6.677  0.4474  1.6939 -0.3148
  159SAPE   C3417792   0.789   5.103   6.879 -0.1517  0.1809  0.4480
  159SAPE   H4X17793   0.898   5.122   6.888 -0.0797 -0.1107  0.1885
  159SAPE   H4Y17794   0.762   4.998   6.854  1.8351 -0.0341 -1.0023
  159SAPE   C3517795   0.732   5.154   7.014  0.5597 -0.3049 -0.1961
  159SAPE   H5X17796   0.626   5.181   6.993  0.2742  2.0593  3.4100
  159SAPE   H5Y17797   0.776   5.254   7.036 -0.8162  0.2005  0.4022
  159SAPE   C3617798   0.766   5.061   7.135 -0.0545 -0.2510  0.7119
  159SAPE   H6X17799   0.877   5.064   7.140 -0.1022  0.7697  1.6047
  159SAPE   H6Y17800   0.731   4.957   7.120  1.5249 -1.1712  2.8018
  159SAPE   C3717801   0.716   5.116   7.270  0.2569 -0.4945 -0.2666
  159SAPE   H7X17802   0.606   5.130   7.262  0.3254  1.1034  1.1407
  159SAPE   H7Y17803   0.759   5.209   7.311  0.8477  0.1850 -2.3277
  159SAPE   C3817804   0.736   5.005   7.375 -0.0650 -0.4204  0.4201
  159SAPE   H8X17805   0.846   4.994   7.379  0.2331  1.8109 -0.0833
  159SAPE   H8Y17806   0.689   4.909   7.346  0.4008 -1.2358  2.2175
  159SAPE   C3917807   0.675   5.014   7.519 -0.7500 -0.0331 -0.1802
  159SAPE   H9X17808   0.569   5.045   7.511 -0.2444  1.5706 -1.0563
  159SAPE   H9Y17809   0.731   5.096   7.570 -0.0742  0.1553 -1.1922
  159SAPE  C31017810   0.666   4.878   7.583  0.0185 -0.1874 -0.2733
  159SAPE  H10X17811   0.771   4.844   7.594 -0.2068 -1.6281 -2.0832
  159SAPE  H10Y17812   0.607   4.812   7.517 -1.9042  1.6541 -0.5095
  159SAPE  C31117813   0.603   4.890   7.720  0.0296 -0.0442  0.2063
  159SAPE  H11X17814   0.505   4.942   7.712  0.1297  0.0142 -0.6926
  159SAPE  H11Y17815   0.663   4.954   7.788 -1.5052  0.6037  0.9991
  159SAPE  C31217816   0.591   4.758   7.799  0.4421 -0.1552  0.1250
  159SAPE  H12X17817   0.692   4.712   7.797  1.3536  1.7671 -1.9425
  159SAPE  H12Y17818   0.504   4.705   7.753 -0.5790  0.8324  0.8791
  159SAPE  C31317819   0.547   4.779   7.949 -0.1927  0.1968 -0.1151
  159SAPE  H13X17820   0.535   4.677   7.991  0.1651 -0.2173 -0.9978
  159SAPE  H13Y17821   0.447   4.827   7.942  0.4644  1.6121 -0.1871
  159SAPE  C31417822   0.645   4.853   8.036  0.2616 -0.7588  0.4013
  159SAPE  H14X17823   0.593   4.846   8.134  1.4791 -3.2139  0.9547
  159SAPE  H14Y17824   0.646   4.960   8.008 -3.6306 -0.4266  0.9452
  159SAPE  C31517825   0.779   4.793   8.055 -0.0667  1.3043  0.8612
  159SAPE  H15X17826   0.840   4.776   7.963 -1.6542  0.0764 -0.0071
  159SAPE  H15Y17827   0.773   4.691   8.097 -0.2525  2.0221  2.6905
  159SAPE  C31617828   0.848   4.862   8.173 -0.0132  0.4313  0.3298
  159SAPE  H16X17829   0.796   4.830   8.266 -0.7268 -0.9752 -0.5287
  159SAPE  H16Y17830   0.832   4.970   8.153  1.0595  0.4305 -0.6134
  159SAPE  C31717831   0.996   4.828   8.194  1.0979  0.0636  0.0565
  159SAPE  H17X17832   1.051   4.917   8.232 -1.8848  1.8863  0.3916
  159SAPE  H17Y17833   1.034   4.808   8.091  1.3240  2.1157 -0.3026
  159SAPE  C31817834   1.010   4.718   8.294 -0.8465  0.2148 -0.7018
  159SAPE  H18X17835   1.116   4.687   8.306 -1.1636 -0.2124  1.5730
  159SAPE  H18Y17836   0.960   4.627   8.255  1.2319 -0.9464 -0.7926
  159SAPE  H18Z17837   0.979   4.747   8.397 -1.8100 -1.4238 -0.4797
  160SAPE     N17838   5.671   2.128   6.380 -0.0351  0.2632  0.7599
  160SAPE   HN117839   5.682   2.227   6.411 -0.2163  0.2736  0.7955
  160SAPE   HN217840   5.689   2.129   6.278 -1.2457  1.9497  0.5078
  160SAPE   HN317841   5.571   2.103   6.395 -0.8250  0.7925 -2.7150
  160SAPE   C1217842   5.767   2.041   6.465  0.3409 -0.6386  0.6996
  160SAPE  H12A17843   5.727   2.045   6.568  0.1572 -2.3298  0.7232
  160SAPE  H12B17844   5.861   2.100   6.471 -0.1209  0.1148  0.5687
  160SAPE   C1117845   5.782   1.896   6.419 -0.2880 -0.6594  0.3091
  160SAPE  H11A17846   5.680   1.853   6.427 -1.4884  2.2908  2.7542
  160SAPE  H11B17847   5.851   1.846   6.490 -0.6619 -0.4616  0.8169
  160SAPE     P17848   5.892   1.750   6.225  0.2762 -0.0047 -0.4852
  160SAPE   O1317849   5.775   1.671   6.177 -0.0823  0.3116  0.2205
  160SAPE   O1417850   5.994   1.779   6.123  0.2253  0.1430  0.4244
  160SAPE   O1217851   5.839   1.890   6.286 -0.0985  0.1305  0.2338
  160SAPE   O1117852   5.939   1.672   6.356  0.6555  0.4221 -0.5214
  160SAPE    C117853   5.935   1.529   6.345  0.4975 -0.0507  0.3696
  160SAPE    HA17854   5.827   1.504   6.342 -0.4993  3.3370  2.6160
  160SAPE    HB17855   5.984   1.484   6.256  1.2323  1.3992  0.0095
  160SAPE    C217856   5.995   1.461   6.471 -0.0359  0.1587 -0.2828
  160SAPE    HS17857   5.951   1.360   6.458 -0.4574  0.6377 -3.7792
  160SAPE   O2117858   5.951   1.533   6.588  0.0225  0.2604  0.3260
  160SAPE   C2117859   5.825   1.525   6.623 -0.1782 -0.1747 -0.4273
  160SAPE   O2217860   5.756   1.430   6.591 -0.6421 -0.1589  0.5776
  160SAPE   C2217861   5.784   1.643   6.715  0.5360 -0.2312  0.8807
  160SAPE   H2R17862   5.817   1.734   6.659  0.9515 -1.0384 -0.2196
  160SAPE   H2S17863   5.675   1.651   6.699  0.8336 -1.3952 -2.5993
  160SAPE    C317864   6.145   1.440   6.468 -0.6307  0.1210 -0.2075
  160SAPE    HX17865   6.193   1.533   6.429  3.3772 -0.3600  2.9332
  160SAPE    HY17866   6.172   1.371   6.384  0.8449  1.5018 -0.9357
  160SAPE   O3117867   6.203   1.390   6.588  0.0101  0.0188  0.0084
  160SAPE   C3117868   6.182   1.266   6.631 -0.3991 -0.0202 -0.1027
  160SAPE   O3217869   6.132   1.180   6.563  1.0991 -0.0778  0.4496
  160SAPE   C3217870   6.244   1.240   6.770  0.0544 -0.0599 -0.4944
  160SAPE   H2X17871   6.339   1.298   6.776  0.6728 -0.8098 -2.2397
  160SAPE   H2Y17872   6.274   1.133   6.769 -0.7172 -0.2851 -0.1174
  160SAPE   C2317873   5.842   1.638   6.856 -0.0456 -0.6009  0.2018
  160SAPE   H3R17874   5.850   1.745   6.886  0.3437 -1.0573  1.8308
  160SAPE   H3S17875   5.945   1.596   6.860 -0.2285 -0.9848  1.0599
  160SAPE   C2417876   5.755   1.570   6.969  0.2957 -0.2758 -0.9344
  160SAPE   H4R17877   5.745   1.459   6.960 -0.0524 -0.1482 -2.3890
  160SAPE   H4S17878   5.650   1.604   6.957  0.6499  1.1771 -0.1372
  160SAPE   C2517879   5.800   1.595   7.113  0.3079  0.0387  0.1097
  160SAPE   H5R17880   5.900   1.556   7.138  0.7544  1.1682  0.1579
  160SAPE   C2617881   5.747   1.681   7.202  0.2125  0.0632  0.0287
  160SAPE   H6R17882   5.785   1.684   7.305 -0.1062  2.7245  0.1200
  160SAPE   C2717883   5.631   1.772   7.178 -0.0738  0.0171 -0.5138
  160SAPE   H7R17884   5.546   1.747   7.245 -0.1897 -0.4379 -0.8258
  160SAPE   H7S17885   5.588   1.762   7.076 -0.4624 -1.0844 -0.2496
  160SAPE   C2817886   5.666   1.919   7.204 -0.3095 -0.3882  0.3570
  160SAPE   H8R17887   5.727   1.958   7.121 -0.7227 -2.1327 -0.8211
  160SAPE   C2917888   5.619   1.996   7.304  0.1402  0.2924  0.2167
  160SAPE   H9R17889   5.670   2.092   7.321 -0.3286  0.9767 -1.8868
  160SAPE  C21017890   5.519   1.953   7.409 -0.8398  0.0797  0.1649
  160SAPE  H10R17891   5.459   1.871   7.364  0.3225 -0.4324 -0.5151
  160SAPE  H10S17892   5.444   2.030   7.435 -1.5258 -0.2632 -0.7538
  160SAPE  C21117893   5.594   1.899   7.532  0.2725 -0.2725 -0.2172
  160SAPE  H11R17894   5.669   1.821   7.510 -1.6351 -1.3896 -3.3665
  160SAPE  C21217895   5.571   1.942   7.657 -0.1553 -0.2484  0.2772
  160SAPE  H12R17896   5.614   1.877   7.734 -1.4082 -2.9454 -1.1729
  160SAPE  C21317897   5.467   2.050   7.691  0.3965  0.7012  0.0727
  160SAPE  H13R17898   5.366   2.006   7.702  1.0827 -0.9951 -0.0359
  160SAPE  H13S17899   5.450   2.135   7.622  1.7727  0.0160 -1.1803
  160SAPE  C21417900   5.509   2.095   7.830  0.1220 -0.0960  1.0932
  160SAPE  H14R17901   5.561   2.022   7.894 -0.5425 -1.5648 -0.0064
  160SAPE  C21517902   5.480   2.213   7.888  0.4272 -0.2685  0.7093
  160SAPE  H15R17903   5.533   2.246   7.979 -0.0132 -1.6570  1.4964
  160SAPE  C21617904   5.384   2.324   7.833 -0.0868 -0.2040  1.0473
  160SAPE  H16R17905   5.310   2.282   7.761  1.8350 -3.6069  0.8649
  160SAPE  H16S17906   5.445   2.399   7.778  2.0228 -1.6152  1.3517
  160SAPE  C21717907   5.311   2.390   7.948 -0.0648  0.3017 -0.1553
  160SAPE  H17R17908   5.240   2.463   7.904  0.1497  0.2773 -0.5409
  160SAPE  H17S17909   5.370   2.440   8.028 -2.9438  0.0496  2.3251
  160SAPE  C21817910   5.229   2.300   8.050 -0.3380  0.0262 -0.1697
  160SAPE  H18R17911   5.271   2.197   8.042 -0.1974  0.0062  0.7267
  160SAPE  H18S17912   5.124   2.291   8.017 -0.0108 -0.8575 -1.0590
  160SAPE  C21917913   5.234   2.325   8.206  0.0233 -0.8494 -0.1137
  160SAPE  H19R17914   5.193   2.428   8.220  2.3985  0.2692 -0.7062
  160SAPE  H19S17915   5.341   2.322   8.236 -0.0331 -1.4165  0.0259
  160SAPE  C22017916   5.161   2.220   8.280 -0.3921  0.8480  0.0607
  160SAPE  H20R17917   5.215   2.124   8.265  1.1431  1.4486  1.4179
  160SAPE  H20S17918   5.057   2.214   8.242 -1.3171  1.6850  2.2871
  160SAPE  H20T17919   5.147   2.241   8.388  0.8559  1.8011  0.0627
  160SAPE   C3317920   6.142   1.263   6.894  0.6837  0.4012  0.0370
  160SAPE   H3X17921   6.058   1.193   6.876  0.1861  1.1897 -0.7783
  160SAPE   H3Y17922   6.109   1.369   6.901  0.9710  0.4257  1.1968
  160SAPE   C3417923   6.208   1.227   7.028 -0.2434  0.7554 -0.1465
  160SAPE   H4X17924   6.266   1.314   7.063  0.0878  0.1712  0.8165
  160SAPE   H4Y17925   6.283   1.144   7.023 -0.8467  0.0658  1.4362
  160SAPE   C3517926   6.102   1.180   7.130 -0.2194 -0.4578 -0.9954
  160SAPE   H5X17927   6.052   1.088   7.092  0.8749 -1.8575  0.8109
  160SAPE   H5Y17928   6.022   1.257   7.129  1.3847  1.3814  1.2924
  160SAPE   C3617929   6.158   1.152   7.270  0.1049 -0.1287 -0.3458
  160SAPE   H6X17930   6.191   1.253   7.303  0.2288 -0.1304 -0.4596
  160SAPE   H6Y17931   6.255   1.099   7.258  0.5578  0.5714  0.1430
  160SAPE   C3717932   6.045   1.094   7.355 -0.2540  0.4054  0.6880
  160SAPE   H7X17933   6.014   0.990   7.333  1.2358 -0.9152  4.0954
  160SAPE   H7Y17934   5.960   1.162   7.332 -1.5462 -1.0293  1.0665
  160SAPE   C3817935   6.082   1.106   7.503 -0.2196  0.5140 -0.6893
  160SAPE   H8X17936   6.081   1.214   7.531  2.5007  0.6974 -0.9596
  160SAPE   H8Y17937   6.185   1.071   7.525 -0.7441 -0.4711  0.2478
  160SAPE   C3917938   5.967   1.048   7.585 -0.0702  0.1961  0.1175
  160SAPE   H9X17939   5.962   0.939   7.564  0.0731  0.1890  0.1208
  160SAPE   H9Y17940   5.873   1.102   7.563 -0.4066 -0.1764  0.6349
  160SAPE  C31017941   6.003   1.051   7.740  0.5309 -0.3959 -0.2095
  160SAPE  H10X17942   6.021   1.157   7.768 -0.7814 -0.0629 -0.5537
  160SAPE  H10Y17943   6.095   0.990   7.753 -0.6002 -2.0533  0.3124
  160SAPE  C31117944   5.885   0.988   7.813 -0.6131  0.4617  0.5391
  160SAPE  H11X17945   5.932   0.960   7.910  0.3510 -0.2359 -0.1105
  160SAPE  H11Y17946   5.847   0.893   7.770  0.6885 -0.6063  1.6459
  160SAPE  C31217947   5.767   1.076   7.865  0.5529 -0.5414 -0.5028
  160SAPE  H12X17948   5.702   1.117   7.785  0.9151  2.0838  0.4333
  160SAPE  H12Y17949   5.820   1.161   7.914 -1.4508 -0.8229  2.4437
  160SAPE  C31317950   5.689   1.002   7.978 -0.0753  0.3273 -0.0133
  160SAPE  H13X17951   5.641   0.907   7.946 -1.4791  0.9386  0.2035
  160SAPE  H13Y17952   5.609   1.068   8.018 -1.3989 -2.4683  2.3599
  160SAPE  C31417953   5.778   0.966   8.110 -0.2079  0.3626  0.4763
  160SAPE  H14X17954   5.854   1.047   8.110 -1.4263  1.5551 -0.8473
  160SAPE  H14Y17955   5.818   0.863   8.095 -0.8642  0.0968  0.5247
  160SAPE  C31517956   5.708   0.960   8.239  0.1623 -0.3474  0.1098
  160SAPE  H15X17957   5.636   0.875   8.245  1.2368 -1.4381 -1.5469
  160SAPE  H15Y17958   5.643   1.048   8.255  1.1984  0.1452  1.9057
  160SAPE  C31617959   5.790   0.963   8.365 -0.5534  0.4147  0.0741
  160SAPE  H16X17960   5.828   1.063   8.396  0.1977  0.2513 -0.2999
  160SAPE  H16Y17961   5.877   0.895   8.352 -0.6864  0.2397  0.1067
  160SAPE  C31717962   5.717   0.912   8.488  0.0475 -1.0912 -0.2769
  160SAPE  H17X17963   5.773   0.939   8.580 -1.3157 -1.0492  0.5733
  160SAPE  H17Y17964   5.702   0.802   8.497  0.7385 -1.4094 -2.4560
  160SAPE  C31817965   5.573   0.972   8.515 -0.3470 -0.2938 -0.1835
  160SAPE  H18X17966   5.526   1.020   8.426  1.4612  0.2474 -0.9037
  160SAPE  H18Y17967   5.603   1.047   8.592  0.9025 -1.5883  0.6281
  160SAPE  H18Z17968   5.507   0.896   8.561 -0.9185 -0.1128 -0.6980
  161SOPE     N17969   6.723   5.171  10.961 -0.0992 -0.2934 -0.3282
  161SOPE   HN117970   6.795   5.241  10.989 -0.8349  0.5341 -0.4803
  161SOPE   HN217971   6.668   5.217  10.887 -2.8059 -1.3258  0.9234
  161SOPE   HN317972   6.665   5.160  11.047  0.4276 -0.2940  0.0385
  161SOPE   C1217973   6.781   5.043  10.920 -0.7385  0.3669 -0.0691
  161SOPE  H12A17974   6.697   4.975  10.895  0.3101 -1.0122  0.0273
  161SOPE  H12B17975   6.846   5.009  11.004  0.7094 -1.2980 -1.7831
  161SOPE   C1117976   6.856   5.071  10.790 -0.2615  0.1287 -0.3842
  161SOPE  H11A17977   6.775   5.093  10.717 -1.1813  1.0337  0.8669
  161SOPE  H11B17978   6.919   4.986  10.756 -2.0893 -1.4999  0.1221
  161SOPE     P17979   6.984   5.278  10.683 -0.0705 -0.3825  0.0724
  161SOPE   O1317980   7.131   5.263  10.677  0.5481 -0.0714 -0.3791
  161SOPE   O1417981   6.926   5.413  10.687  0.1934 -0.4450  0.3814
  161SOPE   O1217982   6.938   5.192  10.808 -0.2857  0.9848 -0.3327
  161SOPE   O1117983   6.916   5.197  10.571 -0.0704  0.3078  1.0111
  161SOPE    C117984   6.996   5.120  10.480 -0.2036 -0.4901 -0.3870
  161SOPE    HA17985   6.932   5.037  10.442 -1.0851  0.1591 -0.3397
  161SOPE    HB17986   7.081   5.079  10.539  2.3893  2.0279 -2.1143
  161SOPE    C217987   7.045   5.184  10.355  0.5311  0.3634 -0.6329
  161SOPE    HS17988   7.104   5.276  10.375 -1.1624  1.1710  0.9034
  161SOPE   O2117989   6.920   5.219  10.288 -0.1280  0.2642 -0.0537
  161SOPE   C2117990   6.935   5.328  10.213  0.6312  0.7341  0.0270
  161SOPE   O2217991   7.030   5.399  10.205  0.6459 -0.0791  0.1896
  161SOPE   C2217992   6.805   5.361  10.142  0.7538  0.5347  0.1684
  161SOPE   H2R17993   6.731   5.385  10.221  0.1457  0.9240 -0.5014
  161SOPE   H2S17994   6.778   5.267  10.090 -0.1401  1.1145 -0.4523
  161SOPE    C317995   7.133   5.089  10.270 -0.0408  0.4389 -0.1284
  161SOPE    HX17996   7.071   5.002  10.240 -1.3698  0.7440  1.5559
  161SOPE    HY17997   7.218   5.053  10.332 -1.0682 -0.5760  0.7311
  161SOPE   O3117998   7.178   5.160  10.149 -0.0693  0.2358 -0.7925
  161SOPE   C3117999   7.297   5.226  10.159  0.4985 -0.2066  0.0081
  161SOPE   O3218000   7.372   5.234  10.254  0.1600 -0.1344  0.2268
  161SOPE   C3218001   7.328   5.282  10.016  0.0286  0.9551  0.7637
  161SOPE   H2X18002   7.268   5.233   9.936 -1.5641  0.4313  2.1977
  161SOPE   H2Y18003   7.433   5.249  10.005  0.0860  0.7378  1.8158
  161SOPE   C2318004   6.815   5.476  10.044 -0.3527 -0.2592  0.0281
  161SOPE   H3R18005   6.860   5.563  10.097 -2.6833 -0.2175  2.1626
  161SOPE   H3S18006   6.713   5.501  10.009 -1.2508 -2.2897  1.0297
  161SOPE   C2418007   6.889   5.438   9.921 -0.1474  0.3721  0.4899
  161SOPE   H4R18008   6.987   5.394   9.949  0.3011  0.8668 -0.2835
  161SOPE   H4S18009   6.826   5.353   9.887 -0.6370 -0.0929  2.4441
  161SOPE   C2518010   6.893   5.544   9.810  0.0993 -0.5743 -0.3160
  161SOPE   H5R18011   6.790   5.577   9.787  0.9048  1.2749 -1.4732
  161SOPE   H5S18012   6.953   5.626   9.854  0.3999 -1.1879  0.4401
  161SOPE   C2618013   6.965   5.499   9.677  0.6913  0.1074  0.8672
  161SOPE   H6R18014   7.065   5.452   9.693  1.5712  0.8634 -1.9012
  161SOPE   H6S18015   6.896   5.426   9.630  0.0143 -0.1916  2.2643
  161SOPE   C2718016   6.966   5.614   9.569 -0.1980 -0.5317  0.2331
  161SOPE   H7R18017   7.012   5.573   9.477 -0.8980  2.3596 -1.5136
  161SOPE   H7S18018   6.859   5.630   9.543 -0.8509  0.1817  2.9639
  161SOPE   C2818019   7.041   5.742   9.612  1.0067  0.3017  0.0072
  161SOPE   H8R18020   7.039   5.813   9.526 -0.0409 -0.3849 -0.5533
  161SOPE   H8S18021   6.977   5.796   9.686  1.1827 -0.3573  0.6530
  161SOPE   C2918022   7.178   5.726   9.672 -0.5840  0.3729  0.3665
  161SOPE   H9118023   7.187   5.682   9.772 -0.5394  0.1061  0.2481
  161SOPE  C21018024   7.291   5.758   9.611 -0.7089 -0.4364  0.6914
  161SOPE  H10118025   7.385   5.735   9.664 -0.1512 -1.7424 -0.8050
  161SOPE  C21118026   7.312   5.818   9.473 -0.2803 -0.5840 -0.0137
  161SOPE  H11R18027   7.378   5.907   9.478  0.5234 -1.1585 -0.1507
  161SOPE  H11S18028   7.219   5.866   9.437 -0.1271 -0.5168 -0.3215
  161SOPE  C21218029   7.373   5.729   9.367 -0.7837  0.0722  1.0434
  161SOPE  H12R18030   7.287   5.660   9.351 -2.4375  1.8894  1.6353
  161SOPE  H12S18031   7.468   5.681   9.398  1.1437  2.3441 -0.9436
  161SOPE  C21318032   7.416   5.820   9.244  0.4223 -0.4000  0.5614
  161SOPE  H13R18033   7.508   5.878   9.264  0.0369  0.6027 -0.4589
  161SOPE  H13S18034   7.331   5.892   9.238 -2.2450 -3.3623 -0.2996
  161SOPE  C21418035   7.433   5.750   9.105  0.0715 -0.6497 -0.7885
  161SOPE  H14R18036   7.334   5.705   9.080 -0.6476  0.4439  0.0310
  161SOPE  H14S18037   7.510   5.670   9.107  1.5083  0.6715 -1.2797
  161SOPE  C21518038   7.476   5.848   8.988  1.2439  0.1103  0.5802
  161SOPE  H15R18039   7.585   5.869   8.981  1.3150 -0.3391  0.2787
  161SOPE  H15S18040   7.442   5.952   9.006  3.3483  1.0173 -0.3712
  161SOPE  C21618041   7.434   5.795   8.851  0.4904 -0.3653  0.3896
  161SOPE  H16R18042   7.416   5.891   8.799  2.1218 -0.3797 -0.2587
  161SOPE  H16S18043   7.336   5.745   8.862  0.9620 -0.9054  2.7541
  161SOPE  C21718044   7.534   5.703   8.770  0.0031 -0.7691 -0.4984
  161SOPE  H17R18045   7.562   5.609   8.822  1.5222 -2.0191 -3.3512
  161SOPE  H17S18046   7.631   5.755   8.757 -0.2213 -0.0555  0.6018
  161SOPE  C21818047   7.495   5.673   8.627 -0.3127  0.8276  0.2545
  161SOPE  H18R18048   7.583   5.661   8.560 -1.4574 -1.4718 -0.9691
  161SOPE  H18S18049   7.419   5.746   8.593 -3.8400 -1.5807  2.3641
  161SOPE  H18T18050   7.450   5.572   8.636  0.1488  0.5949 -0.0194
  161SOPE   C3318051   7.335   5.428  10.005  0.1838  0.5021  0.0402
  161SOPE   H3X18052   7.385   5.476  10.092  3.2479  0.3597 -1.5301
  161SOPE   H3Y18053   7.230   5.465  10.010  0.1477  0.2775  2.0404
  161SOPE   C3418054   7.400   5.474   9.875  0.1950 -0.0316 -0.7652
  161SOPE   H4X18055   7.509   5.489   9.887 -0.1368  1.8572  0.3525
  161SOPE   H4Y18056   7.371   5.580   9.856  1.8853  0.6420  0.1483
  161SOPE   C3518057   7.367   5.387   9.751  0.1570  0.3181 -0.2369
  161SOPE   H5X18058   7.256   5.384   9.753  0.0133  3.1463  2.3835
  161SOPE   H5Y18059   7.413   5.289   9.773 -2.1488 -0.7414  0.2321
  161SOPE   C3618060   7.428   5.427   9.612 -0.4263  0.4482 -0.6896
  161SOPE   H6X18061   7.536   5.436   9.637 -0.9212 -0.9394  2.5068
  161SOPE   H6Y18062   7.389   5.524   9.574 -1.5240  0.6687  0.9156
  161SOPE   C3718063   7.412   5.317   9.495 -0.7925  0.9647 -0.0075
  161SOPE   H7X18064   7.309   5.276   9.502 -0.6689  0.3104 -1.6560
  161SOPE   H7Y18065   7.471   5.227   9.524 -0.3576  0.3074 -2.6975
  161SOPE   C3818066   7.449   5.376   9.359  0.0666 -0.1000  0.2242
  161SOPE   H8X18067   7.554   5.412   9.362  0.5808 -1.5048 -0.1124
  161SOPE   H8Y18068   7.398   5.475   9.360 -2.0706 -1.1540 -0.5391
  161SOPE   C3918069   7.407   5.287   9.244  0.2798 -0.9208 -0.1769
  161SOPE   H9X18070   7.299   5.263   9.246  0.5358 -2.0437  1.5569
  161SOPE   H9Y18071   7.456   5.188   9.256  0.8419 -0.6498 -0.2091
  161SOPE  C31018072   7.445   5.335   9.100  0.1868 -1.3397 -0.2436
  161SOPE  H10X18073   7.556   5.339   9.099  0.2334 -2.2283  0.2790
  161SOPE  H10Y18074   7.403   5.435   9.077 -0.3385 -1.3115  0.7595
  161SOPE  C31118075   7.411   5.235   8.989 -0.2262 -0.2307  0.7162
  161SOPE  H11X18076   7.300   5.234   8.981 -0.2616  3.2166 -0.7384
  161SOPE  H11Y18077   7.447   5.132   9.014  1.0356 -0.5487 -1.9979
  161SOPE  C31218078   7.468   5.270   8.856 -0.7270 -0.4299 -0.1234
  161SOPE  H12X18079   7.574   5.304   8.865 -1.6884  2.2277  2.4372
  161SOPE  H12Y18080   7.407   5.347   8.803 -0.2337  0.1101  0.0766
  161SOPE  C31318081   7.479   5.141   8.771  0.5096  0.0167  0.1983
  161SOPE  H13X18082   7.382   5.123   8.719  0.6417  0.3269 -0.1599
  161SOPE  H13Y18083   7.497   5.050   8.832  0.7192 -0.9705 -1.2937
  161SOPE  C31418084   7.594   5.151   8.673  0.0014 -0.3993  0.4672
  161SOPE  H14X18085   7.674   5.135   8.748 -0.4248 -2.4282  0.5393
  161SOPE  H14Y18086   7.591   5.253   8.629  0.6726 -0.7198 -0.3623
  161SOPE  C31518087   7.622   5.055   8.554 -0.1417 -0.3142 -0.2774
  161SOPE  H15X18088   7.534   5.071   8.488 -0.4272 -0.2665  0.1119
  161SOPE  H15Y18089   7.614   4.950   8.588  1.2852 -0.9375 -1.7353
  161SOPE  C31618090   7.751   5.093   8.471 -0.2274  0.2062 -0.6735
  161SOPE  H16X18091   7.742   5.195   8.427 -1.1470  0.9757  1.1709
  161SOPE  H16Y18092   7.750   5.014   8.393  0.6024  0.3357 -0.8231
  161SOPE  C31718093   7.884   5.097   8.540  0.4236 -0.1782  0.6208
  161SOPE  H17X18094   7.889   5.006   8.604  1.6669  0.0177  0.8378
  161SOPE  H17Y18095   7.887   5.181   8.612  0.4751  0.0104  0.3987
  161SOPE  C31818096   8.007   5.107   8.454  0.8045  0.6253 -0.1851
  161SOPE  H18X18097   8.012   5.023   8.381  0.3945 -0.8896  1.4471
  161SOPE  H18Y18098   8.099   5.100   8.516 -0.2478  0.8805  1.4588
  161SOPE  H18Z18099   8.004   5.207   8.405 -3.0390 -0.1462 -1.8754
  162SOPE     N18100   3.081   5.180  10.730 -0.3779  0.3392 -0.3924
  162SOPE   HN118101   2.983   5.176  10.697 -0.8692  1.2051  0.8800
  162SOPE   HN218102   3.070   5.131  10.821  1.3879 -0.1831 -0.4248
  162SOPE   HN318103   3.118   5.275  10.752  1.5209 -1.0700  3.4627
  162SOPE   C1218104   3.179   5.108  10.637 -0.2731  0.2086  0.7085
  162SOPE  H12A18105   3.282   5.105  10.679 -0.3712  0.6307  0.9844
  162SOPE  H12B18106   3.191   5.172  10.547  1.1418 -1.0584 -0.0359
  162SOPE   C1118107   3.142   4.964  10.593 -0.0822 -1.1505  0.3256
  162SOPE  H11A18108   3.226   4.929  10.531 -0.5746 -1.7964  0.0107
  162SOPE  H11B18109   3.050   4.968  10.531 -0.7853  0.1572  1.3840
  162SOPE     P18110   3.235   4.782  10.760 -0.3382 -0.0829  0.0392
  162SOPE   O1318111   3.174   4.645  10.780  0.7291  0.0607  0.5045
  162SOPE   O1418112   3.308   4.854  10.868  0.8512 -0.0587 -0.8536
  162SOPE   O1218113   3.124   4.877  10.701 -0.6106 -0.4396  0.9208
  162SOPE   O1118114   3.335   4.770  10.638  0.0592 -0.0915  0.4091
  162SOPE    C118115   3.341   4.641  10.564 -0.1540  0.1575  0.0863
  162SOPE    HA18116   3.238   4.605  10.545 -0.0147  0.3570 -1.1108
  162SOPE    HB18117   3.395   4.569  10.629 -0.7569 -1.6922 -1.3743
  162SOPE    C218118   3.407   4.660  10.420  0.2663 -0.8118  0.2335
  162SOPE    HS18119   3.507   4.695  10.454  0.0943 -1.4708  1.5060
  162SOPE   O2118120   3.331   4.752  10.338 -0.6359 -0.1602 -0.5351
  162SOPE   C2118121   3.405   4.830  10.264  0.1432 -0.3845  0.8285
  162SOPE   O2218122   3.523   4.815  10.238 -0.0007 -0.2861  0.2063
  162SOPE   C2218123   3.319   4.945  10.219  0.0477 -0.7188 -0.2221
  162SOPE   H2R18124   3.333   5.034  10.284  0.0531  0.0651 -1.2552
  162SOPE   H2S18125   3.212   4.921  10.232 -0.1802 -0.9702 -2.1543
  162SOPE    C318126   3.423   4.521  10.355 -0.0796  0.0664  0.0991
  162SOPE    HX18127   3.332   4.458  10.364  1.3239 -1.9264  0.8519
  162SOPE    HY18128   3.494   4.456  10.410 -1.3168 -0.8032  0.7163
  162SOPE   O3118129   3.466   4.528  10.215 -0.3198 -0.3239 -0.0834
  162SOPE   C3118130   3.382   4.489  10.122 -0.2548  0.8084  0.8400
  162SOPE   O3218131   3.271   4.445  10.137 -0.0432  0.3668  0.2833
  162SOPE   C3218132   3.450   4.514   9.991 -0.6927  0.0524  0.0033
  162SOPE   H2X18133   3.543   4.453   9.984 -0.7758 -0.0857  0.0874
  162SOPE   H2Y18134   3.468   4.623   9.986  0.2827 -0.0279  1.2193
  162SOPE   C2318135   3.350   4.997  10.075 -0.2784  0.8060 -0.5338
  162SOPE   H3R18136   3.461   5.000  10.066 -0.0977 -1.6739  0.2689
  162SOPE   H3S18137   3.311   5.100  10.056  1.4684  1.3463 -1.3680
  162SOPE   C2418138   3.305   4.890   9.973  0.2928  0.0244 -0.1250
  162SOPE   H4R18139   3.292   4.790  10.020 -2.3496  0.4343  0.1757
  162SOPE   H4S18140   3.206   4.919   9.932  0.1560  0.1285  0.2731
  162SOPE   C2518141   3.405   4.877   9.856 -0.3959 -0.0385  0.6611
  162SOPE   H5R18142   3.501   4.826   9.877  1.5853  2.2694 -1.8835
  162SOPE   H5S18143   3.358   4.808   9.783  1.4913  1.0500 -1.7523
  162SOPE   C2618144   3.443   5.005   9.781  0.0006  0.1611  0.1157
  162SOPE   H6R18145   3.359   5.028   9.711  0.9860  1.1956 -0.7816
  162SOPE   H6S18146   3.451   5.082   9.861  1.0524 -2.8370  3.1163
  162SOPE   C2718147   3.577   4.993   9.706  0.3348 -1.3047 -0.2025
  162SOPE   H7R18148   3.596   5.078   9.637 -0.1259 -2.2719 -1.5650
  162SOPE   H7S18149   3.662   4.999   9.778  0.2623 -0.2117 -0.1923
  162SOPE   C2818150   3.587   4.865   9.620 -0.0145  0.7138 -0.0109
  162SOPE   H8R18151   3.559   4.778   9.684  1.2152  1.3063  1.4016
  162SOPE   H8S18152   3.506   4.869   9.545 -0.9166 -1.3619  0.7709
  162SOPE   C2918153   3.721   4.840   9.557 -0.3680 -0.0873 -0.2072
  162SOPE   H9118154   3.806   4.834   9.627  0.8753 -1.0499 -1.7304
  162SOPE  C21018155   3.750   4.826   9.428  0.6515  0.3892  0.0562
  162SOPE  H10118156   3.852   4.803   9.395  0.0445  0.1438 -1.7747
  162SOPE  C21118157   3.650   4.834   9.319  0.0158 -0.2466  0.3782
  162SOPE  H11R18158   3.583   4.920   9.338  0.8952  0.1380  1.8796
  162SOPE  H11S18159   3.582   4.747   9.322 -1.0064  0.4986 -0.4873
  162SOPE  C21218160   3.705   4.844   9.179 -0.4999 -0.0041  0.0504
  162SOPE  H12R18161   3.787   4.772   9.160  2.3911  3.0750 -0.1798
  162SOPE  H12S18162   3.755   4.942   9.166 -1.7120  0.5491 -0.6083
  162SOPE  C21318163   3.593   4.827   9.076  0.3284 -1.0167 -0.4977
  162SOPE  H13R18164   3.517   4.899   9.112 -0.2535 -2.2937  0.9010
  162SOPE  H13S18165   3.557   4.724   9.097 -0.3785 -0.5572  0.6283
  162SOPE  C21418166   3.630   4.838   8.931 -0.1448  0.2252 -0.0605
  162SOPE  H14R18167   3.710   4.761   8.921  1.7413  2.2468 -1.2467
  162SOPE  H14S18168   3.672   4.939   8.912  1.5582 -0.1394  1.4397
  162SOPE  C21518169   3.519   4.814   8.826 -0.6110 -0.2148  0.4393
  162SOPE  H15R18170   3.434   4.886   8.829 -0.0090  0.4658  1.8193
  162SOPE  H15S18171   3.493   4.709   8.849 -0.6329  0.0937  1.8910
  162SOPE  C21618172   3.575   4.809   8.676 -0.1436 -0.2656 -0.2596
  162SOPE  H16R18173   3.508   4.753   8.607 -0.4334  1.6198 -1.5881
  162SOPE  H16S18174   3.670   4.752   8.686 -0.6057 -0.7667  1.9266
  162SOPE  C21718175   3.583   4.952   8.615  0.2690 -0.0793 -0.6427
  162SOPE  H17R18176   3.657   4.940   8.533 -1.2493  1.0272 -2.2433
  162SOPE  H17S18177   3.619   5.024   8.691 -0.7355 -0.3437  0.0961
  162SOPE  C21818178   3.449   5.007   8.561 -0.5183  0.2678 -0.7059
  162SOPE  H18R18179   3.408   4.932   8.490 -0.1064 -0.6132 -0.0278
  162SOPE  H18S18180   3.481   5.096   8.503  2.8784  0.7356  1.6174
  162SOPE  H18T18181   3.372   5.032   8.638 -0.3833 -0.2370 -0.3979
  162SOPE   C3318182   3.358   4.469   9.870  0.2223 -0.9885  0.3731
  162SOPE   H3X18183   3.253   4.506   9.877  0.2208 -0.3961 -1.9432
  162SOPE   H3Y18184   3.360   4.358   9.877  1.7108 -1.1311 -1.4574
  162SOPE   C3418185   3.412   4.501   9.727 -0.4648  0.5567  0.1258
  162SOPE   H4X18186   3.509   4.448   9.714 -0.4807  0.7975 -1.1109
  162SOPE   H4Y18187   3.421   4.611   9.715 -3.5124  0.8979  0.2056
  162SOPE   C3518188   3.316   4.454   9.621  0.0846 -0.2013  0.0296
  162SOPE   H5X18189   3.209   4.481   9.631  0.1559  1.3319 -2.4602
  162SOPE   H5Y18190   3.319   4.344   9.632  0.2255 -0.5441 -2.8059
  162SOPE   C3618191   3.369   4.486   9.476 -0.0328  0.3381 -0.4968
  162SOPE   H6X18192   3.478   4.464   9.478  0.4509  2.2836 -2.1038
  162SOPE   H6Y18193   3.348   4.594   9.463 -0.6945  0.4218  1.0780
  162SOPE   C3718194   3.309   4.415   9.358  0.0468 -0.1519 -0.1215
  162SOPE   H7X18195   3.199   4.425   9.371  0.0856  0.0021  0.0887
  162SOPE   H7Y18196   3.328   4.306   9.352 -2.0120 -0.5551  0.0146
  162SOPE   C3818197   3.360   4.464   9.226  0.7863 -0.0176 -0.4643
  162SOPE   H8X18198   3.461   4.421   9.213  0.2441 -1.6469  0.4347
  162SOPE   H8Y18199   3.362   4.575   9.218 -2.3159  0.2047  0.4940
  162SOPE   C3918200   3.272   4.411   9.106 -0.1701 -0.3721  0.3085
  162SOPE   H9X18201   3.167   4.432   9.135  0.2398 -1.0788  2.5174
  162SOPE   H9Y18202   3.289   4.301   9.100 -0.6947 -0.5567  1.8323
  162SOPE  C31018203   3.305   4.474   8.960 -0.0514 -0.3684 -0.2095
  162SOPE  H10X18204   3.392   4.428   8.908  0.3048  0.7316 -0.6208
  162SOPE  H10Y18205   3.326   4.583   8.970  2.4652 -0.7931 -0.3202
  162SOPE  C31118206   3.194   4.459   8.860  0.6328  0.2410  0.1168
  162SOPE  H11X18207   3.111   4.517   8.906  1.3932 -0.3142  2.3303
  162SOPE  H11Y18208   3.157   4.354   8.853 -1.2716  0.7910  1.1065
  162SOPE  C31218209   3.234   4.511   8.725 -0.1335 -0.2924  0.6173
  162SOPE  H12X18210   3.295   4.434   8.675 -0.3650  0.2874 -0.5886
  162SOPE  H12Y18211   3.285   4.610   8.732 -0.0536 -0.3827  1.5328
  162SOPE  C31318212   3.118   4.537   8.623 -0.0171  0.5871  0.4716
  162SOPE  H13X18213   3.068   4.438   8.616  0.1980  0.4784  0.4570
  162SOPE  H13Y18214   3.162   4.568   8.526  0.1505  0.5423  0.5331
  162SOPE  C31418215   3.016   4.641   8.663  0.0380  0.3100  0.4485
  162SOPE  H14X18216   3.072   4.733   8.687 -0.1141  0.7755 -0.9099
  162SOPE  H14Y18217   2.968   4.613   8.760  0.7929 -1.4173  0.3632
  162SOPE  C31518218   2.913   4.670   8.557 -0.4096 -1.0337  0.1515
  162SOPE  H15X18219   2.956   4.703   8.460 -3.0782 -0.0034 -0.7748
  162SOPE  H15Y18220   2.841   4.753   8.571 -0.1327 -0.8794  0.6868
  162SOPE  C31618221   2.819   4.545   8.521 -0.0775  0.5937  0.8386
  162SOPE  H16X18222   2.753   4.530   8.608  1.0161 -1.2652  1.4051
  162SOPE  H16Y18223   2.880   4.454   8.501 -0.8584  0.3506 -0.5404
  162SOPE  C31718224   2.734   4.569   8.393  0.3261  0.0896 -0.2193
  162SOPE  H17X18225   2.816   4.601   8.326  1.9743  0.5364  1.9252
  162SOPE  H17Y18226   2.659   4.648   8.417 -0.5748 -1.1465  1.2423
  162SOPE  C31818227   2.665   4.453   8.323 -0.3191  0.1636  0.2454
  162SOPE  H18X18228   2.623   4.487   8.226  2.7587  3.6341 -0.0927
  162SOPE  H18Y18229   2.593   4.409   8.395  2.1753 -0.2831  2.6258
  162SOPE  H18Z18230   2.740   4.375   8.295  0.4421  0.8812  0.2513
  163SOPE     N18231   6.871   2.684  10.767 -0.1994 -0.6063 -0.3380
  163SOPE   HN118232   6.795   2.621  10.801 -0.6177 -0.8826 -1.7200
  163SOPE   HN218233   6.818   2.774  10.759 -1.8475 -1.4885  0.0862
  163SOPE   HN318234   6.907   2.647  10.677 -2.6118 -0.8416 -1.2788
  163SOPE   C1218235   6.989   2.709  10.860 -0.5518  0.7629 -0.5314
  163SOPE  H12A18236   6.942   2.718  10.960 -0.3527  1.7252 -0.5101
  163SOPE  H12B18237   7.025   2.808  10.822 -1.7945  0.4723 -2.6445
  163SOPE   C1118238   7.091   2.593  10.860 -0.3322 -0.0338 -0.1583
  163SOPE  H11A18239   7.031   2.507  10.898 -1.5084  0.4115 -0.9596
  163SOPE  H11B18240   7.168   2.624  10.934 -2.8408 -0.1637  2.6532
  163SOPE     P18241   7.267   2.627  10.669 -0.1699 -0.2181 -0.1750
  163SOPE   O1318242   7.310   2.553  10.548 -0.2728  0.0137 -0.0055
  163SOPE   O1418243   7.362   2.674  10.772  0.3953  0.6797  0.1227
  163SOPE   O1218244   7.144   2.552  10.735 -0.2970  0.1962 -0.2708
  163SOPE   O1118245   7.184   2.744  10.622  0.7207 -0.2250  0.1452
  163SOPE    C118246   7.233   2.852  10.537  0.2970  0.0069  0.4745
  163SOPE    HA18247   7.343   2.861  10.524  0.3706 -1.4325 -0.0300
  163SOPE    HB18248   7.195   2.946  10.583 -1.6077  0.1267 -1.1886
  163SOPE    C218249   7.163   2.852  10.401  0.6379  0.3488  0.2313
  163SOPE    HS18250   7.207   2.939  10.347 -0.0554  0.7611  0.3253
  163SOPE   O2118251   7.023   2.855  10.416  0.5076  0.3618 -0.1316
  163SOPE   C2118252   6.959   2.967  10.389  0.3389  0.2869  0.4355
  163SOPE   O2218253   7.008   3.068  10.350 -0.6506 -0.9084 -0.2134
  163SOPE   C2218254   6.808   2.948  10.428 -0.4829 -0.0320  0.0537
  163SOPE   H2R18255   6.811   2.906  10.531  1.3013 -1.5200 -0.5496
  163SOPE   H2S18256   6.762   2.870  10.364  1.4599  0.7715 -2.4852
  163SOPE    C318257   7.197   2.739  10.304 -0.2476 -0.3361  0.4487
  163SOPE    HX18258   7.139   2.645  10.317 -1.3980  0.5687  2.3411
  163SOPE    HY18259   7.302   2.705  10.317  0.7164  0.6878 -3.4334
  163SOPE   O3118260   7.178   2.796  10.173  0.3920  0.6055 -0.1458
  163SOPE   C3118261   7.171   2.702  10.067  0.3180  0.2957  1.0023
  163SOPE   O3218262   7.182   2.585  10.084  0.0448 -0.1680  0.3209
  163SOPE   C3218263   7.152   2.778   9.941  0.4708 -0.7145  0.0736
  163SOPE   H2X18264   7.212   2.872   9.938 -1.1624  0.3362 -1.0000
  163SOPE   H2Y18265   7.050   2.820   9.941  0.3353 -1.0365 -0.3905
  163SOPE   C2318266   6.723   3.080  10.399 -0.2602 -0.6559 -0.4237
  163SOPE   H3R18267   6.770   3.174  10.434  2.9772 -1.8554 -1.2174
  163SOPE   H3S18268   6.630   3.073  10.460  0.2775  1.1985  0.6718
  163SOPE   C2418269   6.670   3.085  10.257 -0.0770  0.2189 -0.3150
  163SOPE   H4R18270   6.598   3.002  10.238  0.4100  0.0667 -1.5651
  163SOPE   H4S18271   6.625   3.185  10.243 -0.2233  0.2771  0.5104
  163SOPE   C2518272   6.783   3.087  10.145 -0.2495 -0.4802 -0.3453
  163SOPE   H5R18273   6.857   3.170  10.149 -0.2165 -0.5314  0.0832
  163SOPE   H5S18274   6.844   2.995  10.139 -1.7854 -1.4868 -1.2675
  163SOPE   C2618275   6.719   3.090  10.002  0.1245 -0.8243 -0.8416
  163SOPE   H6R18276   6.663   2.994   9.993  0.3944 -0.9292 -1.4378
  163SOPE   H6S18277   6.646   3.174   9.995  1.7753  0.8710  1.2511
  163SOPE   C2718278   6.812   3.099   9.883 -0.4949 -0.0564 -0.1922
  163SOPE   H7R18279   6.863   3.197   9.898 -2.4422  1.4408 -2.5120
  163SOPE   H7S18280   6.889   3.019   9.874 -0.0527  0.3907 -0.4872
  163SOPE   C2818281   6.750   3.113   9.741  0.7554 -0.2317 -0.4514
  163SOPE   H8R18282   6.693   3.018   9.729  0.3477  0.1715 -1.7941
  163SOPE   H8S18283   6.667   3.185   9.727 -2.3663 -2.7722  3.0852
  163SOPE   C2918284   6.849   3.123   9.630 -0.4345 -0.0513  0.2735
  163SOPE   H9118285   6.902   3.218   9.616  1.1799 -0.5440  2.3869
  163SOPE  C21018286   6.876   3.029   9.539 -1.1297  0.0357 -0.9167
  163SOPE  H10118287   6.949   3.062   9.463  0.5033  0.5985  0.8298
  163SOPE  C21118288   6.815   2.884   9.516 -0.3801 -0.6107 -0.1847
  163SOPE  H11R18289   6.803   2.874   9.406 -3.2555  0.6589 -0.0852
  163SOPE  H11S18290   6.725   2.863   9.578 -0.6711 -0.6450 -0.6116
  163SOPE  C21218291   6.898   2.761   9.559 -0.2480 -0.2472  0.3127
  163SOPE  H12R18292   6.888   2.745   9.669 -2.0149  1.2580  0.4138
  163SOPE  H12S18293   7.003   2.779   9.527  0.2084 -1.1748  1.2163
  163SOPE  C21318294   6.848   2.632   9.494 -0.1059 -0.1601  0.6024
  163SOPE  H13R18295   6.871   2.652   9.388 -0.7906 -0.3992  0.4020
  163SOPE  H13S18296   6.738   2.626   9.507 -0.4626  1.9182 -0.9920
  163SOPE  C21418297   6.933   2.514   9.537 -0.1101  0.5469  0.5717
  163SOPE  H14R18298   6.906   2.496   9.643 -0.0036 -1.1549  0.3319
  163SOPE  H14S18299   7.036   2.555   9.536  0.0742  0.0999 -0.6735
  163SOPE  C21518300   6.915   2.391   9.450 -0.2599 -0.3551  0.2454
  163SOPE  H15R18301   6.967   2.400   9.352  0.1103  0.5639  0.5169
  163SOPE  H15S18302   6.808   2.388   9.420  0.7741 -1.2414 -4.0334
  163SOPE  C21618303   6.962   2.267   9.530 -0.0827 -1.1393  0.3359
  163SOPE  H16R18304   6.899   2.280   9.620 -3.8591 -0.0127 -2.2135
  163SOPE  H16S18305   7.065   2.284   9.568  0.1523 -2.1026  0.1467
  163SOPE  C21718306   6.953   2.127   9.462  0.7609  0.1336 -0.3862
  163SOPE  H17R18307   6.996   2.054   9.534  0.2390  0.3999  0.2053
  163SOPE  H17S18308   7.008   2.139   9.366  1.8235  3.3437  0.5019
  163SOPE  C21818309   6.816   2.074   9.422 -0.1800  0.3101 -0.0730
  163SOPE  H18R18310   6.760   2.124   9.340 -2.1308 -0.0662  0.9719
  163SOPE  H18S18311   6.747   2.066   9.509 -0.9245 -1.8746 -0.8052
  163SOPE  H18T18312   6.833   1.976   9.375  0.3226  1.3611 -2.1920
  163SOPE   C3318313   7.170   2.695   9.811 -0.1466 -0.5349 -0.8785
  163SOPE   H3X18314   7.127   2.752   9.725  0.8029 -1.1391 -1.7753
  163SOPE   H3Y18315   7.104   2.607   9.825  0.2865 -0.8091 -0.5312
  163SOPE   C3418316   7.323   2.685   9.771  0.6832 -0.2177  0.0867
  163SOPE   H4X18317   7.364   2.620   9.852 -0.5061 -0.8506  0.1981
  163SOPE   H4Y18318   7.384   2.777   9.763  0.3072 -0.0014 -0.2478
  163SOPE   C3518319   7.332   2.596   9.648  0.5066 -0.4006 -0.1147
  163SOPE   H5X18320   7.255   2.517   9.660 -0.1162  0.0103 -1.2473
  163SOPE   H5Y18321   7.424   2.535   9.658 -0.5893 -2.1228 -0.2775
  163SOPE   C3618322   7.319   2.668   9.519 -0.7816  0.8545 -0.1536
  163SOPE   H6X18323   7.403   2.740   9.524 -0.3055  0.3150 -0.3245
  163SOPE   H6Y18324   7.229   2.733   9.506  0.7819  3.4748  1.2147
  163SOPE   C3718325   7.349   2.585   9.393  0.4436 -0.1792  1.1179
  163SOPE   H7X18326   7.265   2.513   9.386  1.6573 -1.5458 -0.4306
  163SOPE   H7Y18327   7.438   2.520   9.407  0.7214 -0.1720 -0.3809
  163SOPE   C3818328   7.370   2.673   9.272 -0.7305 -0.5917 -0.4254
  163SOPE   H8X18329   7.386   2.613   9.181 -0.9626 -1.2420 -0.0494
  163SOPE   H8Y18330   7.460   2.735   9.289 -1.8759  1.6893 -2.0705
  163SOPE   C3918331   7.247   2.759   9.241 -0.5501 -0.6907 -0.0002
  163SOPE   H9X18332   7.280   2.829   9.160 -1.2383 -0.7175 -0.3145
  163SOPE   H9Y18333   7.220   2.819   9.330 -0.0894  0.6272 -0.7116
  163SOPE  C31018334   7.122   2.682   9.193 -0.7720  0.0776  0.0912
  163SOPE  H10X18335   7.084   2.644   9.290  1.0217 -2.4737 -0.1197
  163SOPE  H10Y18336   7.151   2.592   9.134 -0.3999 -1.7092  2.8097
  163SOPE  C31118337   7.023   2.770   9.112  0.0965 -0.1269  0.3027
  163SOPE  H11X18338   6.994   2.856   9.176 -1.9910 -3.7078  4.7986
  163SOPE  H11Y18339   6.926   2.716   9.111 -0.1206  0.2633  0.4195
  163SOPE  C31218340   7.060   2.793   8.964 -0.3866 -0.4104 -0.8733
  163SOPE  H12X18341   7.076   2.694   8.915  1.4370 -1.3763  1.4292
  163SOPE  H12Y18342   7.155   2.851   8.958 -0.5651  0.5029  2.7260
  163SOPE  C31318343   6.952   2.873   8.887 -0.0373  0.3276 -0.8313
  163SOPE  H13X18344   6.947   2.976   8.929 -0.9402 -0.3061  0.6953
  163SOPE  H13Y18345   6.853   2.826   8.906 -0.1068  1.0681  0.7763
  163SOPE  C31418346   6.974   2.888   8.735  0.7219 -0.0828 -0.1408
  163SOPE  H14X18347   6.962   2.788   8.688  1.6145  1.1655 -3.2303
  163SOPE  H14Y18348   7.077   2.928   8.726  1.1086 -0.5208  1.8133
  163SOPE  C31518349   6.863   2.988   8.683  0.5293 -1.0033  0.2060
  163SOPE  H15X18350   6.864   3.009   8.574  1.5476 -1.0601  0.1911
  163SOPE  H15Y18351   6.871   3.093   8.718 -2.1533 -0.3603 -0.8536
  163SOPE  C31618352   6.722   2.934   8.698  0.4144 -0.1085 -0.0423
  163SOPE  H16X18353   6.687   2.906   8.800  1.5111 -0.5302  0.2350
  163SOPE  H16Y18354   6.722   2.831   8.655  0.0167 -0.1918  0.1480
  163SOPE  C31718355   6.609   3.002   8.623  0.3120 -1.0614  0.6358
  163SOPE  H17X18356   6.534   2.920   8.615  1.5278 -2.0704 -1.1243
  163SOPE  H17Y18357   6.641   3.026   8.519 -0.1934 -0.9743  0.4969
  163SOPE  C31818358   6.540   3.117   8.699  0.2182 -0.1583 -0.3190
  163SOPE  H18X18359   6.505   3.198   8.632 -0.2987  0.1619  0.3259
  163SOPE  H18Y18360   6.610   3.169   8.769  1.0415  0.6462 -1.6882
  163SOPE  H18Z18361   6.448   3.079   8.748  0.1754  0.8242  0.3991
  164SOPE     N18362   1.038   0.235  10.865  0.2178  0.2656  0.2997
  164SOPE   HN118363   0.954   0.173  10.874  1.2604 -1.2689 -0.1088
  164SOPE   HN218364   1.075   0.247  10.962  2.7605 -2.0157 -0.2711
  164SOPE   HN318365   1.014   0.323  10.816 -3.5859 -0.9580 -0.3909
  164SOPE   C1218366   1.138   0.170  10.767  0.4542 -0.2758 -0.6078
  164SOPE  H12A18367   1.202   0.095  10.818  1.2452  0.2720 -0.7702
  164SOPE  H12B18368   1.210   0.251  10.741 -0.1292  0.6969  0.7086
  164SOPE   C1118369   1.068   0.094  10.656  0.1454 -0.1090  0.7038
  164SOPE  H11A18370   1.149   0.046  10.597 -1.4812  1.1918 -2.9432
  164SOPE  H11B18371   1.026   0.162  10.578 -0.4107 -1.2872 -0.0472
  164SOPE     P18372   0.812   0.027  10.687 -0.2144  0.2826 -0.2794
  164SOPE   O1318373   0.779   0.139  10.779 -0.2716 -0.0990 -0.3505
  164SOPE   O1418374   0.745  -0.101  10.719 -0.2677  0.4463 -0.5299
  164SOPE   O1218375   0.965   0.001  10.701 -0.1951 -0.5556  0.2964
  164SOPE   O1118376   0.786   0.068  10.539  0.3858 -0.2188  0.0919
  164SOPE    C118377   0.833   0.003  10.422  0.5557 -0.0811 -0.3903
  164SOPE    HA18378   0.759  -0.068  10.381  1.7911 -0.8926 -1.3027
  164SOPE    HB18379   0.921  -0.060  10.447  0.2622 -0.0505  0.7822
  164SOPE    C218380   0.875   0.106  10.316 -0.8075  0.4348 -0.0136
  164SOPE    HS18381   0.964   0.162  10.354 -1.1075  0.7666  0.2006
  164SOPE   O2118382   0.767   0.182  10.274  0.0172 -0.0294 -0.2097
  164SOPE   C2118383   0.788   0.310  10.253 -0.6687  0.1294 -0.1287
  164SOPE   O2218384   0.894   0.367  10.267  0.1044  0.2753 -0.2379
  164SOPE   C2218385   0.659   0.380  10.206 -0.0445  0.3049 -0.7085
  164SOPE   H2R18386   0.685   0.487  10.218  0.2593 -0.0354  2.4952
  164SOPE   H2S18387   0.581   0.346  10.277 -0.4603 -0.8730 -1.6942
  164SOPE    C318388   0.926   0.020  10.192 -0.2374  0.2538  0.1785
  164SOPE    HX18389   0.836  -0.036  10.160  1.6917 -2.6560 -0.5577
  164SOPE    HY18390   1.002  -0.054  10.225 -0.2786  0.1098 -0.0493
  164SOPE   O3118391   0.969   0.113  10.090  0.3126 -0.1654  0.5021
  164SOPE   C3118392   0.957   0.071   9.964 -1.0300  0.1614 -0.0862
  164SOPE   O3218393   0.928  -0.043   9.931  0.0533 -0.3310 -0.4777
  164SOPE   C3218394   1.003   0.181   9.876  0.5355 -0.4626  0.2023
  164SOPE   H2X18395   1.110   0.164   9.853  0.0841 -0.3213 -2.3623
  164SOPE   H2Y18396   0.997   0.278   9.931  0.2903 -1.3772  1.8491
  164SOPE   C2318397   0.613   0.336  10.069  0.4651 -0.3295  0.3281
  164SOPE   H3R18398   0.692   0.321   9.993 -0.5600 -1.4367 -0.5513
  164SOPE   H3S18399   0.555   0.426  10.040  0.9146 -0.3984 -0.8185
  164SOPE   C2418400   0.530   0.210  10.070  0.4624  0.3717  0.1734
  164SOPE   H4R18401   0.581   0.113  10.087 -0.7619 -0.5791 -1.3244
  164SOPE   H4S18402   0.461   0.228  10.155  3.7225 -1.7852  3.5842
  164SOPE   C2518403   0.438   0.189   9.945 -0.2093  0.2815 -0.2242
  164SOPE   H5R18404   0.363   0.108   9.958  0.7804 -0.6548 -0.1598
  164SOPE   H5S18405   0.379   0.278   9.915 -0.7558 -0.0811 -0.2359
  164SOPE   C2618406   0.535   0.160   9.828 -0.4202  0.3290 -0.2574
  164SOPE   H6R18407   0.598   0.251   9.820  0.5661 -0.1614  1.4087
  164SOPE   H6S18408   0.600   0.072   9.845  0.0748  0.9816  1.4518
  164SOPE   C2718409   0.469   0.137   9.687 -0.5024  0.5936 -0.3607
  164SOPE   H7R18410   0.407   0.046   9.699 -2.5792  1.9532 -0.1709
  164SOPE   H7S18411   0.398   0.222   9.678  0.1401  0.9587 -2.5675
  164SOPE   C2818412   0.561   0.139   9.569 -0.4160 -0.2021  0.4994
  164SOPE   H8R18413   0.629   0.226   9.569 -1.0775  0.8905 -6.3828
  164SOPE   H8S18414   0.626   0.048   9.565 -0.7540 -0.4171 -0.3798
  164SOPE   C2918415   0.496   0.129   9.435 -0.1970  0.1932 -0.5096
  164SOPE   H9118416   0.410   0.062   9.431  0.5690 -0.7500 -2.1597
  164SOPE  C21018417   0.532   0.193   9.320  0.2508  0.1377 -0.2281
  164SOPE  H10118418   0.482   0.176   9.224 -0.1190 -0.6864  0.1023
  164SOPE  C21118419   0.650   0.292   9.322  0.2391  0.1600 -1.0309
  164SOPE  H11R18420   0.743   0.251   9.368 -0.6260 -0.7994 -0.0869
  164SOPE  H11S18421   0.620   0.386   9.373  2.9676  0.6743 -0.1813
  164SOPE  C21218422   0.698   0.334   9.187  0.5315  0.7540 -0.0321
  164SOPE  H12R18423   0.612   0.355   9.119 -0.7959 -3.7273 -0.0650
  164SOPE  H12S18424   0.743   0.245   9.137  2.3276  2.1266 -0.9684
  164SOPE  C21318425   0.789   0.451   9.190  0.2317  0.7735  0.9797
  164SOPE  H13R18426   0.867   0.426   9.265 -0.9026 -3.4478  1.0151
  164SOPE  H13S18427   0.743   0.547   9.225 -0.5028  1.2720 -1.1619
  164SOPE  C21418428   0.864   0.490   9.060  0.0949  0.2927  0.4811
  164SOPE  H14R18429   0.942   0.565   9.086  1.1187 -0.1461 -1.1848
  164SOPE  H14S18430   0.802   0.544   8.986  0.2580  0.5130  0.5027
  164SOPE  C21518431   0.939   0.377   8.988 -0.1663 -0.0264 -0.6247
  164SOPE  H15R18432   0.863   0.304   8.953  0.0946 -0.1004 -1.0391
  164SOPE  H15S18433   1.009   0.327   9.058 -1.0448  0.2257  0.4616
  164SOPE  C21618434   1.023   0.419   8.864 -0.1965  0.2538 -0.2598
  164SOPE  H16R18435   1.074   0.328   8.826 -0.5398 -0.9217  1.9296
  164SOPE  H16S18436   1.096   0.488   8.912  0.0621 -1.0560  1.2961
  164SOPE  C21718437   0.945   0.483   8.747  0.0288  0.6931  0.1510
  164SOPE  H17R18438   0.917   0.587   8.770  0.2500  0.2286  2.7537
  164SOPE  H17S18439   0.860   0.411   8.746  1.2743 -0.8312 -0.9872
  164SOPE  C21818440   1.018   0.487   8.610  0.4169 -0.7416 -0.2526
  164SOPE  H18R18441   1.101   0.561   8.613  1.1939 -1.5798 -0.7054
  164SOPE  H18S18442   0.947   0.533   8.539  0.6917  0.1910  0.0600
  164SOPE  H18T18443   1.047   0.384   8.581  0.6553 -0.9755  0.7797
  164SOPE   C3318444   0.945   0.188   9.727 -0.2143 -0.2882  0.4552
  164SOPE   H3X18445   0.838   0.216   9.734  0.0087  0.4456  1.1044
  164SOPE   H3Y18446   0.959   0.080   9.709  1.1113 -0.1251  0.3629
  164SOPE   C3418447   1.026   0.276   9.638 -0.6066  0.5990 -0.4445
  164SOPE   H4X18448   1.080   0.364   9.678  0.4660  0.4244 -1.4396
  164SOPE   H4Y18449   0.956   0.310   9.558 -0.7977 -1.3574 -1.1583
  164SOPE   C3518450   1.131   0.200   9.555  0.7302  0.2704 -0.8084
  164SOPE   H5X18451   1.093   0.096   9.545 -0.3890  0.6932 -1.1012
  164SOPE   H5Y18452   1.228   0.193   9.609 -0.4259  0.2227  1.3584
  164SOPE   C3618453   1.143   0.254   9.413  0.1694  0.2685 -0.2194
  164SOPE   H6X18454   1.153   0.364   9.407  2.0999  0.1233 -0.4582
  164SOPE   H6Y18455   1.052   0.217   9.360  1.7936 -2.6693 -1.2033
  164SOPE   C3718456   1.256   0.187   9.333  0.0919  0.0743 -1.1786
  164SOPE   H7X18457   1.260   0.082   9.369  1.7935  0.5855  0.2753
  164SOPE   H7Y18458   1.352   0.237   9.359 -0.1352  0.9312 -1.9595
  164SOPE   C3818459   1.228   0.186   9.183 -0.4175 -0.1914  0.3279
  164SOPE   H8X18460   1.225   0.291   9.147 -1.0867 -0.3836 -0.1919
  164SOPE   H8Y18461   1.131   0.135   9.166  0.5020 -2.4380  1.4341
  164SOPE   C3918462   1.333   0.111   9.097 -0.6029 -0.0151 -0.4717
  164SOPE   H9X18463   1.333   0.010   9.143  3.9061  0.2972  0.6851
  164SOPE   H9Y18464   1.435   0.146   9.122 -0.7382 -1.1760  1.9866
  164SOPE  C31018465   1.304   0.125   8.947 -0.7156 -0.4206  0.4292
  164SOPE  H10X18466   1.313   0.235   8.934  0.6615 -0.5090  0.4600
  164SOPE  H10Y18467   1.200   0.112   8.911 -0.7839 -4.0866  1.5555
  164SOPE  C31118468   1.411   0.063   8.861 -0.1746  0.3483  0.2776
  164SOPE  H11X18469   1.418  -0.044   8.889  2.7009  0.2226 -0.5570
  164SOPE  H11Y18470   1.508   0.111   8.891  0.0485  0.6346 -0.8531
  164SOPE  C31218471   1.393   0.054   8.711 -0.4914 -0.1799  0.1989
  164SOPE  H12X18472   1.396   0.157   8.669  1.3191 -0.1662  0.2812
  164SOPE  H12Y18473   1.298  -0.000   8.695  0.6117 -1.9257 -0.7722
  164SOPE  C31318474   1.500  -0.045   8.641  0.2243 -0.3402 -0.0136
  164SOPE  H13X18475   1.473  -0.146   8.679  2.4585 -0.2841  1.9456
  164SOPE  H13Y18476   1.603  -0.009   8.665 -0.8943  2.3513  1.2242
  164SOPE  C31418477   1.484  -0.042   8.486  0.4987  0.5725 -0.3881
  164SOPE  H14X18478   1.488   0.062   8.446  0.2495  1.3686  1.5789
  164SOPE  H14Y18479   1.383  -0.082   8.463 -0.1344  2.5874 -1.3632
  164SOPE  C31518480   1.579  -0.133   8.401  0.1930 -0.6180 -0.2532
  164SOPE  H15X18481   1.551  -0.123   8.294  1.6561  0.0389 -0.5970
  164SOPE  H15Y18482   1.573  -0.238   8.439 -0.1010 -0.7218 -0.5714
  164SOPE  C31618483   1.727  -0.093   8.400 -0.8735  0.4055  0.7036
  164SOPE  H16X18484   1.764  -0.150   8.312 -0.7838  0.4550  0.7093
  164SOPE  H16Y18485   1.771  -0.133   8.494  1.1550 -0.8710 -0.6964
  164SOPE  C31718486   1.756   0.049   8.400 -0.6531  0.6372 -0.3804
  164SOPE  H17X18487   1.730   0.097   8.497  0.8303 -0.1771  0.4756
  164SOPE  H17Y18488   1.694   0.086   8.316 -0.8563  1.0031 -0.0736
  164SOPE  C31818489   1.902   0.086   8.377 -0.0362 -0.0725 -0.0595
  164SOPE  H18X18490   1.960   0.050   8.465 -2.9906  0.2542  2.2102
  164SOPE  H18Y18491   1.912   0.196   8.364 -0.5914  0.2227  1.6539
  164SOPE  H18Z18492   1.953   0.054   8.284  3.6446  2.7176  0.7728
  165SOPE     N18493   5.822   5.473  10.759 -0.1585 -0.1560  0.4786
  165SOPE   HN118494   5.832   5.535  10.677 -1.2582  0.5349  0.8517
  165SOPE   HN218495   5.822   5.533  10.844 -0.6331 -2.6355  2.3519
  165SOPE   HN318496   5.906   5.411  10.753 -0.1336 -0.0123 -3.7686
  165SOPE   C1218497   5.698   5.399  10.753 -0.1482 -0.1159 -0.4907
  165SOPE  H12A18498   5.616   5.472  10.738  0.7523  1.1816  0.6334
  165SOPE  H12B18499   5.684   5.356  10.854  0.9908  2.0083  0.6468
  165SOPE   C1118500   5.713   5.296  10.641 -0.0003  0.0040  0.0956
  165SOPE  H11A18501   5.732   5.357  10.551  1.0354  0.2015  0.4366
  165SOPE  H11B18502   5.611   5.252  10.638 -1.9819  4.0993  0.8848
  165SOPE     P18503   5.811   5.052  10.613  0.2359  0.0646  0.1460
  165SOPE   O1318504   5.673   4.998  10.620  0.3322  0.0297  0.3557
  165SOPE   O1418505   5.917   4.974  10.682  0.4952 -0.2484 -0.0452
  165SOPE   O1218506   5.821   5.203  10.657  0.2793  0.0779  0.0711
  165SOPE   O1118507   5.855   5.054  10.460 -0.6585 -0.2268  0.8637
  165SOPE    C118508   5.766   5.116  10.364 -0.6644  0.4051  0.5750
  165SOPE    HA18509   5.822   5.205  10.329  0.9410 -0.3414  1.1144
  165SOPE    HB18510   5.672   5.147  10.415  0.2435 -0.4031  2.9130
  165SOPE    C218511   5.746   5.019  10.251  0.0695 -0.0461 -0.1293
  165SOPE    HS18512   5.848   4.986  10.220  0.5812  1.2395  0.1520
  165SOPE   O2118513   5.675   5.067  10.139 -0.0140 -0.0312  0.1231
  165SOPE   C2118514   5.734   5.170  10.070 -0.6434 -0.5832  0.1029
  165SOPE   O2218515   5.842   5.216  10.092 -0.5007  0.0311  0.1061
  165SOPE   C2218516   5.637   5.227   9.969 -0.4735  0.2499  0.2380
  165SOPE   H2R18517   5.599   5.328   9.996 -1.6128  0.7336 -2.7810
  165SOPE   H2S18518   5.553   5.154   9.963 -2.1900  1.9732  2.0097
  165SOPE    C318519   5.680   4.886  10.290  0.2344 -0.0171  0.1948
  165SOPE    HX18520   5.581   4.899  10.340 -1.2684  1.0731 -2.8450
  165SOPE    HY18521   5.739   4.830  10.366  0.2922 -0.6185 -0.2880
  165SOPE   O3118522   5.643   4.797  10.182 -0.5975  0.3413 -0.7425
  165SOPE   C3118523   5.730   4.700  10.148 -0.1211 -0.4672  0.0944
  165SOPE   O3218524   5.848   4.684  10.181  1.0231  0.2226 -0.3795
  165SOPE   C3218525   5.673   4.618  10.032  0.2303 -0.6486 -0.0928
  165SOPE   H2X18526   5.574   4.577  10.064  0.5773 -1.2319  0.2413
  165SOPE   H2Y18527   5.730   4.524  10.021  2.4937  0.6944 -0.3131
  165SOPE   C2318528   5.709   5.249   9.831  0.0429 -0.0578 -0.2017
  165SOPE   H3R18529   5.759   5.158   9.791 -2.0275 -0.5994 -1.7152
  165SOPE   H3S18530   5.786   5.328   9.845 -0.5472  0.2825  1.2296
  165SOPE   C2418531   5.617   5.303   9.722  0.4500  0.6046  0.0715
  165SOPE   H4R18532   5.509   5.297   9.748  0.0822 -2.0993 -1.6866
  165SOPE   H4S18533   5.628   5.413   9.711  1.6151  0.4055 -0.9087
  165SOPE   C2518534   5.624   5.231   9.585  0.0518  0.1250  0.2230
  165SOPE   H5R18535   5.733   5.224   9.567 -0.0283  0.5363 -0.4749
  165SOPE   H5S18536   5.585   5.127   9.590  1.3027 -0.4788 -1.5180
  165SOPE   C2618537   5.555   5.305   9.463 -0.2148  0.5791 -0.7659
  165SOPE   H6R18538   5.444   5.301   9.457 -0.2474  0.6162 -0.2622
  165SOPE   H6S18539   5.575   5.414   9.471 -1.0310  0.7815 -1.2996
  165SOPE   C2718540   5.612   5.262   9.324 -0.2753 -0.0845 -0.4890
  165SOPE   H7R18541   5.723   5.251   9.325 -0.0593  1.6503  0.9224
  165SOPE   H7S18542   5.564   5.165   9.301  2.2712 -1.3666 -0.7743
  165SOPE   C2818543   5.574   5.370   9.213 -0.6133 -0.7937 -0.4768
  165SOPE   H8R18544   5.483   5.424   9.247 -0.1164  1.2302 -2.1765
  165SOPE   H8S18545   5.660   5.440   9.208 -2.7093  2.0396  0.3147
  165SOPE   C2918546   5.547   5.306   9.079  0.6502 -0.2119 -0.5932
  165SOPE   H9118547   5.458   5.243   9.090 -1.2250  2.4749  0.7739
  165SOPE  C21018548   5.614   5.322   8.965 -0.0987 -0.6658  0.8200
  165SOPE  H10118549   5.563   5.273   8.881 -2.7733  0.7802  1.4703
  165SOPE  C21118550   5.721   5.425   8.946  0.5234  0.4012 -0.2721
  165SOPE  H11R18551   5.792   5.403   9.028  0.8806 -1.5990 -1.0574
  165SOPE  H11S18552   5.688   5.529   8.965  1.0153  0.9969 -2.3838
  165SOPE  C21218553   5.805   5.410   8.822 -0.3234 -0.4754 -0.0251
  165SOPE  H12R18554   5.807   5.303   8.791 -0.7602 -0.5276  0.1202
  165SOPE  H12S18555   5.905   5.444   8.856 -0.9424 -0.0960  1.4749
  165SOPE  C21318556   5.768   5.500   8.705 -0.2895 -0.6926  0.2696
  165SOPE  H13R18557   5.820   5.465   8.613 -3.8245 -2.7982 -1.1585
  165SOPE  H13S18558   5.801   5.603   8.730  2.6643 -0.5057 -3.4423
  165SOPE  C21418559   5.621   5.484   8.674 -0.5543 -0.1477  0.0981
  165SOPE  H14R18560   5.560   5.533   8.752  0.9781 -0.7061  1.7164
  165SOPE  H14S18561   5.592   5.377   8.676 -0.4668 -0.1558  1.2579
  165SOPE  C21518562   5.591   5.527   8.533 -0.0146  0.3132 -0.0595
  165SOPE  H15R18563   5.633   5.458   8.456 -1.9078 -0.8626 -0.1094
  165SOPE  H15S18564   5.632   5.629   8.520  2.5894 -0.4466  1.2910
  165SOPE  C21618565   5.438   5.529   8.507 -0.8016 -0.2456  0.7758
  165SOPE  H16R18566   5.385   5.609   8.562  0.2572  1.1053 -0.0897
  165SOPE  H16S18567   5.396   5.430   8.535 -1.7389  0.1854  0.9293
  165SOPE  C21718568   5.415   5.565   8.359  0.0912  0.4682  0.3612
  165SOPE  H17R18569   5.454   5.479   8.300 -0.7901  0.4211 -0.1589
  165SOPE  H17S18570   5.467   5.658   8.328  2.6457 -1.1074 -0.4118
  165SOPE  C21818571   5.264   5.579   8.329 -0.4362 -0.6762 -1.0164
  165SOPE  H18R18572   5.211   5.606   8.423  0.5429 -0.3159 -0.5602
  165SOPE  H18S18573   5.218   5.480   8.305 -2.6138 -0.0746  0.4119
  165SOPE  H18T18574   5.258   5.654   8.248  1.8079  1.0380  0.2978
  165SOPE   C3318575   5.663   4.703   9.905  0.4701  0.0594  0.4237
  165SOPE   H3X18576   5.564   4.753   9.905  0.9243  0.9883 -0.3942
  165SOPE   H3Y18577   5.671   4.630   9.821  1.1721  1.6624 -0.9543
  165SOPE   C3418578   5.777   4.809   9.901 -0.1297  0.1978  0.3466
  165SOPE   H4X18579   5.877   4.761   9.905  0.1377  0.1734 -3.2555
  165SOPE   H4Y18580   5.772   4.882   9.985  0.3897 -0.0173  0.5681
  165SOPE   C3518581   5.775   4.878   9.768 -0.5397 -0.1429  0.0339
  165SOPE   H5X18582   5.855   4.955   9.774  0.7913 -1.4851  0.0792
  165SOPE   H5Y18583   5.674   4.919   9.748 -0.2552  0.2503 -0.6320
  165SOPE   C3618584   5.814   4.780   9.646 -0.2073 -0.1597 -0.2504
  165SOPE   H6X18585   5.747   4.692   9.639 -1.1541  0.0522  3.6092
  165SOPE   H6Y18586   5.913   4.733   9.662  1.0331  1.8759 -1.5184
  165SOPE   C3718587   5.804   4.857   9.516  0.1671  0.1316 -0.1053
  165SOPE   H7X18588   5.897   4.917   9.506 -0.0511  0.4537 -0.1978
  165SOPE   H7Y18589   5.721   4.931   9.527 -0.8412 -0.4483 -3.0686
  165SOPE   C3818590   5.781   4.772   9.391  0.6907 -0.2005  0.4969
  165SOPE   H8X18591   5.689   4.711   9.402 -0.8096  1.1887 -2.8665
  165SOPE   H8Y18592   5.862   4.697   9.376  0.4460 -0.7454  1.8022
  165SOPE   C3918593   5.774   4.878   9.287  0.3443 -0.8909 -0.6874
  165SOPE   H9X18594   5.864   4.940   9.271  1.3948 -0.8844  3.9488
  165SOPE   H9Y18595   5.683   4.939   9.308  0.1611 -2.2801  3.6438
  165SOPE  C31018596   5.736   4.826   9.144  0.0415 -0.2662  0.1548
  165SOPE  H10X18597   5.653   4.753   9.149  0.0810 -0.4551 -1.4433
  165SOPE  H10Y18598   5.825   4.770   9.108  0.0867 -1.1424  1.5459
  165SOPE  C31118599   5.664   4.925   9.060  0.2761 -0.6310 -0.5316
  165SOPE  H11X18600   5.714   5.024   9.071  0.7640 -0.9497  0.1832
  165SOPE  H11Y18601   5.557   4.943   9.085  0.6783  1.4799 -0.1924
  165SOPE  C31218602   5.657   4.893   8.918 -0.4111  0.5073  0.1666
  165SOPE  H12X18603   5.623   4.789   8.898 -0.8429  0.3810  1.4391
  165SOPE  H12Y18604   5.754   4.900   8.866 -0.6484  0.6289 -0.2645
  165SOPE  C31318605   5.557   4.978   8.840  0.0540 -0.3344 -0.1905
  165SOPE  H13X18606   5.606   5.077   8.848  0.6647 -0.6426 -0.1183
  165SOPE  H13Y18607   5.456   4.983   8.886 -0.6943 -0.4902 -1.7337
  165SOPE  C31418608   5.550   4.937   8.698 -0.5884 -0.2378 -0.6443
  165SOPE  H14X18609   5.526   4.829   8.693 -0.4392 -0.2919 -0.2250
  165SOPE  H14Y18610   5.655   4.950   8.666 -0.1985  0.7040  0.9122
  165SOPE  C31518611   5.468   5.022   8.609 -0.5498 -0.3005  0.1962
  165SOPE  H15X18612   5.484   5.126   8.646 -0.9609  0.1311 -0.8018
  165SOPE  H15Y18613   5.359   5.001   8.613 -1.3386  3.1914  0.5354
  165SOPE  C31618614   5.504   5.020   8.463 -0.4397 -0.6364  0.2858
  165SOPE  H16X18615   5.463   4.923   8.430 -1.2687 -1.0208  2.2794
  165SOPE  H16Y18616   5.615   5.027   8.464 -0.5185  2.7926 -0.7176
  165SOPE  C31718617   5.457   5.135   8.368 -0.7085  0.1420  0.0801
  165SOPE  H17X18618   5.502   5.125   8.266  2.4499 -1.3183  1.4631
  165SOPE  H17Y18619   5.494   5.223   8.424  0.1612 -1.5790  2.3539
  165SOPE  C31818620   5.307   5.150   8.365  0.2226  0.1074  0.2806
  165SOPE  H18X18621   5.269   5.177   8.466  2.3641 -0.1713  1.2343
  165SOPE  H18Y18622   5.257   5.052   8.348  1.5935 -0.5184 -0.2850
  165SOPE  H18Z18623   5.276   5.237   8.304 -1.2234 -0.3949  0.2818
  166SOPE     N18624   4.859   5.489  10.829  0.0000 -0.2691 -0.0713
  166SOPE   HN118625   4.817   5.548  10.754  0.2915  0.4429  0.3219
  166SOPE   HN218626   4.820   5.393  10.822 -0.7898 -0.2370  2.8117
  166SOPE   HN318627   4.847   5.537  10.920  1.2355 -0.1415  0.0415
  166SOPE   C1218628   5.009   5.467  10.820 -0.5404 -0.0131  0.0598
  166SOPE  H12A18629   5.030   5.383  10.888  0.3123  0.7368  0.7526
  166SOPE  H12B18630   5.064   5.552  10.867 -0.0327 -0.4120  0.1937
  166SOPE   C1118631   5.051   5.446  10.670  0.1784  0.3690 -0.3109
  166SOPE  H11A18632   5.161   5.437  10.659  0.0040 -3.1751 -0.3036
  166SOPE  H11B18633   5.022   5.536  10.613  0.5445  0.8789  0.2940
  166SOPE     P18634   5.031   5.191  10.609  0.0294 -0.4725  0.1250
  166SOPE   O1318635   4.917   5.107  10.653 -0.1632  0.4705 -0.2959
  166SOPE   O1418636   5.159   5.174  10.687  0.2637  0.1438 -0.3514
  166SOPE   O1218637   4.972   5.334  10.620 -0.2518  0.2804  0.2510
  166SOPE   O1118638   5.060   5.170  10.455  0.2245 -0.0371 -0.3718
  166SOPE    C118639   4.972   5.230  10.358 -0.1434  0.0075  0.7838
  166SOPE    HA18640   4.897   5.298  10.404 -0.0885  0.2504  0.5183
  166SOPE    HB18641   4.911   5.149  10.315 -0.4061  0.3717  0.4669
  166SOPE    C218642   5.039   5.309  10.237 -0.2910  0.4214 -0.1560
  166SOPE    HS18643   4.963   5.327  10.158  0.2593 -2.0277 -1.3363
  166SOPE   O2118644   5.162   5.247  10.187  0.4429 -0.3743 -0.0382
  166SOPE   C2118645   5.135   5.125  10.140 -0.3794 -0.4054  0.8710
  166SOPE   O2218646   5.031   5.087  10.088  0.5907  0.1380 -0.0004
  166SOPE   C2218647   5.263   5.036  10.162  0.1695 -0.0283  0.5398
  166SOPE   H2R18648   5.249   4.984  10.259 -1.9398 -0.4619  0.0373
  166SOPE   H2S18649   5.350   5.106  10.162 -0.8619  1.3004 -0.1252
  166SOPE    C318650   5.075   5.456  10.273  0.6595  0.6402 -0.7893
  166SOPE    HX18651   5.142   5.459  10.361  0.8520  2.2538 -0.9730
  166SOPE    HY18652   4.981   5.510  10.296  0.6734  1.6389 -2.9317
  166SOPE   O3118653   5.129   5.514  10.154 -0.5063 -0.0377 -1.2100
  166SOPE   C3118654   5.263   5.508  10.136  1.0953 -0.2458  0.1386
  166SOPE   O3218655   5.341   5.471  10.221  0.2221  0.2654 -0.3576
  166SOPE   C3218656   5.313   5.553   9.994  0.4185  0.2496 -0.3847
  166SOPE   H2X18657   5.418   5.518   9.992  1.0349  1.9786 -0.4615
  166SOPE   H2Y18658   5.315   5.664   9.995 -0.1424  0.2672  0.3781
  166SOPE   C2318659   5.271   4.932  10.044 -0.0978  0.0855 -0.0489
  166SOPE   H3R18660   5.175   4.876  10.045 -0.6178  0.9381  1.3017
  166SOPE   H3S18661   5.364   4.875  10.061 -0.2259 -0.0471  0.2040
  166SOPE   C2418662   5.289   4.997   9.905 -0.3700 -0.3008 -0.2769
  166SOPE   H4R18663   5.198   5.056   9.881 -0.8859 -0.4048  1.2772
  166SOPE   H4S18664   5.371   5.072   9.909 -0.0348 -0.6417 -0.7893
  166SOPE   C2518665   5.300   4.891   9.799 -0.3062 -0.5431  0.3876
  166SOPE   H5R18666   5.358   4.807   9.842  0.5340 -1.8086 -2.9009
  166SOPE   H5S18667   5.200   4.847   9.779 -0.3425  0.4919 -2.1953
  166SOPE   C2618668   5.371   4.952   9.677 -0.1354 -0.5113 -0.3267
  166SOPE   H6R18669   5.310   5.037   9.641 -0.8063 -0.6132  0.5333
  166SOPE   H6S18670   5.472   4.992   9.699 -0.8352  0.6549  1.0003
  166SOPE   C2718671   5.386   4.853   9.554  0.1251 -0.1485 -0.6782
  166SOPE   H7R18672   5.482   4.797   9.563  0.1771  0.0093 -0.2206
  166SOPE   H7S18673   5.309   4.774   9.566  1.0162 -0.8596  0.6713
  166SOPE   C2818674   5.401   4.912   9.419  0.2668  0.0036  0.1367
  166SOPE   H8R18675   5.495   4.971   9.410  0.7477 -0.7062  0.4564
  166SOPE   H8S18676   5.409   4.834   9.341 -0.9975  1.0550 -1.1248
  166SOPE   C2918677   5.277   4.989   9.381 -0.0335 -0.6792 -0.6191
  166SOPE   H9118678   5.251   5.079   9.439  2.7843 -0.4946  0.5048
  166SOPE  C21018679   5.190   4.954   9.284  0.2098  0.0954 -0.2942
  166SOPE  H10118680   5.093   5.004   9.269 -0.0685 -0.6276 -0.9761
  166SOPE  C21118681   5.189   4.834   9.191  0.0864  0.0232 -0.1083
  166SOPE  H11R18682   5.088   4.791   9.179 -0.0488  0.7081 -1.6829
  166SOPE  H11S18683   5.239   4.745   9.235  2.2565  0.3983 -1.6019
  166SOPE  C21218684   5.247   4.855   9.054 -0.6886  0.1380  0.2758
  166SOPE  H12R18685   5.358   4.852   9.060 -0.5974  1.2804 -0.4951
  166SOPE  H12S18686   5.230   4.962   9.029 -0.0797 -0.0880 -1.2782
  166SOPE  C21318687   5.203   4.754   8.948  0.0749 -0.4509  0.1580
  166SOPE  H13R18688   5.204   4.658   9.004 -0.8085  0.1704  1.2851
  166SOPE  H13S18689   5.267   4.757   8.857 -1.8443  0.4648 -1.2485
  166SOPE  C21418690   5.061   4.769   8.900  0.7841  0.2097  0.5651
  166SOPE  H14R18691   5.024   4.872   8.884 -1.8624 -0.9333 -1.3748
  166SOPE  H14S18692   4.986   4.734   8.974 -1.3540 -2.3146 -2.5302
  166SOPE  C21518693   5.045   4.706   8.760 -0.4982 -0.1283 -0.0648
  166SOPE  H15R18694   4.937   4.699   8.737 -0.5479  0.3718 -0.0019
  166SOPE  H15S18695   5.089   4.604   8.767  1.9336  0.8927  1.0104
  166SOPE  C21618696   5.104   4.787   8.641 -0.3174  0.6626 -0.4830
  166SOPE  H16R18697   5.214   4.790   8.660 -0.6983  0.4950  2.0935
  166SOPE  H16S18698   5.067   4.892   8.641  0.2123  0.8585 -1.6426
  166SOPE  C21718699   5.084   4.713   8.502  0.5490 -0.0006 -0.4714
  166SOPE  H17R18700   5.137   4.768   8.421 -0.0505  0.5838 -0.4757
  166SOPE  H17S18701   4.974   4.718   8.482  0.7035 -0.9728 -1.6431
  166SOPE  C21818702   5.147   4.568   8.505  0.0057  0.0328 -0.3960
  166SOPE  H18R18703   5.128   4.516   8.408 -3.2829 -1.5711  0.9641
  166SOPE  H18S18704   5.092   4.504   8.577 -0.5217 -0.6209 -1.3548
  166SOPE  H18T18705   5.255   4.574   8.530 -0.4437  0.6108  1.5451
  166SOPE   C3318706   5.222   5.512   9.871 -0.2662 -0.0662 -0.2414
  166SOPE   H3X18707   5.272   5.568   9.789  0.9365 -0.7029  0.0347
  166SOPE   H3Y18708   5.119   5.553   9.876 -0.0079  0.8433 -1.7575
  166SOPE   C3418709   5.210   5.364   9.852 -0.8464  0.4679 -0.4764
  166SOPE   H4X18710   5.177   5.317   9.947 -0.2293  3.0140  1.0814
  166SOPE   H4Y18711   5.307   5.311   9.837 -1.7797 -1.2280 -0.7023
  166SOPE   C3518712   5.133   5.309   9.725  0.4209  0.0776 -0.6657
  166SOPE   H5X18713   5.024   5.325   9.735  0.3576  0.2907 -1.5826
  166SOPE   H5Y18714   5.150   5.199   9.721  2.2586  0.3142 -0.2868
  166SOPE   C3618715   5.170   5.369   9.583  0.0784  0.0987 -0.3442
  166SOPE   H6X18716   5.266   5.328   9.547 -0.0728 -1.1517  0.5965
  166SOPE   H6Y18717   5.163   5.479   9.601  0.2937  0.1302 -0.4546
  166SOPE   C3718718   5.073   5.332   9.476 -0.0560  0.4280  0.2656
  166SOPE   H7X18719   4.974   5.378   9.494  0.1057  0.3022  1.5802
  166SOPE   H7Y18720   5.047   5.224   9.467 -1.5214  0.8956 -2.2214
  166SOPE   C3818721   5.133   5.378   9.342 -0.1197  0.7443 -0.0601
  166SOPE   H8X18722   5.233   5.337   9.317  0.1686  0.8190  0.9146
  166SOPE   H8Y18723   5.148   5.488   9.338  0.4366  0.6457 -1.3929
  166SOPE   C3918724   5.051   5.329   9.220  0.2071  0.2539  0.1425
  166SOPE   H9X18725   4.954   5.382   9.207 -0.6560 -1.8035 -3.0487
  166SOPE   H9Y18726   5.020   5.223   9.230  0.4274 -0.1213 -2.4427
  166SOPE  C31018727   5.138   5.342   9.092 -0.6669 -0.4603 -0.2365
  166SOPE  H10X18728   5.214   5.261   9.105 -0.6870 -0.2515  1.5014
  166SOPE  H10Y18729   5.193   5.438   9.100 -1.5872 -0.0414  1.5944
  166SOPE  C31118730   5.066   5.347   8.956 -0.2620  0.1179 -0.5504
  166SOPE  H11X18731   4.998   5.434   8.945  0.0690  0.5553  0.7395
  166SOPE  H11Y18732   5.001   5.257   8.945  0.1896 -0.1608 -1.0165
  166SOPE  C31218733   5.162   5.363   8.836  0.4886  1.0194 -0.1765
  166SOPE  H12X18734   5.225   5.272   8.829  1.4436  1.6611 -0.1120
  166SOPE  H12Y18735   5.234   5.444   8.864  0.3503  0.7119  1.1610
  166SOPE  C31318736   5.091   5.394   8.706  0.1232  0.0727  0.4974
  166SOPE  H13X18737   5.168   5.415   8.629 -1.7957  0.9617 -1.2490
  166SOPE  H13Y18738   5.030   5.484   8.725  0.7544  1.2872 -2.6259
  166SOPE  C31418739   5.001   5.286   8.650  0.4119  0.1165  0.6298
  166SOPE  H14X18740   4.929   5.243   8.724  0.6217 -2.2989 -0.4600
  166SOPE  H14Y18741   5.062   5.203   8.608 -2.2565 -0.9816 -1.3681
  166SOPE  C31518742   4.925   5.346   8.531  0.1009 -0.1935  0.0090
  166SOPE  H15X18743   4.983   5.400   8.452 -1.2440  1.0406 -0.1718
  166SOPE  H15Y18744   4.862   5.425   8.576 -1.3113 -0.7651 -0.8883
  166SOPE  C31618745   4.834   5.236   8.466  0.0205 -0.3128 -0.3121
  166SOPE  H16X18746   4.761   5.218   8.547  1.3024  2.0840  1.4890
  166SOPE  H16Y18747   4.886   5.139   8.448 -1.0780 -0.8482 -0.6550
  166SOPE  C31718748   4.759   5.269   8.339 -0.2033  0.0254 -0.1525
  166SOPE  H17X18749   4.837   5.271   8.260  0.2601 -1.4858  0.2243
  166SOPE  H17Y18750   4.721   5.373   8.345 -1.0764 -0.1918 -1.5413
  166SOPE  C31818751   4.648   5.176   8.293  0.1776 -0.4266  0.2480
  166SOPE  H18X18752   4.572   5.172   8.374  0.3144  0.6458  0.4429
  166SOPE  H18Y18753   4.690   5.076   8.271  2.5885  0.7745 -0.9766
  166SOPE  H18Z18754   4.596   5.213   8.202  2.3643 -1.3570 -1.4704
  167SOPE     N18755   4.916   3.563   5.909  0.0128 -0.1696  0.3392
  167SOPE   HN118756   4.851   3.621   5.854 -0.8422 -2.8503 -1.6536
  167SOPE   HN218757   5.004   3.618   5.919  0.2268 -0.2647 -0.8787
  167SOPE   HN318758   4.938   3.473   5.862  0.5898  0.0167  0.2473
  167SOPE   C1218759   4.849   3.542   6.045  0.2703 -0.4122 -0.3897
  167SOPE  H12A18760   4.921   3.494   6.115  0.2766 -0.0686 -0.1561
  167SOPE  H12B18761   4.760   3.477   6.035 -0.1360 -0.1911  1.4291
  167SOPE   C1118762   4.796   3.680   6.095  0.4446  0.8611  0.0060
  167SOPE  H11A18763   4.880   3.743   6.132  0.6853 -1.0082  2.9628
  167SOPE  H11B18764   4.738   3.665   6.189  2.7922  1.5998  1.6637
  167SOPE     P18765   4.562   3.747   6.005 -0.3162 -0.6366  0.2672
  167SOPE   O1318766   4.521   3.609   5.986 -0.2167 -0.1487 -0.4756
  167SOPE   O1418767   4.500   3.854   5.926 -0.8807 -0.3328  0.2630
  167SOPE   O1218768   4.712   3.746   5.994 -0.1583 -0.1307  0.4146
  167SOPE   O1118769   4.548   3.773   6.159  0.4770 -0.2897  0.5900
  167SOPE    C118770   4.534   3.909   6.205  0.2294  0.0869 -0.0507
  167SOPE    HA18771   4.460   3.903   6.288  0.8326 -1.2428  0.4374
  167SOPE    HB18772   4.485   3.976   6.131  0.1363 -0.8370 -0.8473
  167SOPE    C218773   4.660   3.977   6.270  0.5342  0.3060  0.9874
  167SOPE    HS18774   4.729   4.006   6.189  2.4357 -1.6261  1.7938
  167SOPE   O2118775   4.724   3.885   6.351  0.5119 -0.3841  0.0524
  167SOPE   C2118776   4.857   3.910   6.359  0.4569 -0.4442  0.2500
  167SOPE   O2218777   4.915   3.997   6.299  0.1996  0.6513  0.1204
  167SOPE   C2218778   4.911   3.820   6.473  0.3204  0.6242 -0.5454
  167SOPE   H2R18779   4.968   3.737   6.426  1.2519 -0.2474  1.9585
  167SOPE   H2S18780   4.825   3.770   6.522 -0.4048  2.9305  0.6778
  167SOPE    C318781   4.623   4.105   6.355  0.0004 -0.2249  0.6819
  167SOPE    HX18782   4.578   4.180   6.287 -0.9267  0.5587  2.0879
  167SOPE    HY18783   4.718   4.155   6.386  1.0131 -0.7310 -1.4426
  167SOPE   O3118784   4.531   4.071   6.456 -0.1272 -0.0727  0.2325
  167SOPE   C3118785   4.543   4.136   6.567  0.0761  0.5711  0.1059
  167SOPE   O3218786   4.610   4.234   6.584 -0.2969  0.8300 -0.0487
  167SOPE   C3218787   4.450   4.061   6.671  0.2970 -0.4793  0.4777
  167SOPE   H2X18788   4.446   3.952   6.649  0.9626 -0.1335 -1.4917
  167SOPE   H2Y18789   4.350   4.109   6.671  1.1677  1.4388  1.1415
  167SOPE   C2318790   4.996   3.905   6.571  0.5157  0.0831 -0.1002
  167SOPE   H3R18791   5.070   3.957   6.506  0.2970 -0.2709 -0.6358
  167SOPE   H3S18792   5.050   3.830   6.633 -0.0688 -0.0784  0.2198
  167SOPE   C2418793   4.898   3.982   6.654 -1.3299  0.1041 -0.4100
  167SOPE   H4R18794   4.838   4.051   6.590 -2.4347 -2.0445 -1.8183
  167SOPE   H4S18795   4.832   3.907   6.702  0.9437 -1.0875  1.0285
  167SOPE   C2518796   4.978   4.052   6.768 -0.2120  0.4684  0.9286
  167SOPE   H5R18797   5.044   3.970   6.801 -1.1647 -1.4393 -1.5733
  167SOPE   H5S18798   5.046   4.126   6.721 -0.6195 -0.8754 -2.0626
  167SOPE   C2618799   4.896   4.117   6.871  0.6227 -0.4179 -0.1301
  167SOPE   H6R18800   4.815   4.187   6.840 -0.6588 -1.9557 -0.3820
  167SOPE   H6S18801   4.834   4.050   6.934 -1.3567  0.8307 -0.6577
  167SOPE   C2718802   4.988   4.190   6.959  0.2511 -0.0817 -0.3717
  167SOPE   H7R18803   5.072   4.119   6.978  0.7974  0.6205 -0.1252
  167SOPE   H7S18804   5.032   4.279   6.911 -0.1314  0.2455 -0.1215
  167SOPE   C2818805   4.931   4.239   7.096  0.1919  0.3658 -0.6031
  167SOPE   H8R18806   5.014   4.288   7.150  0.7113 -1.5312  0.4179
  167SOPE   H8S18807   4.842   4.304   7.084 -0.7965 -0.5414  1.2691
  167SOPE   C2918808   4.889   4.129   7.189  0.4925  0.6330 -0.0310
  167SOPE   H9118809   4.865   4.031   7.146 -0.2924  1.1597 -0.8338
  167SOPE  C21018810   4.876   4.144   7.319 -0.1313  0.1315 -0.2319
  167SOPE  H10118811   4.863   4.063   7.393 -0.4427  1.7036  1.5228
  167SOPE  C21118812   4.906   4.272   7.399 -0.3526  0.0385  0.2549
  167SOPE  H11R18813   4.927   4.360   7.334 -1.0074  0.9679  1.2644
  167SOPE  H11S18814   5.002   4.256   7.452 -0.1139  0.1732 -0.1335
  167SOPE  C21218815   4.788   4.314   7.496 -0.5598  0.0010 -0.0714
  167SOPE  H12R18816   4.719   4.328   7.410  2.1672 -0.3739 -2.5089
  167SOPE  H12S18817   4.811   4.413   7.541 -1.5477  0.4954 -0.6351
  167SOPE  C21318818   4.744   4.208   7.596  0.1070  0.0731  0.2772
  167SOPE  H13R18819   4.824   4.155   7.651 -0.6527 -0.4588  0.8969
  167SOPE  H13S18820   4.693   4.119   7.552 -1.0996  1.5455 -1.5011
  167SOPE  C21418821   4.645   4.262   7.705  0.2954 -0.7174  0.5989
  167SOPE  H14R18822   4.546   4.270   7.657  0.4710  3.3753  0.5344
  167SOPE  H14S18823   4.679   4.363   7.736  1.2026 -1.1038  0.9021
  167SOPE  C21518824   4.629   4.165   7.820 -0.4064 -0.0553 -0.4528
  167SOPE  H15R18825   4.734   4.151   7.856 -0.2908  0.8538 -0.3974
  167SOPE  H15S18826   4.600   4.065   7.782 -4.9695  0.5953  0.7266
  167SOPE  C21618827   4.525   4.221   7.921 -0.2711  0.6398 -0.0086
  167SOPE  H16R18828   4.429   4.227   7.866  0.0169 -1.1912 -0.7881
  167SOPE  H16S18829   4.549   4.328   7.942  1.3163 -0.0111  1.8117
  167SOPE  C21718830   4.510   4.131   8.036 -0.3866  0.0841 -0.5412
  167SOPE  H17R18831   4.601   4.076   8.069 -1.0449 -0.7482 -0.0697
  167SOPE  H17S18832   4.447   4.049   7.995  1.2946 -0.4941 -2.0854
  167SOPE  C21818833   4.437   4.192   8.148  0.4673 -0.1211  0.3603
  167SOPE  H18R18834   4.345   4.250   8.125  0.5360  0.5291  1.5957
  167SOPE  H18S18835   4.492   4.264   8.213 -0.8592  1.9495 -0.7192
  167SOPE  H18T18836   4.398   4.116   8.220 -0.1468  0.6549  0.8652
  167SOPE   C3318837   4.506   4.081   6.822 -0.1082  0.0409  0.2162
  167SOPE   H3X18838   4.523   4.186   6.854  1.2111 -0.2063  0.4071
  167SOPE   H3Y18839   4.607   4.039   6.840  0.3681  2.0418  2.9154
  167SOPE   C3418840   4.413   4.002   6.920 -0.0894  0.3117  0.5520
  167SOPE   H4X18841   4.413   3.893   6.895 -0.9686  0.8605 -2.2785
  167SOPE   H4Y18842   4.311   4.046   6.908  0.0270  0.1411 -1.4266
  167SOPE   C3518843   4.462   4.027   7.068  0.1969  0.4374  0.7625
  167SOPE   H5X18844   4.425   4.126   7.102 -1.2938  0.7482 -1.5324
  167SOPE   H5Y18845   4.573   4.022   7.059  0.2929 -0.6425  2.1287
  167SOPE   C3618846   4.410   3.921   7.170 -0.5198  0.0354  0.4723
  167SOPE   H6X18847   4.443   3.818   7.148 -1.8609 -0.2043 -0.5264
  167SOPE   H6Y18848   4.299   3.925   7.164 -0.4701  3.7623 -1.2270
  167SOPE   C3718849   4.451   3.967   7.304  0.7780 -0.1025 -0.0185
  167SOPE   H7X18850   4.419   4.069   7.334  0.1575  0.0255 -1.0576
  167SOPE   H7Y18851   4.560   3.958   7.320  0.6517  0.2795  1.1197
  167SOPE   C3818852   4.390   3.877   7.415 -0.4030  0.1912 -0.1624
  167SOPE   H8X18853   4.454   3.792   7.446 -0.0369  0.7080  0.5578
  167SOPE   H8Y18854   4.294   3.840   7.374  0.0260 -1.4914  0.2801
  167SOPE   C3918855   4.364   3.952   7.544 -0.1330 -0.2815  0.8088
  167SOPE   H9X18856   4.292   4.034   7.521  0.0070 -0.5137 -0.5147
  167SOPE   H9Y18857   4.461   3.996   7.574  0.1756 -0.8872  0.7136
  167SOPE  C31018858   4.308   3.874   7.657 -0.5740  1.1325  0.0565
  167SOPE  H10X18859   4.391   3.807   7.689 -1.3906 -1.7435 -3.1994
  167SOPE  H10Y18860   4.222   3.805   7.642  1.1892 -0.9828 -1.0134
  167SOPE  C31118861   4.267   3.952   7.780  0.5013  0.2517  0.9053
  167SOPE  H11X18862   4.202   4.037   7.750 -1.0448  0.4225  4.2967
  167SOPE  H11Y18863   4.350   3.992   7.843 -0.5017  2.1830  1.0904
  167SOPE  C31218864   4.180   3.863   7.871  0.6040 -0.3263  0.2483
  167SOPE  H12X18865   4.223   3.769   7.912  0.8889 -0.0209  0.6534
  167SOPE  H12Y18866   4.099   3.829   7.802  0.7559  0.1586 -0.1746
  167SOPE  C31318867   4.096   3.926   7.984  0.3991 -0.2455 -0.1609
  167SOPE  H13X18868   4.019   3.848   8.002  1.8825 -2.4222 -2.4865
  167SOPE  H13Y18869   4.037   4.012   7.945  2.7887  1.1614 -0.8694
  167SOPE  C31418870   4.170   3.968   8.120  0.0105  0.0889 -0.2363
  167SOPE  H14X18871   4.180   4.079   8.121  0.5026  0.0509 -0.3843
  167SOPE  H14Y18872   4.277   3.936   8.119 -0.0158  0.0055 -0.6191
  167SOPE  C31518873   4.095   3.915   8.242  0.5932 -0.0314 -0.7103
  167SOPE  H15X18874   4.094   3.804   8.241  2.2152 -0.1131  1.1616
  167SOPE  H15Y18875   3.988   3.944   8.236  0.5498  0.2400  1.0169
  167SOPE  C31618876   4.163   3.962   8.369  0.5517 -0.6430  1.0303
  167SOPE  H16X18877   4.136   4.067   8.394  2.5500 -0.1877  1.3911
  167SOPE  H16Y18878   4.272   3.947   8.357  0.6963 -0.3666  1.9787
  167SOPE  C31718879   4.117   3.876   8.491 -0.4891  0.4273  0.9318
  167SOPE  H17X18880   4.160   3.774   8.478 -2.7574 -0.5350  0.3884
  167SOPE  H17Y18881   4.007   3.864   8.503 -0.7358  0.7993 -0.6377
  167SOPE  C31818882   4.156   3.942   8.624  0.0873 -0.6138  0.6333
  167SOPE  H18X18883   4.263   3.970   8.628 -0.0568  0.2113 -0.8061
  167SOPE  H18Y18884   4.126   3.888   8.716  0.7121  0.7955  1.6858
  167SOPE  H18Z18885   4.095   4.034   8.629  0.6061 -0.2494  0.3316
  168SOPE     N18886   3.803   4.204   6.138  0.1597  0.5845  0.2131
  168SOPE   HN118887   3.783   4.123   6.077  2.1452 -1.9794  2.6724
  168SOPE   HN218888   3.730   4.277   6.130 -1.1822 -0.5482  1.5968
  168SOPE   HN318889   3.895   4.249   6.118  0.6155 -0.1355  0.6137
  168SOPE   C1218890   3.808   4.158   6.285 -0.0793 -0.3248  0.8799
  168SOPE  H12A18891   3.703   4.130   6.311 -1.5962  2.0497 -2.0961
  168SOPE  H12B18892   3.850   4.242   6.343 -1.3610  0.2385  1.0305
  168SOPE   C1118893   3.899   4.036   6.304 -0.0970 -0.2178  0.3725
  168SOPE  H11A18894   3.847   3.952   6.254  0.4328 -0.5169  0.3261
  168SOPE  H11B18895   3.912   4.005   6.410  3.4124 -1.5209 -0.3082
  168SOPE     P18896   4.148   4.112   6.354 -0.3540 -0.1774  0.0182
  168SOPE   O1318897   4.096   4.212   6.451 -0.1831 -0.0484  0.5144
  168SOPE   O1418898   4.266   4.151   6.271 -0.0532  0.3466 -0.6432
  168SOPE   O1218899   4.032   4.054   6.259 -0.0762 -0.7048  0.0423
  168SOPE   O1118900   4.189   3.985   6.447  0.0675 -0.0659  0.4158
  168SOPE    C118901   4.201   3.857   6.383 -0.7347  0.7503  0.2228
  168SOPE    HA18902   4.290   3.801   6.419 -2.1222 -1.8548 -0.1535
  168SOPE    HB18903   4.205   3.854   6.272  0.5859  0.6885  0.2483
  168SOPE    C218904   4.091   3.749   6.431  0.0449  0.7184  0.1744
  168SOPE    HS18905   3.996   3.797   6.400 -0.6443 -0.6876  0.0224
  168SOPE   O2118906   4.105   3.729   6.573 -0.5495 -0.5060  0.2259
  168SOPE   C2118907   4.022   3.813   6.648 -0.2974 -0.3099  0.1341
  168SOPE   O2218908   3.921   3.867   6.605  0.4915 -0.8221  0.5676
  168SOPE   C2218909   4.081   3.833   6.795 -0.1721  0.2048  0.5132
  168SOPE   H2R18910   4.133   3.931   6.796  0.6553 -0.2195 -0.2009
  168SOPE   H2S18911   4.155   3.753   6.815 -0.3205 -0.4564 -1.3455
  168SOPE    C318912   4.112   3.616   6.349 -0.2139  1.0261  0.1958
  168SOPE    HX18913   4.223   3.616   6.354 -0.2645 -0.2720  3.2620
  168SOPE    HY18914   4.077   3.612   6.244  0.4831 -0.5025 -0.0154
  168SOPE   O3118915   4.076   3.493   6.417 -0.3794 -0.4143 -0.1475
  168SOPE   C3118916   3.948   3.487   6.403 -0.0474 -0.1195 -0.1799
  168SOPE   O3218917   3.875   3.560   6.329  0.0603  0.5909 -0.7308
  168SOPE   C3218918   3.896   3.373   6.496 -0.0953 -0.1087  0.2830
  168SOPE   H2X18919   3.975   3.299   6.521 -0.1075 -0.5195 -0.8211
  168SOPE   H2Y18920   3.829   3.313   6.431  0.2606 -0.0253 -0.1630
  168SOPE   C2318921   3.974   3.835   6.901 -0.1634  0.3563 -0.2988
  168SOPE   H3R18922   3.926   3.736   6.914 -0.0613  0.2104 -0.9909
  168SOPE   H3S18923   3.891   3.905   6.878 -1.0314 -0.1620  1.1074
  168SOPE   C2418924   4.033   3.851   7.043  0.5291 -0.2730 -0.1038
  168SOPE   H4R18925   4.057   3.755   7.093 -4.5477 -1.1858  1.1801
  168SOPE   H4S18926   4.115   3.925   7.046 -0.4282  0.7957  0.6839
  168SOPE   C2518927   3.932   3.905   7.146  0.1217 -0.2089  0.5753
  168SOPE   H5R18928   3.911   4.014   7.137  1.5859  0.0605  0.1431
  168SOPE   H5S18929   3.834   3.855   7.129 -0.5880  1.1155  0.5884
  168SOPE   C2618930   3.981   3.881   7.290  0.7211 -0.0449  0.0116
  168SOPE   H6R18931   3.983   3.770   7.295  1.1403 -0.1838 -2.1569
  168SOPE   H6S18932   4.088   3.909   7.294  1.1801 -0.9164 -3.0621
  168SOPE   C2718933   3.897   3.948   7.404 -0.5019 -0.5627 -0.1252
  168SOPE   H7R18934   3.899   4.055   7.374  1.1613 -1.1667 -2.4900
  168SOPE   H7S18935   3.793   3.910   7.405 -0.5927 -0.3564 -1.0645
  168SOPE   C2818936   3.970   3.913   7.534 -0.1689 -0.7744  0.4771
  168SOPE   H8R18937   3.939   3.811   7.564 -1.3583 -0.8315 -0.8593
  168SOPE   H8S18938   4.078   3.908   7.509 -0.4576 -1.8940 -0.6162
  168SOPE   C2918939   3.952   4.022   7.633 -0.4766 -0.2073 -0.3579
  168SOPE   H9118940   4.049   4.075   7.633  1.0363 -2.6674 -2.8164
  168SOPE  C21018941   3.859   4.046   7.722 -0.4915 -0.1410  0.0187
  168SOPE  H10118942   3.865   4.137   7.783 -0.5302 -0.1405  0.0214
  168SOPE  C21118943   3.734   3.973   7.750 -0.6978 -0.6082  0.0443
  168SOPE  H11R18944   3.726   3.881   7.689 -2.3859 -0.4172 -0.0656
  168SOPE  H11S18945   3.636   4.021   7.735 -0.1589  0.6850  0.5288
  168SOPE  C21218946   3.735   3.918   7.895  0.7224 -0.1749  0.0461
  168SOPE  H12R18947   3.764   3.992   7.972 -0.2463  1.4943 -1.1115
  168SOPE  H12S18948   3.809   3.836   7.898 -0.6237 -1.4508 -0.2575
  168SOPE  C21318949   3.597   3.865   7.931  0.3866  0.6147 -0.3724
  168SOPE  H13R18950   3.559   3.806   7.845  1.1526  0.5915 -0.7080
  168SOPE  H13S18951   3.530   3.952   7.948  1.2410  0.9088  1.8498
  168SOPE  C21418952   3.603   3.776   8.055  0.2178  0.1577 -0.2767
  168SOPE  H14R18953   3.636   3.677   8.018 -1.9222 -1.0998  0.9346
  168SOPE  H14S18954   3.506   3.737   8.095  0.8741 -1.0890  0.1418
  168SOPE  C21518955   3.690   3.824   8.164 -0.0315 -0.1300  0.4432
  168SOPE  H15R18956   3.666   3.933   8.172 -1.0861 -0.3734  0.6638
  168SOPE  H15S18957   3.798   3.806   8.145  0.3991  1.0583  1.5899
  168SOPE  C21618958   3.659   3.739   8.292  0.2971  0.7669 -0.5076
  168SOPE  H16R18959   3.684   3.634   8.264 -1.4813 -0.1415  1.0996
  168SOPE  H16S18960   3.555   3.736   8.330  0.3670 -2.0540 -0.2933
  168SOPE  C21718961   3.756   3.765   8.408  0.7146  0.3624  0.0689
  168SOPE  H17R18962   3.854   3.715   8.390 -0.4662 -1.8354 -0.7135
  168SOPE  H17S18963   3.703   3.714   8.491 -1.4505 -1.3127 -2.1916
  168SOPE  C21818964   3.763   3.914   8.448 -0.2564 -0.6451  0.5766
  168SOPE  H18R18965   3.796   3.937   8.551  0.0049 -0.0054  0.3542
  168SOPE  H18S18966   3.655   3.939   8.438  0.1410  1.0991  0.4279
  168SOPE  H18T18967   3.809   3.975   8.368 -0.5056 -0.9318  0.2110
  168SOPE   C3318968   3.811   3.420   6.620 -0.5100  0.3671 -0.8254
  168SOPE   H3X18969   3.740   3.342   6.655  0.4214 -0.6284 -1.0823
  168SOPE   H3Y18970   3.751   3.509   6.592 -1.4266  0.5021  1.3680
  168SOPE   C3418971   3.911   3.442   6.734  0.8044  0.5036 -0.1411
  168SOPE   H4X18972   3.970   3.535   6.721  0.9301  0.1835 -2.1579
  168SOPE   H4Y18973   3.989   3.363   6.744 -0.7169 -1.0801 -0.1986
  168SOPE   C3518974   3.829   3.437   6.865 -0.5358 -0.2717  0.2207
  168SOPE   H5X18975   3.744   3.367   6.880 -0.1158 -1.3192 -1.8728
  168SOPE   H5Y18976   3.779   3.536   6.869 -0.4262 -0.2562  1.5674
  168SOPE   C3618977   3.920   3.421   6.991  0.1973  0.3258 -0.5238
  168SOPE   H6X18978   3.999   3.493   6.960  0.1480 -0.0428 -1.5399
  168SOPE   H6Y18979   3.968   3.320   6.982 -2.5769 -1.2121  0.6345
  168SOPE   C3718980   3.850   3.459   7.124 -0.5107  0.6856 -0.2359
  168SOPE   H7X18981   3.767   3.386   7.132  0.2918 -0.2130  0.0463
  168SOPE   H7Y18982   3.810   3.562   7.126 -1.4669  0.3130  1.4450
  168SOPE   C3818983   3.942   3.440   7.253  0.0203 -0.7712  0.3197
  168SOPE   H8X18984   4.026   3.512   7.266 -0.2453 -0.3489 -0.3061
  168SOPE   H8Y18985   3.992   3.341   7.243  2.1612  0.1488  1.3211
  168SOPE   C3918986   3.851   3.447   7.384 -0.0252 -0.3280 -0.7003
  168SOPE   H9X18987   3.777   3.364   7.387  0.4730 -0.7551  0.5746
  168SOPE   H9Y18988   3.794   3.543   7.383 -0.1135 -0.3575  0.3440
  168SOPE  C31018989   3.949   3.429   7.500  0.0691  0.0645  0.3374
  168SOPE  H10X18990   4.028   3.507   7.488  1.0245 -0.7351  1.2173
  168SOPE  H10Y18991   4.001   3.334   7.478 -0.4125  0.3586 -2.4042
  168SOPE  C31118992   3.888   3.435   7.636  0.4180 -0.0783 -0.2394
  168SOPE  H11X18993   3.824   3.345   7.648  0.7709 -0.0163  2.6611
  168SOPE  H11Y18994   3.808   3.513   7.639 -0.0286 -0.5090 -0.7441
  168SOPE  C31218995   3.981   3.484   7.753  0.0204 -0.6150 -0.2317
  168SOPE  H12X18996   4.011   3.588   7.730 -1.3986 -0.3255 -0.8565
  168SOPE  H12Y18997   4.073   3.420   7.751 -0.4111 -1.2463 -0.1490
  168SOPE  C31318998   3.919   3.493   7.892 -0.3509  0.2767  0.1279
  168SOPE  H13X18999   3.861   3.404   7.926  2.0514 -0.4425  2.6931
  168SOPE  H13Y19000   3.853   3.582   7.893 -0.3605  0.2710  0.0223
  168SOPE  C31419001   4.022   3.509   8.004 -0.1532 -0.6675  0.3577
  168SOPE  H14X19002   4.091   3.591   7.976 -2.6744  1.1357 -0.9163
  168SOPE  H14Y19003   4.087   3.420   8.019  0.2018 -0.1511  2.0625
  168SOPE  C31519004   3.964   3.534   8.151  0.0304  0.3986  0.1834
  168SOPE  H15X19005   3.855   3.521   8.138  0.2398 -2.6522  0.6416
  168SOPE  H15Y19006   3.985   3.641   8.169 -0.5249  0.6633 -0.6915
  168SOPE  C31619007   4.006   3.427   8.253 -0.1032 -0.5796 -0.3037
  168SOPE  H16X19008   4.116   3.408   8.250  0.2564  1.1968  0.4852
  168SOPE  H16Y19009   3.962   3.328   8.228 -4.0556  0.5899  1.2536
  168SOPE  C31719010   3.968   3.469   8.389 -0.2283 -0.1069  0.0962
  168SOPE  H17X19011   3.859   3.483   8.404 -0.5540 -0.8022 -1.4533
  168SOPE  H17Y19012   4.010   3.572   8.402 -1.0367  0.5426 -1.9555
  168SOPE  C31819013   4.033   3.375   8.493 -0.0720 -0.2159  0.7192
  168SOPE  H18X19014   4.142   3.381   8.475  0.4053 -0.6833  3.1752
  168SOPE  H18Y19015   3.993   3.271   8.483 -2.6083  0.3835  3.2489
  168SOPE  H18Z19016   4.015   3.415   8.594 -0.7525 -2.5077  1.5719
  169SOPE     N19017   3.933   5.290   5.902 -0.3881  0.2894 -0.2185
  169SOPE   HN119018   3.988   5.217   5.951 -0.4066 -0.5655 -1.4491
  169SOPE   HN219019   3.830   5.278   5.904 -0.2888 -1.0363 -1.7156
  169SOPE   HN319020   3.961   5.285   5.802  1.5835 -2.4491  0.3516
  169SOPE   C1219021   3.975   5.425   5.951 -0.0177 -0.1032 -0.4390
  169SOPE  H12A19022   3.944   5.442   6.056 -0.3318 -2.2240 -0.1524
  169SOPE  H12B19023   3.921   5.495   5.884  0.4873 -1.6991 -2.6054
  169SOPE   C1119024   4.125   5.452   5.931 -0.0995 -0.0021  0.4828
  169SOPE  H11A19025   4.154   5.550   5.975 -2.5274 -0.0599  2.4165
  169SOPE  H11B19026   4.146   5.447   5.822 -2.7424 -1.5412 -0.0333
  169SOPE     P19027   4.302   5.372   6.100  0.2133  0.0419  0.0594
  169SOPE   O1319028   4.381   5.495   6.076  0.1991 -0.1023  0.1233
  169SOPE   O1419029   4.376   5.249   6.135  0.0225 -0.0754 -0.0066
  169SOPE   O1219030   4.202   5.352   5.987 -0.2035 -0.2999 -0.2195
  169SOPE   O1119031   4.201   5.386   6.221 -0.1412  0.5539  0.2680
  169SOPE    C119032   4.135   5.267   6.273  0.3056 -0.1451 -0.3730
  169SOPE    HA19033   4.158   5.172   6.218  1.1207  0.0363 -0.3578
  169SOPE    HB19034   4.027   5.285   6.253  0.3869  0.6486 -0.1356
  169SOPE    C219035   4.170   5.244   6.427  0.7133 -0.4821 -0.0613
  169SOPE    HS19036   4.123   5.326   6.485 -1.1347 -1.3941 -0.2032
  169SOPE   O2119037   4.314   5.240   6.443  0.1199  0.1119 -0.4372
  169SOPE   C2119038   4.359   5.357   6.488  0.1541  0.2485  0.2214
  169SOPE   O2219039   4.297   5.457   6.495 -0.0396 -0.4250  0.2914
  169SOPE   C2219040   4.508   5.337   6.541 -0.0941  0.1204  0.0288
  169SOPE   H2R19041   4.576   5.313   6.457  1.0456 -2.6598  1.6153
  169SOPE   H2S19042   4.504   5.257   6.618 -2.7986  1.0743  1.0009
  169SOPE    C319043   4.104   5.112   6.477 -0.0130 -0.1852  0.7166
  169SOPE    HX19044   4.161   5.025   6.440 -1.6908 -1.4870  1.0588
  169SOPE    HY19045   4.002   5.098   6.436  1.1335 -2.6313 -1.5503
  169SOPE   O3119046   4.100   5.122   6.620 -0.5027  0.2942 -0.1603
  169SOPE   C3119047   4.093   5.003   6.682  0.2634  0.2866  0.3062
  169SOPE   O3219048   4.107   4.898   6.623  0.5188  0.3616 -1.1297
  169SOPE   C3219049   4.077   5.017   6.834  0.4293 -0.0026 -0.3271
  169SOPE   H2X19050   3.991   4.955   6.865  1.1741 -0.2003  1.4941
  169SOPE   H2Y19051   4.051   5.124   6.845 -1.1852 -0.2984 -1.0947
  169SOPE   C2319052   4.569   5.462   6.603 -0.1213  0.2195 -0.4538
  169SOPE   H3R19053   4.552   5.543   6.529 -0.2571  0.2952 -0.3376
  169SOPE   H3S19054   4.680   5.454   6.603  0.0950  2.5069 -0.2976
  169SOPE   C2419055   4.507   5.499   6.739 -0.3533 -0.4611 -0.6008
  169SOPE   H4R19056   4.417   5.561   6.720  1.8916  3.1814 -0.4538
  169SOPE   H4S19057   4.479   5.416   6.808 -0.2816  0.6257  0.7840
  169SOPE   C2519058   4.602   5.588   6.817  0.5929 -0.1932 -0.6081
  169SOPE   H5R19059   4.704   5.543   6.824  0.2991 -0.6639  1.7222
  169SOPE   H5S19060   4.618   5.686   6.768  0.3638 -0.3825 -1.0637
  169SOPE   C2619061   4.539   5.627   6.956  0.8903 -0.0349 -0.2528
  169SOPE   H6R19062   4.455   5.689   6.920  0.4356 -1.6125 -2.0362
  169SOPE   H6S19063   4.497   5.543   7.014  2.3901 -1.6679 -1.4242
  169SOPE   C2719064   4.622   5.705   7.061 -0.2553  0.0731 -0.1572
  169SOPE   H7R19065   4.685   5.644   7.129  3.4369  2.5586 -1.0218
  169SOPE   H7S19066   4.700   5.761   7.005 -0.3040 -1.1078 -1.4560
  169SOPE   C2819067   4.538   5.803   7.136  0.3134 -0.2757 -0.0112
  169SOPE   H8R19068   4.614   5.865   7.188 -1.7237 -0.6045  3.7438
  169SOPE   H8S19069   4.489   5.876   7.068 -1.0731  0.6079  1.8440
  169SOPE   C2919070   4.431   5.745   7.227 -0.3794 -0.4710 -0.1127
  169SOPE   H9119071   4.334   5.714   7.187 -0.0231 -0.7498 -0.7903
  169SOPE  C21019072   4.449   5.739   7.362 -0.0918  0.1306 -0.1866
  169SOPE  H10119073   4.371   5.702   7.430  0.7626 -1.4136 -0.0046
  169SOPE  C21119074   4.572   5.770   7.438  0.3216  0.0687  0.0273
  169SOPE  H11R19075   4.652   5.789   7.363 -0.2115  0.2354 -0.5143
  169SOPE  H11S19076   4.609   5.682   7.494  0.8269 -1.6226 -2.7937
  169SOPE  C21219077   4.562   5.881   7.539 -0.0883 -0.0336  0.5879
  169SOPE  H12R19078   4.531   5.971   7.482 -1.6401 -0.1032  1.2736
  169SOPE  H12S19079   4.658   5.894   7.593 -0.7870  1.4138  1.5325
  169SOPE  C21319080   4.447   5.852   7.635  0.4797  0.4905 -0.2380
  169SOPE  H13R19081   4.469   5.762   7.696  0.5735  0.0807 -0.8649
  169SOPE  H13S19082   4.348   5.828   7.590  0.3617 -0.7042  0.6119
  169SOPE  C21419083   4.427   5.976   7.724  0.1583 -0.5503  0.1033
  169SOPE  H14R19084   4.354   5.953   7.805  0.2042 -0.6986  0.1027
  169SOPE  H14S19085   4.390   6.057   7.659 -1.6096 -0.9879  0.4901
  169SOPE  C21519086   4.559   6.032   7.783  0.3188 -0.5188  0.1720
  169SOPE  H15R19087   4.636   6.063   7.708 -0.7636 -1.2258 -1.2911
  169SOPE  H15S19088   4.602   5.943   7.835 -0.7041 -1.3682 -0.3893
  169SOPE  C21619089   4.537   6.132   7.897  0.7073 -0.6954  0.0745
  169SOPE  H16R19090   4.633   6.164   7.941  0.6877  0.6023 -0.7601
  169SOPE  H16S19091   4.498   6.062   7.973  1.4903 -0.6449  0.5242
  169SOPE  C21719092   4.445   6.251   7.864 -0.1172  0.1880 -0.5551
  169SOPE  H17R19093   4.341   6.220   7.843 -0.1519  1.3977 -2.3670
  169SOPE  H17S19094   4.488   6.297   7.772 -1.1875 -1.3867 -1.8993
  169SOPE  C21819095   4.432   6.348   7.983 -0.1130 -1.0893 -0.0066
  169SOPE  H18R19096   4.385   6.291   8.066  1.7760 -2.0876  0.4408
  169SOPE  H18S19097   4.380   6.443   7.962  1.7364  0.1779  0.8927
  169SOPE  H18T19098   4.533   6.350   8.029 -0.6169 -0.3236  1.1297
  169SOPE   C3319099   4.203   4.982   6.911  0.8160 -0.3562 -0.7312
  169SOPE   H3X19100   4.272   5.069   6.906  0.2149  0.1800 -0.0078
  169SOPE   H3Y19101   4.248   4.884   6.887  0.4431 -0.8923  0.6774
  169SOPE   C3419102   4.167   4.985   7.065  0.1380  0.2083  0.6975
  169SOPE   H4X19103   4.108   4.893   7.080  0.4397  0.2237  2.1281
  169SOPE   H4Y19104   4.105   5.075   7.083  1.9174  1.3108  1.5923
  169SOPE   C3519105   4.287   4.995   7.166 -0.5369  0.1869  0.3632
  169SOPE   H5X19106   4.330   5.094   7.140 -3.1332  0.5743 -3.0710
  169SOPE   H5Y19107   4.364   4.915   7.163 -1.1178 -0.3583 -0.2557
  169SOPE   C3619108   4.236   5.006   7.309 -0.0906 -0.0654  0.3495
  169SOPE   H6X19109   4.145   5.069   7.319  1.1095  1.4995  1.9618
  169SOPE   H6Y19110   4.318   5.043   7.373 -0.3331  1.8359 -0.3810
  169SOPE   C3719111   4.192   4.867   7.364 -0.6749 -0.4356  0.1060
  169SOPE   H7X19112   4.286   4.810   7.374 -1.4256 -1.8303 -0.5520
  169SOPE   H7Y19113   4.120   4.824   7.291  1.0478 -0.9313 -1.3783
  169SOPE   C3819114   4.121   4.873   7.501 -0.2087  0.0295  0.1293
  169SOPE   H8X19115   4.038   4.946   7.501  0.8588  1.3078  1.4555
  169SOPE   H8Y19116   4.076   4.773   7.520  1.7717 -1.5508 -2.6632
  169SOPE   C3919117   4.214   4.912   7.621 -0.1131 -0.3158  0.2146
  169SOPE   H9X19118   4.256   5.013   7.605  0.3253 -0.3617  1.0373
  169SOPE   H9Y19119   4.298   4.840   7.635  0.7058  0.2661 -1.4036
  169SOPE  C31019120   4.130   4.925   7.750 -0.0333  0.2083 -0.5609
  169SOPE  H10X19121   4.071   4.834   7.774 -2.2547  0.2568 -4.8858
  169SOPE  H10Y19122   4.064   5.015   7.747 -0.6532 -0.1887  0.4878
  169SOPE  C31119123   4.227   4.943   7.876 -0.8245  0.3989  0.4569
  169SOPE  H11X19124   4.286   5.036   7.867  0.1205 -0.3882 -2.7275
  169SOPE  H11Y19125   4.293   4.854   7.863  0.5825  1.3262  1.0553
  169SOPE  C31219126   4.150   4.950   8.004  0.3824 -0.0764 -0.0659
  169SOPE  H12X19127   4.224   4.981   8.080  1.8989  1.3480 -2.0012
  169SOPE  H12Y19128   4.106   4.853   8.033  1.2156 -1.3027 -2.5561
  169SOPE  C31319129   4.035   5.056   8.008  0.5689 -0.4241  0.7302
  169SOPE  H13X19130   3.965   5.020   7.930  2.5825 -1.6416 -0.5978
  169SOPE  H13Y19131   4.073   5.154   7.972  0.9620 -0.3377  1.3704
  169SOPE  C31419132   3.973   5.066   8.150  0.1312 -0.3450 -0.5800
  169SOPE  H14X19133   3.904   5.154   8.155  0.0926 -0.3762 -0.5703
  169SOPE  H14Y19134   4.048   5.077   8.231  0.5453  0.1196 -1.0216
  169SOPE  C31519135   3.879   4.952   8.190  0.0641 -0.3618 -0.1738
  169SOPE  H15X19136   3.937   4.859   8.171 -0.1794 -0.5389 -0.0580
  169SOPE  H15Y19137   3.786   4.945   8.129 -0.6821 -2.5536  1.0851
  169SOPE  C31619138   3.825   4.942   8.335 -0.0039 -0.2897  0.7159
  169SOPE  H16X19139   3.746   4.864   8.333  1.6489 -2.0656  0.9937
  169SOPE  H16Y19140   3.778   5.042   8.349  0.4152  0.1110 -0.6650
  169SOPE  C31719141   3.928   4.906   8.448 -0.1900  0.5685  0.1025
  169SOPE  H17X19142   3.886   4.934   8.547  1.1000  1.0294  0.5340
  169SOPE  H17Y19143   4.021   4.966   8.436  0.3359 -0.5720 -1.9434
  169SOPE  C31819144   3.975   4.763   8.429 -0.1082  0.0336  0.2043
  169SOPE  H18X19145   4.014   4.748   8.326 -2.1861  2.1867 -0.9821
  169SOPE  H18Y19146   3.901   4.683   8.448 -0.2448  0.1656  0.2235
  169SOPE  H18Z19147   4.061   4.751   8.499  0.4970 -2.9461 -0.8922
  170SOPE     N19148   6.626   2.332   5.998 -0.0324 -0.2058 -0.8121
  170SOPE   HN119149   6.568   2.417   6.009 -0.6547 -0.7822  0.6323
  170SOPE   HN219150   6.636   2.291   6.094  0.3905 -0.0091 -0.7650
  170SOPE   HN319151   6.715   2.366   5.955  1.6764 -1.1479  1.7199
  170SOPE   C1219152   6.539   2.240   5.921 -0.3836  0.1225 -0.1402
  170SOPE  H12A19153   6.610   2.158   5.898  1.2087  1.2108  0.6889
  170SOPE  H12B19154   6.521   2.294   5.825 -1.3717 -0.8089 -0.4960
  170SOPE   C1119155   6.403   2.195   5.975 -0.9546 -0.8254 -0.9366
  170SOPE  H11A19156   6.351   2.119   5.913 -3.9317 -1.3111  1.8872
  170SOPE  H11B19157   6.326   2.273   5.987  0.1199  0.2281 -0.6798
  170SOPE     P19158   6.474   1.995   6.137 -0.0120  0.2726 -0.0848
  170SOPE   O1319159   6.582   1.945   6.044  0.3500 -0.0961 -0.4915
  170SOPE   O1419160   6.354   1.913   6.150  0.7654 -0.3799  0.2356
  170SOPE   O1219161   6.440   2.148   6.105  0.6502  0.0458 -0.4974
  170SOPE   O1119162   6.542   1.994   6.280  0.2065  0.4206  0.1472
  170SOPE    C119163   6.494   2.085   6.382  0.4289  0.2235 -0.4220
  170SOPE    HA19164   6.384   2.096   6.387  0.6875  2.7748  2.2052
  170SOPE    HB19165   6.546   2.183   6.368  1.5842 -0.3967 -0.5965
  170SOPE    C219166   6.537   2.040   6.528  0.2595 -0.3519  0.1441
  170SOPE    HS19167   6.648   2.040   6.536  0.1767 -0.4524  1.6569
  170SOPE   O2119168   6.481   1.909   6.549 -0.2662  0.5045  0.7357
  170SOPE   C2119169   6.556   1.818   6.614 -0.0581  0.3414  0.3004
  170SOPE   O2219170   6.671   1.828   6.641 -0.6407  0.2059  0.4510
  170SOPE   C2219171   6.475   1.701   6.635  0.3755  0.3503 -0.5625
  170SOPE   H2R19172   6.502   1.623   6.561 -1.2574 -1.1392  0.3511
  170SOPE   H2S19173   6.367   1.723   6.622 -0.2397 -1.8859  0.3152
  170SOPE    C319174   6.484   2.132   6.639  0.1210 -0.2303 -0.1036
  170SOPE    HX19175   6.376   2.105   6.637  0.1841 -0.5094  0.1739
  170SOPE    HY19176   6.505   2.241   6.629 -2.2710  0.3752  0.5982
  170SOPE   O3119177   6.535   2.080   6.769 -0.0313 -1.0079  0.4513
  170SOPE   C3119178   6.648   2.133   6.816 -0.1568  0.2193 -0.0721
  170SOPE   O3219179   6.715   2.220   6.768  0.0823 -0.5572  0.5237
  170SOPE   C3219180   6.693   2.058   6.941  0.0394  0.7221 -0.4824
  170SOPE   H2X19181   6.788   2.096   6.982  1.3871 -2.7428 -0.0073
  170SOPE   H2Y19182   6.704   1.949   6.919 -1.5459  0.2775  0.6879
  170SOPE   C2319183   6.504   1.637   6.772  0.4315  0.1978 -0.1890
  170SOPE   H3R19184   6.613   1.632   6.791  0.1755 -1.0426  1.0807
  170SOPE   H3S19185   6.461   1.535   6.761 -0.2290  0.3004  1.1980
  170SOPE   C2419186   6.437   1.717   6.885  0.1535 -0.7591 -0.1366
  170SOPE   H4R19187   6.493   1.712   6.981 -0.1675  0.1453  0.1124
  170SOPE   H4S19188   6.445   1.826   6.865  1.3227 -0.8875 -0.4631
  170SOPE   C2519189   6.290   1.672   6.921 -0.0603 -0.2647  0.5575
  170SOPE   H5R19190   6.226   1.692   6.832  1.2031 -0.5043 -0.4480
  170SOPE   H5S19191   6.292   1.561   6.934  0.1067 -0.0738  2.2911
  170SOPE   C2619192   6.235   1.760   7.042 -0.2787 -0.6421  0.5478
  170SOPE   H6R19193   6.329   1.780   7.098 -1.8572  0.7295  2.8862
  170SOPE   H6S19194   6.178   1.847   7.003  0.2691 -0.6726 -0.3544
  170SOPE   C2719195   6.142   1.675   7.128 -0.6848 -0.2289  0.8085
  170SOPE   H7R19196   6.062   1.738   7.172 -0.1075  0.5908  0.7106
  170SOPE   H7S19197   6.093   1.606   7.057 -0.7617  1.3222 -0.7058
  170SOPE   C2819198   6.214   1.590   7.242  0.0669 -0.1552  0.4587
  170SOPE   H8R19199   6.140   1.510   7.265 -0.6005  0.1350 -0.6216
  170SOPE   H8S19200   6.298   1.534   7.195  0.2999  0.4582  0.1291
  170SOPE   C2919201   6.246   1.676   7.366  0.4427 -0.1185 -0.2541
  170SOPE   H9119202   6.298   1.772   7.348  0.7961  0.0115  1.2850
  170SOPE  C21019203   6.241   1.648   7.502  0.5002  0.1157  0.9422
  170SOPE  H10119204   6.274   1.724   7.574  1.0878  1.1332 -0.3459
  170SOPE  C21119205   6.205   1.512   7.563  0.1102  0.3838  0.3109
  170SOPE  H11R19206   6.281   1.479   7.637 -0.1185  0.5385  0.6181
  170SOPE  H11S19207   6.218   1.436   7.482  0.3599  0.3485  0.3834
  170SOPE  C21219208   6.064   1.504   7.612  0.4574  0.5535  0.1064
  170SOPE  H12R19209   6.050   1.393   7.608  0.2809  0.5892 -0.3517
  170SOPE  H12S19210   5.984   1.542   7.544 -0.9473 -0.0400  1.3541
  170SOPE  C21319211   6.042   1.548   7.757  0.5311 -0.6021 -0.2170
  170SOPE  H13R19212   6.134   1.521   7.812  0.1767  1.1723  1.3637
  170SOPE  H13S19213   5.965   1.484   7.804 -0.3396 -0.4012 -1.3184
  170SOPE  C21419214   6.003   1.699   7.763 -0.6002 -0.4576 -0.1037
  170SOPE  H14R19215   5.936   1.732   7.681 -1.6578 -1.1990  0.4296
  170SOPE  H14S19216   6.099   1.751   7.743  0.4877 -2.8259 -1.2678
  170SOPE  C21519217   5.934   1.736   7.902  0.3992  0.2160  0.3492
  170SOPE  H15R19218   5.987   1.687   7.986 -2.8263 -3.0063  0.7825
  170SOPE  H15S19219   5.841   1.675   7.910 -0.0968  1.2106  2.7479
  170SOPE  C21619220   5.906   1.886   7.932 -0.1135  0.6533  0.6042
  170SOPE  H16R19221   5.837   1.928   7.855 -1.7404  3.9681  3.5739
  170SOPE  H16S19222   6.000   1.944   7.917  0.1047  0.5126  1.4020
  170SOPE  C21719223   5.847   1.911   8.075 -0.4015 -0.2012  0.2065
  170SOPE  H17R19224   5.743   1.871   8.075  0.5876 -2.9488  0.5028
  170SOPE  H17S19225   5.829   2.021   8.072  0.8052  0.0091  0.2946
  170SOPE  C21819226   5.934   1.871   8.195 -0.2136  0.3086 -0.7621
  170SOPE  H18R19227   6.032   1.924   8.188 -0.9646  1.7663 -0.7117
  170SOPE  H18S19228   5.951   1.762   8.208 -2.1969  0.1617  1.2724
  170SOPE  H18T19229   5.885   1.908   8.288  0.2978  1.7632 -1.0364
  170SOPE   C3319230   6.586   2.075   7.041  0.8711 -0.0479 -0.4745
  170SOPE   H3X19231   6.608   2.008   7.127 -1.1660  0.4630  0.5091
  170SOPE   H3Y19232   6.486   2.059   6.995  0.1970 -0.6301  1.1200
  170SOPE   C3419233   6.583   2.214   7.110 -0.0629 -0.1213 -0.0049
  170SOPE   H4X19234   6.592   2.291   7.029  4.5606  1.2741  1.5213
  170SOPE   H4Y19235   6.676   2.219   7.169 -0.3958  0.3535  0.4864
  170SOPE   C3519236   6.456   2.217   7.192  1.0603  0.3163  0.3860
  170SOPE   H5X19237   6.444   2.114   7.232  3.1311 -1.0110 -2.1245
  170SOPE   H5Y19238   6.365   2.244   7.135  1.7975  4.3994  0.8519
  170SOPE   C3619239   6.453   2.329   7.300  0.3773 -0.2180 -0.5155
  170SOPE   H6X19240   6.474   2.431   7.261 -0.4391  0.0924 -0.1546
  170SOPE   H6Y19241   6.531   2.309   7.376  0.0332  0.5328  0.0409
  170SOPE   C3719242   6.325   2.349   7.374 -0.8155 -0.0744  0.4166
  170SOPE   H7X19243   6.303   2.258   7.435  1.2403 -0.6564  0.3494
  170SOPE   H7Y19244   6.236   2.354   7.308 -0.6520 -2.0240 -0.0092
  170SOPE   C3819245   6.340   2.473   7.462  0.0837 -0.5666 -0.4685
  170SOPE   H8X19246   6.260   2.470   7.538  1.7463 -1.3433  1.3296
  170SOPE   H8Y19247   6.345   2.569   7.406  2.7891  0.2800  1.0523
  170SOPE   C3919248   6.462   2.480   7.557 -0.5967  0.2646 -0.6756
  170SOPE   H9X19249   6.454   2.573   7.616  0.5032 -1.5704  2.6194
  170SOPE   H9Y19250   6.562   2.478   7.509 -0.0554  0.5087  0.4252
  170SOPE  C31019251   6.464   2.370   7.669 -0.0295 -0.0567  0.0573
  170SOPE  H10X19252   6.490   2.272   7.624  0.1762  0.1491 -0.2785
  170SOPE  H10Y19253   6.366   2.369   7.721 -0.0256 -1.4606  0.0851
  170SOPE  C31119254   6.567   2.405   7.776 -0.2314  0.5276 -0.1964
  170SOPE  H11X19255   6.522   2.495   7.825 -1.1366 -0.4200  0.7659
  170SOPE  H11Y19256   6.669   2.429   7.740  1.3396 -0.2383  3.2599
  170SOPE  C31219257   6.585   2.296   7.888  0.4133  0.2655  0.1469
  170SOPE  H12X19258   6.632   2.210   7.834 -0.9364 -0.2440 -0.2526
  170SOPE  H12Y19259   6.485   2.266   7.925  0.0357  0.0145 -1.0266
  170SOPE  C31319260   6.678   2.336   8.002  0.7667 -0.0106 -0.0059
  170SOPE  H13X19261   6.634   2.404   8.078  3.5817 -0.5547  2.2499
  170SOPE  H13Y19262   6.767   2.388   7.961  1.1702  0.1510  1.0380
  170SOPE  C31419263   6.734   2.216   8.083 -0.3623  0.3904  0.8852
  170SOPE  H14X19264   6.830   2.240   8.133 -0.5329 -2.4204  2.7872
  170SOPE  H14Y19265   6.756   2.135   8.010  2.6837  0.3584  1.6812
  170SOPE  C31519266   6.633   2.147   8.178  0.0893 -0.4857  0.8186
  170SOPE  H15X19267   6.534   2.160   8.129  0.4674  0.0419  0.1838
  170SOPE  H15Y19268   6.634   2.213   8.268  0.8114  2.2279 -1.0490
  170SOPE  C31619269   6.677   2.002   8.194 -0.0717 -0.5282 -0.0866
  170SOPE  H16X19270   6.782   1.992   8.228  0.2065  0.5550 -0.6124
  170SOPE  H16Y19271   6.679   1.959   8.092  0.1637 -1.8381  0.4479
  170SOPE  C31719272   6.584   1.915   8.287  0.7742 -0.1029  0.1715
  170SOPE  H17X19273   6.601   1.810   8.254 -0.3987 -0.3709  0.3497
  170SOPE  H17Y19274   6.476   1.939   8.276  0.7363 -0.5384 -0.4701
  170SOPE  C31819275   6.627   1.935   8.429 -1.5744  0.2108  0.2687
  170SOPE  H18X19276   6.727   1.894   8.454 -0.9772  2.2717  1.5120
  170SOPE  H18Y19277   6.555   1.883   8.495  1.2128 -1.4795  2.1717
  170SOPE  H18Z19278   6.628   2.044   8.451 -0.9213  0.4296 -0.7507
  171SOPE     N19279   0.472   0.231   6.554 -0.0252  0.2854 -0.2593
  171SOPE   HN119280   0.522   0.147   6.519 -0.2294  0.1231 -0.1643
  171SOPE   HN219281   0.439   0.298   6.481  0.0405  1.5321  0.8285
  171SOPE   HN319282   0.535   0.281   6.619  1.9793  1.4141 -2.8821
  171SOPE   C1219283   0.347   0.188   6.623  0.1115 -0.1309  0.2530
  171SOPE  H12A19284   0.313   0.277   6.678 -0.2357  0.1573 -0.4150
  171SOPE  H12B19285   0.365   0.110   6.700 -2.3160 -0.3775  0.6310
  171SOPE   C1119286   0.231   0.154   6.525 -0.5995  0.2795  0.0603
  171SOPE  H11A19287   0.145   0.136   6.593 -0.2144 -0.0072  0.4742
  171SOPE  H11B19288   0.256   0.064   6.465 -0.0780  1.7655 -2.0626
  171SOPE     P19289   0.135   0.246   6.299 -0.0517 -0.0279 -0.2613
  171SOPE   O1319290   0.161   0.110   6.251  0.0681  0.3848  0.3775
  171SOPE   O1419291   0.191   0.351   6.218  0.5199 -0.0712  0.0470
  171SOPE   O1219292   0.203   0.264   6.441  0.5539 -0.9802  0.4421
  171SOPE   O1119293  -0.020   0.270   6.323  0.3552 -0.0777 -0.5354
  171SOPE    C119294  -0.072   0.381   6.392  0.1434  0.0608 -0.5457
  171SOPE    HA19295  -0.167   0.413   6.345 -0.8289  1.7403  2.3056
  171SOPE    HB19296  -0.013   0.475   6.383 -0.6055  0.6812  0.7564
  171SOPE    C219297  -0.096   0.366   6.541 -0.0141  0.5117  0.0386
  171SOPE    HS19298   0.005   0.360   6.586  0.9299  1.2014 -1.8980
  171SOPE   O2119299  -0.169   0.245   6.554 -0.1567 -0.2122 -0.2310
  171SOPE   C2119300  -0.175   0.183   6.668 -0.2271  0.6762  0.3423
  171SOPE   O2219301  -0.106   0.202   6.769  0.1382 -0.0377  0.0795
  171SOPE   C2219302  -0.263   0.059   6.647  0.0479 -0.1925 -0.5572
  171SOPE   H2R19303  -0.200  -0.017   6.595 -1.5888 -1.6972 -0.3993
  171SOPE   H2S19304  -0.350   0.083   6.582 -1.4903  0.7143  1.7322
  171SOPE    C319305  -0.178   0.493   6.603  0.3260  0.3578 -0.4349
  171SOPE    HX19306  -0.284   0.478   6.572 -0.0920 -1.0658  1.4807
  171SOPE    HY19307  -0.129   0.579   6.551 -1.7305  0.7745 -1.8192
  171SOPE   O3119308  -0.154   0.515   6.740 -0.1044 -0.2387  0.0797
  171SOPE   C3119309  -0.231   0.463   6.832 -0.0210  0.7111  0.6022
  171SOPE   O3219310  -0.337   0.407   6.808 -0.5185 -0.2925 -0.0657
  171SOPE   C3219311  -0.173   0.490   6.973  1.0875 -0.9053 -0.9365
  171SOPE   H2X19312  -0.207   0.594   6.993  1.6820 -0.7709 -0.5856
  171SOPE   H2Y19313  -0.062   0.486   6.977  1.0780 -0.7303 -0.4355
  171SOPE   C2319314  -0.317  -0.008   6.776 -0.0979 -0.1700  0.0305
  171SOPE   H3R19315  -0.227  -0.038   6.834  0.3537  0.5795 -0.2617
  171SOPE   H3S19316  -0.385  -0.095   6.762 -1.3133 -0.1572  4.3325
  171SOPE   C2419317  -0.406   0.084   6.862  0.2217  1.1367  0.0557
  171SOPE   H4R19318  -0.353   0.169   6.909  0.9282  1.6935 -1.6778
  171SOPE   H4S19319  -0.486   0.123   6.796 -1.6207  0.0110  1.5075
  171SOPE   C2519320  -0.459  -0.001   6.985  0.2217 -0.8739  0.1874
  171SOPE   H5R19321  -0.479  -0.096   6.932 -0.9208  0.1375 -1.2874
  171SOPE   H5S19322  -0.374  -0.008   7.056 -0.2880 -1.7455  0.7215
  171SOPE   C2619323  -0.586   0.054   7.039  0.4701  0.5408 -0.1495
  171SOPE   H6R19324  -0.552   0.142   7.098  0.0557 -0.7756  2.1691
  171SOPE   H6S19325  -0.650   0.095   6.958  1.8845  1.0994 -1.0292
  171SOPE   C2719326  -0.658  -0.040   7.128 -0.5862 -0.3232  0.7847
  171SOPE   H7R19327  -0.760  -0.010   7.160 -1.8540 -1.4337 -1.8013
  171SOPE   H7S19328  -0.669  -0.134   7.068  0.7097 -1.8284  2.7794
  171SOPE   C2819329  -0.580  -0.082   7.253 -0.4016 -0.1101 -0.3857
  171SOPE   H8R19330  -0.535  -0.180   7.224 -0.4731 -0.4013  0.4421
  171SOPE   H8S19331  -0.491  -0.019   7.272  0.4689 -1.3856 -0.0759
  171SOPE   C2919332  -0.668  -0.098   7.370  0.3122 -0.3181 -0.2461
  171SOPE   H9119333  -0.776  -0.104   7.350  0.0542 -0.6898  1.1069
  171SOPE  C21019334  -0.640  -0.096   7.498 -0.0551  0.3422  0.8833
  171SOPE  H10119335  -0.724  -0.104   7.568 -2.1969 -1.1653 -1.7038
  171SOPE  C21119336  -0.505  -0.077   7.556  0.0427  0.9459 -0.0656
  171SOPE  H11R19337  -0.490   0.028   7.589 -1.7226  1.2240 -0.0043
  171SOPE  H11S19338  -0.425  -0.096   7.482 -0.6234 -0.2076 -0.5180
  171SOPE  C21219339  -0.482  -0.165   7.682 -0.0781 -0.0636  0.5232
  171SOPE  H12R19340  -0.376  -0.197   7.672 -0.2470 -0.4281 -0.1673
  171SOPE  H12S19341  -0.540  -0.259   7.673 -1.0454  0.6268 -0.9160
  171SOPE  C21319342  -0.522  -0.111   7.817 -0.2142 -0.1341  0.1188
  171SOPE  H13R19343  -0.631  -0.088   7.818 -0.8376 -2.7016 -1.0283
  171SOPE  H13S19344  -0.472  -0.012   7.831  0.3193  0.1207 -2.9347
  171SOPE  C21419345  -0.485  -0.201   7.941  0.3569 -0.2123  0.5712
  171SOPE  H14R19346  -0.383  -0.239   7.923  0.5592  0.5743  0.0254
  171SOPE  H14S19347  -0.556  -0.287   7.932 -1.0431  0.7380  2.0531
  171SOPE  C21519348  -0.488  -0.127   8.077 -0.1371  0.1264 -0.9219
  171SOPE  H15R19349  -0.594  -0.105   8.102 -0.6360 -0.3615 -2.4708
  171SOPE  H15S19350  -0.430  -0.032   8.075  1.7639 -0.9696 -0.7266
  171SOPE  C21619351  -0.426  -0.207   8.183 -0.1840  0.4131 -0.1570
  171SOPE  H16R19352  -0.469  -0.309   8.192 -0.0385  0.5006  2.8647
  171SOPE  H16S19353  -0.439  -0.156   8.281 -0.1217  0.8166 -0.3569
  171SOPE  C21719354  -0.271  -0.222   8.176 -0.6778  0.8893 -0.2964
  171SOPE  H17R19355  -0.237  -0.122   8.210 -1.3514  0.7904  0.7257
  171SOPE  H17S19356  -0.238  -0.248   8.074 -1.4359 -0.6584 -0.1829
  171SOPE  C21819357  -0.216  -0.328   8.273 -0.1391  0.0887 -0.3575
  171SOPE  H18R19358  -0.112  -0.303   8.301 -0.1139 -1.4413  1.0099
  171SOPE  H18S19359  -0.229  -0.427   8.225 -2.6666 -0.0152  0.3996
  171SOPE  H18T19360  -0.282  -0.338   8.362 -0.9293  0.9682 -0.8107
  171SOPE   C3319361  -0.219   0.399   7.089  0.5987 -0.2500  0.1779
  171SOPE   H3X19362  -0.148   0.401   7.174 -0.8584 -1.4733  1.5067
  171SOPE   H3Y19363  -0.218   0.295   7.051  0.5711 -0.4819  0.8006
  171SOPE   C3419364  -0.360   0.438   7.147  0.1427 -0.2751  0.3143
  171SOPE   H4X19365  -0.441   0.431   7.072 -1.5475  0.2781  2.0021
  171SOPE   H4Y19366  -0.354   0.543   7.181  0.0475  1.0036 -3.2204
  171SOPE   C3519367  -0.403   0.349   7.259  0.1670 -0.2430 -0.5348
  171SOPE   H5X19368  -0.392   0.242   7.231  0.7583 -0.3726  0.1450
  171SOPE   H5Y19369  -0.512   0.346   7.277  0.4213 -1.4855  1.0730
  171SOPE   C3619370  -0.334   0.386   7.398  0.1652  0.4337  0.4509
  171SOPE   H6X19371  -0.314   0.495   7.409  0.0125  0.3904  1.1972
  171SOPE   H6Y19372  -0.230   0.348   7.388 -0.3961 -0.7833 -1.5159
  171SOPE   C3719373  -0.416   0.327   7.516  0.1260  0.1294 -0.1789
  171SOPE   H7X19374  -0.415   0.217   7.503 -1.7798  0.2007 -1.3272
  171SOPE   H7Y19375  -0.523   0.356   7.513  0.4550  1.3364 -0.9455
  171SOPE   C3819376  -0.363   0.362   7.652  0.4676  0.6063  0.6998
  171SOPE   H8X19377  -0.350   0.471   7.668  0.6008  0.8011 -0.6448
  171SOPE   H8Y19378  -0.258   0.326   7.654  0.2603 -0.0435  0.3012
  171SOPE   C3919379  -0.433   0.293   7.771 -0.6798  0.1845 -0.4880
  171SOPE   H9X19380  -0.417   0.183   7.767 -1.5094  0.0331 -0.0555
  171SOPE   H9Y19381  -0.543   0.309   7.766 -0.7026  0.1625 -0.1020
  171SOPE  C31019382  -0.387   0.344   7.912 -0.5785 -0.1180  0.2662
  171SOPE  H10X19383  -0.422   0.449   7.915 -3.3639 -0.9728  0.4042
  171SOPE  H10Y19384  -0.276   0.353   7.916 -0.4240  0.5609 -2.9110
  171SOPE  C31119385  -0.453   0.264   8.024  0.0690 -0.9938 -0.5921
  171SOPE  H11X19386  -0.436   0.156   8.005 -0.1222 -1.1137 -0.1073
  171SOPE  H11Y19387  -0.562   0.282   8.033  0.2055 -1.2719  2.8700
  171SOPE  C31219388  -0.375   0.295   8.154  0.5228  0.0610 -0.0439
  171SOPE  H12X19389  -0.348   0.402   8.165  2.5448 -0.4047  0.0017
  171SOPE  H12Y19390  -0.275   0.247   8.146  0.0260 -1.4356  1.9844
  171SOPE  C31319391  -0.460   0.240   8.268  0.0831  0.6782 -1.1680
  171SOPE  H13X19392  -0.474   0.130   8.264 -0.8171  0.8278 -2.4168
  171SOPE  H13Y19393  -0.560   0.286   8.274 -1.3000 -2.2197 -0.2076
  171SOPE  C31419394  -0.406   0.270   8.408 -0.5382  0.4846 -0.5237
  171SOPE  H14X19395  -0.488   0.240   8.476 -0.9483  0.4052 -1.0466
  171SOPE  H14Y19396  -0.376   0.376   8.418 -0.8456  0.4156  1.6420
  171SOPE  C31519397  -0.280   0.189   8.430 -0.7056  0.0667 -1.3997
  171SOPE  H15X19398  -0.191   0.235   8.382  0.6122 -1.2021 -0.2715
  171SOPE  H15Y19399  -0.289   0.091   8.378  0.9192 -0.5746 -0.5521
  171SOPE  C31619400  -0.269   0.165   8.581 -1.0656  1.2427  0.0939
  171SOPE  H16X19401  -0.353   0.106   8.623  0.3935 -0.8245  0.2648
  171SOPE  H16Y19402  -0.258   0.263   8.633  2.4480  0.6088  0.8375
  171SOPE  C31719403  -0.144   0.081   8.611  0.4510 -0.0081  0.1509
  171SOPE  H17X19404  -0.122   0.069   8.719  2.2849 -0.4866 -0.2482
  171SOPE  H17Y19405  -0.054   0.125   8.562  1.5766 -3.0753 -0.7463
  171SOPE  C31819406  -0.152  -0.064   8.562  0.4530 -0.0594  0.4563
  171SOPE  H18X19407  -0.225  -0.119   8.625 -0.6223  0.6778 -0.1143
  171SOPE  H18Y19408  -0.049  -0.104   8.576  0.7968  0.6557  0.0460
  171SOPE  H18Z19409  -0.175  -0.072   8.454  0.4397 -1.2411  0.5392
  172SOPE     N19410   0.773   2.123   6.281 -0.2933 -0.1395  0.0486
  172SOPE   HN119411   0.864   2.075   6.294  0.5539  0.8892 -1.8124
  172SOPE   HN219412   0.738   2.087   6.189  0.4783 -1.4150  0.2306
  172SOPE   HN319413   0.782   2.225   6.266  1.7115 -0.4762 -1.4889
  172SOPE   C1219414   0.684   2.089   6.393  0.7430 -0.6764 -0.3453
  172SOPE  H12A19415   0.710   2.161   6.474 -1.5357  1.3173 -1.2467
  172SOPE  H12B19416   0.700   1.987   6.434 -1.0648 -1.0732 -0.5378
  172SOPE   C1119417   0.534   2.110   6.354 -0.3150 -0.4564  0.6630
  172SOPE  H11A19418   0.474   2.083   6.444  0.3905  0.1671  1.3215
  172SOPE  H11B19419   0.517   2.041   6.268  1.7427  1.4055 -1.3469
  172SOPE     P19420   0.364   2.289   6.265 -0.2100 -0.0523  0.0034
  172SOPE   O1319421   0.278   2.175   6.236 -0.0963  0.1218 -0.0617
  172SOPE   O1419422   0.388   2.392   6.159 -0.3699 -0.2065  0.3513
  172SOPE   O1219423   0.514   2.240   6.305  0.3798  0.1306 -0.0231
  172SOPE   O1119424   0.313   2.352   6.402  0.7635  0.3356 -0.0302
  172SOPE    C119425   0.388   2.446   6.477 -0.3475 -0.0496 -0.6227
  172SOPE    HA19426   0.329   2.536   6.505  0.1990  0.5293 -1.2880
  172SOPE    HB19427   0.472   2.489   6.419  0.0132 -1.4452 -1.1854
  172SOPE    C219428   0.438   2.396   6.620 -0.5357  0.0502  0.1504
  172SOPE    HS19429   0.511   2.315   6.599 -0.2862 -0.1430  1.6772
  172SOPE   O2119430   0.328   2.349   6.698  0.6697 -0.0744 -0.3480
  172SOPE   C2119431   0.355   2.263   6.795 -0.4357  0.3234 -0.6812
  172SOPE   O2219432   0.459   2.203   6.806  0.0748  0.4520  0.1414
  172SOPE   C2219433   0.225   2.253   6.883 -0.3692  0.6065 -0.4154
  172SOPE   H2R19434   0.147   2.221   6.810 -0.7798 -0.2799  0.3913
  172SOPE   H2S19435   0.209   2.359   6.912  2.7738  1.9401 -3.0026
  172SOPE    C319436   0.523   2.511   6.687  1.2835 -0.7099  0.3000
  172SOPE    HX19437   0.450   2.590   6.712  2.1768 -0.1567  1.2480
  172SOPE    HY19438   0.589   2.563   6.613  1.3045  0.9467  1.4288
  172SOPE   O3119439   0.593   2.475   6.810  0.2504  0.2648 -0.6648
  172SOPE   C3119440   0.699   2.405   6.779  0.3232  0.2389  0.4807
  172SOPE   O3219441   0.747   2.391   6.669  0.0695 -0.1947 -0.1074
  172SOPE   C3219442   0.759   2.336   6.900  0.2118  0.1294 -0.8784
  172SOPE   H2X19443   0.839   2.271   6.859 -0.8126 -0.4050 -2.1037
  172SOPE   H2Y19444   0.678   2.272   6.941 -0.2167  1.4696  0.4611
  172SOPE   C2319445   0.233   2.155   7.007  0.3864  0.0750  0.4106
  172SOPE   H3R19446   0.140   2.168   7.066  0.0105 -1.9094  0.3059
  172SOPE   H3S19447   0.319   2.179   7.073  1.5184 -2.6470  0.0486
  172SOPE   C2419448   0.234   2.004   6.968  0.5164 -0.3085  0.2605
  172SOPE   H4R19449   0.145   1.997   6.902 -0.3398  2.0057  1.0486
  172SOPE   H4S19450   0.322   1.992   6.901 -1.1649  0.8772 -2.3240
  172SOPE   C2519451   0.238   1.908   7.090  0.5875 -1.0985  0.8573
  172SOPE   H5R19452   0.136   1.913   7.133  1.4703 -0.5990  3.0136
  172SOPE   H5S19453   0.252   1.802   7.058  2.4822 -1.3017  2.2144
  172SOPE   C2619454   0.357   1.926   7.177  0.0369  0.3630  0.4025
  172SOPE   H6R19455   0.448   1.916   7.115  1.5018  1.6018  2.2688
  172SOPE   H6S19456   0.354   2.029   7.218  0.2039  1.2420 -1.6800
  172SOPE   C2719457   0.358   1.810   7.281 -1.0482 -0.4933  0.0910
  172SOPE   H7R19458   0.275   1.818   7.355  0.0800 -0.2355  1.3777
  172SOPE   H7S19459   0.351   1.709   7.236 -1.3714 -0.3157 -0.2555
  172SOPE   C2819460   0.490   1.808   7.368 -0.1538 -0.7234 -0.0836
  172SOPE   H8R19461   0.570   1.788   7.293  0.5170  0.1761  0.3771
  172SOPE   H8S19462   0.514   1.910   7.404 -3.0905  0.1896 -0.5054
  172SOPE   C2919463   0.485   1.709   7.475  0.0736 -0.0339 -0.4300
  172SOPE   H9119464   0.525   1.613   7.439  1.2200  0.4116 -0.3870
  172SOPE  C21019465   0.438   1.716   7.600  0.1835  0.4521  0.3726
  172SOPE  H10119466   0.443   1.624   7.659  1.0602 -1.4508 -2.4778
  172SOPE  C21119467   0.355   1.831   7.655  0.2678 -0.2879 -0.1766
  172SOPE  H11R19468   0.293   1.886   7.581 -1.1182  0.5363  1.5257
  172SOPE  H11S19469   0.423   1.901   7.710  0.4277 -1.2043  0.8392
  172SOPE  C21219470   0.267   1.791   7.776  0.1528 -0.4168  1.0006
  172SOPE  H12R19471   0.332   1.756   7.860  0.2377 -1.5159  0.4952
  172SOPE  H12S19472   0.196   1.709   7.752  0.9166 -1.3906  1.9746
  172SOPE  C21319473   0.178   1.912   7.837 -0.1793  0.7718  0.4362
  172SOPE  H13R19474   0.119   1.953   7.753 -0.7390 -1.5793 -0.3918
  172SOPE  H13S19475   0.243   1.999   7.863 -0.8048  2.1124 -2.1474
  172SOPE  C21419476   0.104   1.878   7.971 -0.5487 -0.2004 -0.2666
  172SOPE  H14R19477   0.042   1.788   7.950 -3.3568  1.1924  1.4559
  172SOPE  H14S19478   0.040   1.968   7.981  1.3835  1.3042 -0.8740
  172SOPE  C21519479   0.199   1.869   8.089  0.2120  0.2438 -0.0706
  172SOPE  H15R19480   0.264   1.958   8.081  1.2730 -0.5644 -0.8125
  172SOPE  H15S19481   0.257   1.775   8.077 -3.5068 -2.0024 -2.9320
  172SOPE  C21619482   0.139   1.859   8.230 -1.0447 -0.2287 -0.0058
  172SOPE  H16R19483   0.039   1.811   8.229 -1.2833  0.2619 -0.3061
  172SOPE  H16S19484   0.121   1.957   8.279  0.6915 -0.6466  1.5634
  172SOPE  C21719485   0.213   1.785   8.341 -0.7592  0.2177  0.1988
  172SOPE  H17R19486   0.315   1.829   8.348  0.8054 -2.8810 -0.9501
  172SOPE  H17S19487   0.240   1.681   8.311 -0.9025 -0.1759  1.4097
  172SOPE  C21819488   0.154   1.775   8.482 -0.2262 -0.1405  0.4622
  172SOPE  H18R19489   0.157   1.875   8.530  0.6549  0.3390 -0.5620
  172SOPE  H18S19490   0.201   1.692   8.539 -3.0612 -2.0127  0.3004
  172SOPE  H18T19491   0.045   1.752   8.488 -1.5400  4.9102  0.5074
  172SOPE   C3319492   0.828   2.438   6.999  0.1748  0.5052 -0.5427
  172SOPE   H3X19493   0.741   2.479   7.053  2.7314  1.6146  3.1776
  172SOPE   H3Y19494   0.880   2.519   6.944 -0.3531  0.3744 -1.2487
  172SOPE   C3419495   0.920   2.370   7.094  0.1751  0.2238  0.1337
  172SOPE   H4X19496   0.988   2.439   7.150  0.7329 -0.6208  0.5176
  172SOPE   H4Y19497   0.974   2.291   7.037 -0.7425 -0.4878  0.2324
  172SOPE   C3519498   0.849   2.299   7.206 -0.0779  0.4922 -0.3087
  172SOPE   H5X19499   0.754   2.246   7.183 -0.6741  0.3237  2.1835
  172SOPE   H5Y19500   0.826   2.376   7.283  2.7888 -1.0113  2.3146
  172SOPE   C3619501   0.941   2.201   7.282 -0.3053  0.0988 -0.4214
  172SOPE   H6X19502   1.033   2.258   7.308 -0.4134 -0.5827  1.6251
  172SOPE   H6Y19503   0.964   2.120   7.209 -3.3678  0.9827 -2.5824
  172SOPE   C3719504   0.891   2.150   7.419  0.7319 -0.7309 -0.0704
  172SOPE   H7X19505   0.796   2.092   7.415  0.2139 -0.3695  3.7020
  172SOPE   H7Y19506   0.864   2.248   7.463  2.2721  0.2603 -1.2416
  172SOPE   C3819507   0.993   2.072   7.488 -0.7517 -0.1072  0.0735
  172SOPE   H8X19508   1.073   2.141   7.524 -1.2557  0.0219  0.9645
  172SOPE   H8Y19509   1.050   1.999   7.426  2.4655  2.7104 -0.5682
  172SOPE   C3919510   0.948   1.990   7.609  0.5093  0.8623 -0.1527
  172SOPE   H9X19511   0.897   2.065   7.673  0.3502 -0.3908  1.2415
  172SOPE   H9Y19512   1.035   1.951   7.665 -0.0655  0.2932  0.3637
  172SOPE  C31019513   0.862   1.879   7.569 -0.1954  0.4702  0.4212
  172SOPE  H10X19514   0.915   1.815   7.495 -0.6789  0.7983 -0.2272
  172SOPE  H10Y19515   0.757   1.903   7.540  0.4611  1.1528 -1.5260
  172SOPE  C31119516   0.837   1.767   7.670  0.1007  0.2497  0.2242
  172SOPE  H11X19517   0.934   1.737   7.715  0.3351  0.6117 -0.0347
  172SOPE  H11Y19518   0.779   1.682   7.629  2.2192 -0.1829 -2.1419
  172SOPE  C31219519   0.752   1.825   7.791 -0.3319  0.6057 -0.0888
  172SOPE  H12X19520   0.647   1.832   7.755 -0.2941  1.1993 -0.0960
  172SOPE  H12Y19521   0.793   1.926   7.816 -0.1775  0.5540 -0.1283
  172SOPE  C31319522   0.753   1.728   7.911 -0.2358  1.0362  0.2216
  172SOPE  H13X19523   0.848   1.749   7.965  0.0255  1.5989 -0.4343
  172SOPE  H13Y19524   0.764   1.624   7.874 -0.0305  0.8266  0.8550
  172SOPE  C31419525   0.635   1.754   8.008  0.4202  0.2362  0.0318
  172SOPE  H14X19526   0.633   1.658   8.065 -1.0194  0.7342  0.8752
  172SOPE  H14Y19527   0.540   1.746   7.951 -0.6461  0.0884  1.7330
  172SOPE  C31519528   0.654   1.870   8.109  0.1169 -0.5545  0.1562
  172SOPE  H15X19529   0.678   1.950   8.036 -1.2697 -0.4889 -0.2663
  172SOPE  H15Y19530   0.741   1.848   8.175 -0.0720 -1.2050  0.1909
  172SOPE  C31619531   0.537   1.895   8.205 -0.1434  0.4148  0.2600
  172SOPE  H16X19532   0.509   1.804   8.262  0.8039  0.5039  0.8789
  172SOPE  H16Y19533   0.453   1.943   8.150  0.9646 -0.3706 -2.2374
  172SOPE  C31719534   0.584   2.005   8.303 -0.5860  0.0756 -0.1227
  172SOPE  H17X19535   0.664   1.961   8.365 -0.6549  1.0772  0.7026
  172SOPE  H17Y19536   0.502   2.041   8.368  0.6869 -1.4497  2.4620
  172SOPE  C31819537   0.642   2.133   8.237  0.2374 -0.1090  0.9357
  172SOPE  H18X19538   0.662   2.214   8.311  3.4539  0.2021 -0.1191
  172SOPE  H18Y19539   0.570   2.168   8.160  1.9311  1.8555  0.1214
  172SOPE  H18Z19540   0.734   2.103   8.183 -0.6615 -2.1694  0.4803
  173SAPI   C1219541   2.285   4.833  10.708  0.0766  0.4413 -0.3168
  173SAPI    H219542   2.300   4.773  10.616 -1.0152 -1.1721  0.5048
  173SAPI    O219543   2.237   4.753  10.817  0.1021  0.5383  0.3929
  173SAPI   HO219544   2.152   4.724  10.784  0.5579  1.4344 -1.7920
  173SAPI   C1319545   2.420   4.899  10.747  0.1095  1.2711 -0.4458
  173SAPI    H319546   2.455   4.963  10.662 -1.0844 -1.4287 -3.1418
  173SAPI    O319547   2.513   4.785  10.754  0.8172 -0.1195 -0.1532
  173SAPI   HO319548   2.477   4.732  10.826  1.0856 -0.4929 -0.2914
  173SAPI   C1419549   2.410   4.971  10.882  0.9249  0.9585  0.3174
  173SAPI    H419550   2.373   4.905  10.964  1.4444  2.0311  1.4495
  173SAPI    O419551   2.535   5.022  10.928 -0.0868  0.2595 -0.2643
  173SAPI   HO419552   2.601   5.006  10.860  0.9660 -0.3352  0.8766
  173SAPI   C1519553   2.306   5.080  10.861 -0.4784  0.0005 -0.2348
  173SAPI    H519554   2.338   5.150  10.781 -0.7339 -0.2865 -0.5928
  173SAPI    O519555   2.291   5.164  10.982  0.2980 -0.2996  0.1797
  173SAPI   HO519556   2.298   5.105  11.058 -2.2753  1.7128  2.1642
  173SAPI   C1619557   2.176   5.031  10.812 -0.0429  0.0897 -0.9003
  173SAPI    H619558   2.131   4.968  10.893  1.3981  1.5689  1.1539
  173SAPI    O619559   2.087   5.142  10.791  0.0215  0.1240  0.6533
  173SAPI   HO619560   2.018   5.087  10.753  1.1961 -2.0522  1.5219
  173SAPI   C1119561   2.186   4.942  10.677  0.4135 -0.0103 -1.2688
  173SAPI    H119562   2.230   5.009  10.599  1.4553  2.3971  1.2351
  173SAPI     P19563   2.030   4.824  10.498  0.3632  0.1045  0.3512
  173SAPI   O1319564   1.885   4.816  10.465 -0.0984  0.6071  0.2544
  173SAPI   O1419565   2.104   4.699  10.497 -0.3066  0.2395  0.1975
  173SAPI   O1219566   2.060   4.896  10.645  0.2187  0.2045  0.3462
  173SAPI   O1119567   2.092   4.935  10.395 -0.3576 -0.2892 -0.7355
  173SAPI    C119568   2.010   5.040  10.346 -0.1123 -0.1487  0.1879
  173SAPI    HA19569   1.901   5.027  10.367 -0.0960 -1.3489 -0.3615
  173SAPI    HB19570   2.053   5.136  10.382  0.1466 -0.6601  1.2639
  173SAPI    C219571   2.025   5.053  10.191 -0.1135 -0.1597 -0.5003
  173SAPI    HS19572   1.974   4.966  10.145  2.2208 -1.8357 -0.1345
  173SAPI   O2119573   2.168   5.057  10.163  0.5594 -0.3669  0.4222
  173SAPI   C2119574   2.195   5.033  10.031 -0.5349  0.0846  0.4313
  173SAPI   O2219575   2.112   5.012   9.946  0.0978  0.2113  0.2264
  173SAPI   C2219576   2.346   5.031  10.016  0.2644  0.0031 -0.0128
  173SAPI   H2R19577   2.382   5.123  10.066 -0.9395  0.1357  0.6372
  173SAPI   H2S19578   2.386   4.946  10.076 -1.7699  0.5022  2.1878
  173SAPI    C319579   1.954   5.171  10.144 -0.3164 -0.7462  0.3515
  173SAPI    HX19580   1.976   5.185  10.036  1.4522  0.6022  0.8358
  173SAPI    HY19581   2.014   5.256  10.184 -2.0876  1.7420 -1.8394
  173SAPI   O3119582   1.807   5.181  10.175 -0.2453  0.4453 -0.4216
  173SAPI   C3119583   1.765   5.310  10.189 -0.1173 -0.1216  0.2182
  173SAPI   O3219584   1.841   5.405  10.203 -0.3245 -0.1284 -0.6246
  173SAPI   C3219585   1.616   5.325  10.167  0.2540 -0.1247 -0.4504
  173SAPI   H2X19586   1.574   5.376  10.256 -0.4998  3.1915 -2.5131
  173SAPI   H2Y19587   1.582   5.220  10.163  1.5381 -0.5349 -1.7272
  173SAPI   C2319588   2.396   5.024   9.872  0.4136 -0.8610  0.5532
  173SAPI   H3R19589   2.347   5.101   9.809  0.7258 -1.7226 -0.8010
  173SAPI   H3S19590   2.373   4.926   9.824  1.6399 -1.0626  0.3277
  173SAPI   C2419591   2.551   5.018   9.857  0.1212 -0.2177 -0.5557
  173SAPI   H4R19592   2.579   4.993   9.752  1.1078  0.9720 -0.6118
  173SAPI   H4S19593   2.599   4.938   9.916  2.1659  1.7508  0.6481
  173SAPI   C2519594   2.602   5.148   9.906 -0.2065 -0.0633 -0.8144
  173SAPI   H5R19595   2.596   5.166  10.015 -0.0832 -1.3451 -0.5779
  173SAPI   C2619596   2.655   5.234   9.818 -0.4179 -1.4030 -0.4791
  173SAPI   H6R19597   2.694   5.328   9.862  0.1881 -1.7448 -0.2723
  173SAPI   C2719598   2.652   5.221   9.672 -0.4886  0.5952  0.3937
  173SAPI   H7R19599   2.676   5.117   9.642  0.6429  0.6824  0.9728
  173SAPI   H7S19600   2.740   5.270   9.625 -1.0694 -0.0087 -1.4212
  173SAPI   C2819601   2.529   5.282   9.607  0.6911  0.3238 -0.8791
  173SAPI   H8R19602   2.512   5.387   9.634  0.5998 -0.1931  1.2932
  173SAPI   C2919603   2.430   5.224   9.536  0.4306  0.1891 -0.3850
  173SAPI   H9R19604   2.346   5.285   9.499 -0.7640 -2.0258 -1.5406
  173SAPI  C21019605   2.418   5.079   9.523  0.1287 -0.4129 -0.1102
  173SAPI  H10R19606   2.352   5.040   9.603  0.5924 -2.4399 -0.6489
  173SAPI  H10S19607   2.514   5.025   9.535  0.6659  0.3967 -0.7135
  173SAPI  C21119608   2.357   5.046   9.395  0.3933  0.3231 -0.0956
  173SAPI  H11R19609   2.264   5.101   9.375  0.2446  0.2058  0.2675
  173SAPI  C21219610   2.388   4.957   9.305 -0.2032  0.2890  0.0530
  173SAPI  H12R19611   2.316   4.948   9.222 -1.4262 -3.8814  1.2797
  173SAPI  C21319612   2.506   4.866   9.311 -0.3411 -0.2142  0.0747
  173SAPI  H13R19613   2.509   4.787   9.388  2.2308  1.0932  1.4718
  173SAPI  H13S19614   2.594   4.929   9.336 -1.4040  2.2516 -1.8632
  173SAPI  C21419615   2.535   4.793   9.180  0.0280 -0.0929  0.3206
  173SAPI  H14R19616   2.587   4.857   9.108  0.8633  1.4666  2.2337
  173SAPI  C21519617   2.508   4.667   9.147  0.0117 -0.0267  0.7813
  173SAPI  H15R19618   2.570   4.635   9.062 -0.7015 -0.7990  0.5436
  173SAPI  C21619619   2.433   4.574   9.242 -0.5791  0.3159  0.0637
  173SAPI  H16R19620   2.367   4.633   9.310  0.6428 -0.9829  2.5219
  173SAPI  H16S19621   2.502   4.525   9.315 -1.5733 -1.8002 -0.3360
  173SAPI  C21719622   2.352   4.477   9.157  0.1520  0.3621 -0.2041
  173SAPI  H17R19623   2.311   4.401   9.226  1.3295  0.9980  1.2614
  173SAPI  H17S19624   2.424   4.430   9.087  1.3607  0.4705  0.9149
  173SAPI  C21819625   2.232   4.529   9.082  0.3927  0.2360  0.4675
  173SAPI  H18R19626   2.253   4.601   8.999 -1.4512  0.1169 -0.1556
  173SAPI  H18S19627   2.180   4.597   9.152 -1.9509  0.0208 -0.9520
  173SAPI  C21919628   2.135   4.428   9.032  0.1204 -0.4211  0.4690
  173SAPI  H19R19629   2.095   4.361   9.111  0.4501  1.0347  1.9230
  173SAPI  H19S19630   2.195   4.371   8.958  3.4782  2.0397  1.0885
  173SAPI  C22019631   2.015   4.492   8.954 -0.6125  1.2210 -0.0868
  173SAPI  H20R19632   2.050   4.535   8.858  1.1831  1.2177  0.5240
  173SAPI  H20S19633   1.976   4.575   9.017  0.5036  0.9441  1.0049
  173SAPI  H20T19634   1.941   4.412   8.937  2.1584 -1.5649  0.0055
  173SAPI   C3319635   1.584   5.414  10.044 -0.3566  0.1779 -0.1611
  173SAPI   H3X19636   1.639   5.510  10.054 -0.1616 -0.0163  0.7479
  173SAPI   H3Y19637   1.476   5.434  10.031 -0.6153 -1.5990 -1.0022
  173SAPI   C3419638   1.627   5.346   9.914 -0.3005 -0.1673  0.6655
  173SAPI   H4X19639   1.570   5.253   9.891 -0.0741  0.1016 -1.1578
  173SAPI   H4Y19640   1.730   5.304   9.920 -1.0621 -2.2564  0.0722
  173SAPI   C3519641   1.613   5.429   9.788 -0.3427 -0.5161  0.2481
  173SAPI   H5X19642   1.699   5.495   9.766 -0.6114 -0.5412 -0.9662
  173SAPI   H5Y19643   1.518   5.487   9.793  0.2705  0.5333 -0.0913
  173SAPI   C3619644   1.618   5.351   9.660 -0.4004  0.5122  0.2257
  173SAPI   H6X19645   1.600   5.410   9.568 -0.1097 -1.2548 -1.0345
  173SAPI   H6Y19646   1.539   5.273   9.660  0.2787 -0.2087 -0.6378
  173SAPI   C3719647   1.744   5.266   9.635  0.0453 -0.3397 -0.5846
  173SAPI   H7X19648   1.764   5.208   9.727 -1.7703  1.0243  0.7331
  173SAPI   H7Y19649   1.832   5.331   9.616 -0.6859  1.6202  2.2419
  173SAPI   C3819650   1.722   5.164   9.520  0.3907  0.1619  0.1862
  173SAPI   H8X19651   1.706   5.217   9.424 -0.8177  1.0161  0.8385
  173SAPI   H8Y19652   1.632   5.103   9.543  0.8566 -1.7754 -2.6442
  173SAPI   C3919653   1.838   5.069   9.492 -0.0452  0.3708  0.5356
  173SAPI   H9X19654   1.825   4.967   9.532  1.8229 -0.4448 -0.7678
  173SAPI   H9Y19655   1.935   5.101   9.536  0.7299  0.3508 -1.0809
  173SAPI  C31019656   1.855   5.036   9.342 -0.1665  0.1239  0.1787
  173SAPI  H10X19657   1.869   5.127   9.281  0.8071  0.3469  0.7111
  173SAPI  H10Y19658   1.760   4.986   9.314 -0.6646  0.7700  0.6739
  173SAPI  C31119659   1.959   4.936   9.311 -0.1130  0.3644 -0.1196
  173SAPI  H11X19660   2.049   4.953   9.373 -0.2265 -1.1335  0.5144
  173SAPI  H11Y19661   1.996   4.942   9.207  0.7480  0.3321  0.1724
  173SAPI  C31219662   1.908   4.791   9.350  1.1572  0.9538 -0.1906
  173SAPI  H12X19663   1.846   4.751   9.268  2.2336  0.4106 -0.7603
  173SAPI  H12Y19664   1.841   4.797   9.438  0.4185  0.5038 -0.7126
  173SAPI  C31319665   2.023   4.701   9.392  0.0574  0.3518  0.5589
  173SAPI  H13X19666   2.121   4.730   9.349  0.5774 -0.6916  0.9973
  173SAPI  H13Y19667   2.012   4.590   9.382  1.1023  0.0413  2.4491
  173SAPI  C31419668   2.053   4.710   9.541  0.1809 -0.0011 -0.3058
  173SAPI  H14X19669   1.975   4.642   9.581 -2.3385  2.4617 -0.7072
  173SAPI  H14Y19670   2.044   4.812   9.584  0.4812  1.1573 -2.7850
  173SAPI  C31519671   2.204   4.671   9.558  0.2443 -0.5177 -0.1037
  173SAPI  H15X19672   2.266   4.754   9.518 -2.2482  1.7453  0.4395
  173SAPI  H15Y19673   2.236   4.586   9.494  0.7350  0.4621 -1.2081
  173SAPI  C31619674   2.240   4.652   9.700 -0.9322 -0.3459  0.0806
  173SAPI  H16X19675   2.187   4.573   9.757  0.5519 -0.1565  1.8156
  173SAPI  H16Y19676   2.209   4.738   9.763 -0.5472 -1.8248  2.3602
  173SAPI  C31719677   2.397   4.631   9.713  0.7223  0.1943 -0.3514
  173SAPI  H17X19678   2.455   4.702   9.652 -0.0874  0.6748 -0.5803
  173SAPI  H17Y19679   2.414   4.529   9.671 -0.2019 -0.1555  0.0920
  173SAPI  C31819680   2.439   4.641   9.860  0.3368  0.8295  0.1442
  173SAPI  H18X19681   2.429   4.737   9.915  1.2610  0.2148  1.4348
  173SAPI  H18Y19682   2.545   4.609   9.866  0.0249 -0.1539  0.5390
  173SAPI  H18Z19683   2.379   4.567   9.916 -0.3915 -0.6191 -2.3713
  174SAPI   C1219684   4.928   4.187  10.802 -0.0985  0.1846  0.8817
  174SAPI    H219685   4.887   4.194  10.699 -0.3097 -0.4152  0.9186
  174SAPI    O219686   4.920   4.318  10.856 -0.1865  0.1798  0.2017
  174SAPI   HO219687   4.989   4.365  10.810  2.3146  0.3191  3.6937
  174SAPI   C1319688   4.824   4.096  10.879 -0.3478  0.2560  0.3382
  174SAPI    H319689   4.822   3.996  10.832 -2.3140 -1.1032  3.0103
  174SAPI    O319690   4.695   4.153  10.866 -0.3840 -0.5096  0.1874
  174SAPI   HO319691   4.708   4.247  10.879 -0.7496 -0.6288  1.6444
  174SAPI   C1419692   4.872   4.078  11.024 -0.1208  0.2389 -0.3702
  174SAPI    H419693   4.869   4.175  11.078  1.6709  0.0778  0.0853
  174SAPI    O419694   4.781   4.001  11.110 -0.3223  0.4517 -0.1512
  174SAPI   HO419695   4.767   3.912  11.076 -1.3064  0.4855  0.1392
  174SAPI   C1519696   5.015   4.027  11.027 -0.3912  0.5803 -0.5855
  174SAPI    H519697   5.020   3.928  10.977 -2.4988 -0.5541  1.2540
  174SAPI    O519698   5.060   4.007  11.163  0.5563 -0.2226  0.0821
  174SAPI   HO519699   5.134   4.063  11.187  2.9127 -2.4223 -1.6106
  174SAPI   C1619700   5.117   4.121  10.953  0.0428  0.7134 -0.3873
  174SAPI    H619701   5.119   4.221  11.001 -0.9390  1.2353 -1.3700
  174SAPI    O619702   5.241   4.066  10.972 -0.0942 -0.0673 -0.0140
  174SAPI   HO619703   5.255   3.995  10.909  0.1062 -0.6912  0.7175
  174SAPI   C1119704   5.070   4.132  10.810  1.0787  1.1380  0.4349
  174SAPI    H119705   5.075   4.029  10.770 -1.3084  1.7950 -1.8093
  174SAPI     P19706   5.208   4.184  10.583  0.7253 -0.2947 -0.1464
  174SAPI   O1319707   5.229   4.041  10.576  0.1342 -0.6984 -0.0195
  174SAPI   O1419708   5.314   4.280  10.551  0.1733  0.0501 -0.2878
  174SAPI   O1219709   5.160   4.217  10.734 -0.5578 -0.1578 -0.5977
  174SAPI   O1119710   5.075   4.216  10.494  0.1146 -0.3804  0.5880
  174SAPI    C119711   5.052   4.142  10.366  1.0321  0.7879 -0.8353
  174SAPI    HA19712   5.139   4.081  10.334  1.0704  0.8952 -0.9304
  174SAPI    HB19713   4.966   4.073  10.380  3.4706 -2.7257 -1.6527
  174SAPI    C219714   5.017   4.249  10.266  0.3917  0.3648  0.9257
  174SAPI    HS19715   4.940   4.313  10.314  1.6888  1.9003  1.0441
  174SAPI   O2119716   4.965   4.186  10.148 -0.2517  0.1499 -0.9160
  174SAPI   C2119717   4.834   4.200  10.140  0.4219 -0.7375  0.1800
  174SAPI   O2219718   4.755   4.210  10.227  0.1639 -0.4637  0.1370
  174SAPI   C2219719   4.793   4.202   9.985 -0.2837  0.7108 -0.3060
  174SAPI   H2R19720   4.797   4.309   9.955  1.9206  0.3691 -1.4213
  174SAPI   H2S19721   4.870   4.135   9.941  1.8788  1.4704  2.0730
  174SAPI    C319722   5.141   4.337  10.241 -0.1663 -0.2320 -0.1026
  174SAPI    HX19723   5.174   4.397  10.328 -0.0284  2.0016 -1.6348
  174SAPI    HY19724   5.103   4.416  10.174 -3.0301 -0.5569  0.9800
  174SAPI   O3119725   5.256   4.268  10.191  0.4722 -0.0928 -0.1834
  174SAPI   C3119726   5.259   4.264  10.059 -0.3817  0.2799 -0.0721
  174SAPI   O3219727   5.171   4.290   9.983  0.7707  0.5341  0.0110
  174SAPI   C3219728   5.407   4.244  10.016  0.1645  0.1995 -0.1549
  174SAPI   H2X19729   5.444   4.155  10.071 -0.1368 -0.3791 -0.8755
  174SAPI   H2Y19730   5.471   4.326  10.055  0.6370 -0.0508 -0.4013
  174SAPI   C2319731   4.657   4.146   9.968 -0.5162  0.1067  0.0015
  174SAPI   H3R19732   4.574   4.211  10.002  0.0511  0.2012  1.2911
  174SAPI   H3S19733   4.643   4.051  10.026 -1.6041 -0.7562 -1.5956
  174SAPI   C2419734   4.632   4.108   9.823 -0.4149  0.2181 -0.4133
  174SAPI   H4R19735   4.713   4.035   9.804 -0.4719  0.3307 -1.1154
  174SAPI   H4S19736   4.655   4.193   9.756 -0.2996 -0.0570 -0.7213
  174SAPI   C2519737   4.498   4.031   9.803 -0.1677 -0.0527  0.2555
  174SAPI   H5R19738   4.413   4.057   9.867 -0.1511 -0.2370  0.3504
  174SAPI   C2619739   4.475   3.944   9.700 -0.2765 -0.6538 -0.2473
  174SAPI   H6R19740   4.379   3.891   9.706 -2.6287  3.2863  0.4241
  174SAPI   C2719741   4.569   3.902   9.594 -0.5020  0.1385 -0.3132
  174SAPI   H7R19742   4.666   3.956   9.598  0.5757 -1.6184 -1.2488
  174SAPI   H7S19743   4.526   3.941   9.500 -1.7198  1.9767  0.9302
  174SAPI   C2819744   4.590   3.753   9.582  0.1074 -0.0680  0.5951
  174SAPI   H8R19745   4.673   3.717   9.645 -0.3082  0.4180  1.4418
  174SAPI   C2919746   4.508   3.667   9.509  0.7889  1.0159 -0.3188
  174SAPI   H9R19747   4.523   3.559   9.520  1.0370  1.1369  0.5372
  174SAPI  C21019748   4.383   3.707   9.421 -0.2570  0.4453 -0.2518
  174SAPI  H10R19749   4.333   3.798   9.462 -2.4930  0.5571 -2.9319
  174SAPI  H10S19750   4.303   3.635   9.446 -0.2482 -0.0325 -1.5345
  174SAPI  C21119751   4.403   3.707   9.273 -0.4699 -0.2515  0.3287
  174SAPI  H11R19752   4.415   3.604   9.234  1.4116 -0.7048  1.9793
  174SAPI  C21219753   4.383   3.820   9.199  0.4146  0.8040  0.6584
  174SAPI  H12R19754   4.369   3.810   9.091  1.1060  1.0584  0.5401
  174SAPI  C21319755   4.345   3.953   9.254  0.0788 -0.3467 -0.0220
  174SAPI  H13R19756   4.331   4.018   9.165 -1.3329 -1.2958 -0.5363
  174SAPI  H13S19757   4.416   4.001   9.325 -0.5068 -1.7223  1.5552
  174SAPI  C21419758   4.209   3.956   9.315  0.3531 -0.0554 -1.1186
  174SAPI  H14R19759   4.153   3.862   9.308 -1.6830  1.0503 -0.5456
  174SAPI  C21519760   4.139   4.064   9.363 -0.3226  0.6996  0.6463
  174SAPI  H15R19761   4.033   4.057   9.393 -0.1912 -1.9050  0.7689
  174SAPI  C21619762   4.200   4.203   9.370  1.0105 -0.0021 -0.3087
  174SAPI  H16R19763   4.144   4.284   9.319  4.6412  3.7534  1.1631
  174SAPI  H16S19764   4.305   4.194   9.335  1.5809 -0.6188  1.4445
  174SAPI  C21719765   4.201   4.236   9.526 -0.5137  0.2808  0.1022
  174SAPI  H17R19766   4.240   4.140   9.566 -3.1382 -0.9330 -0.0131
  174SAPI  H17S19767   4.098   4.237   9.568 -0.4427  0.4912  0.2754
  174SAPI  C21819768   4.263   4.367   9.574  0.3554  0.2070  0.2679
  174SAPI  H18R19769   4.199   4.450   9.537  3.2494  1.8054 -1.5612
  174SAPI  H18S19770   4.366   4.375   9.533  1.5489  1.5905  3.2058
  174SAPI  C21919771   4.265   4.382   9.724 -0.6333 -0.2436 -0.2843
  174SAPI  H19R19772   4.324   4.296   9.761 -3.2668 -2.0152  0.0708
  174SAPI  H19S19773   4.164   4.376   9.769 -1.1783 -1.7743 -1.6006
  174SAPI  C22019774   4.331   4.505   9.772 -0.2445  0.0802 -0.6536
  174SAPI  H20R19775   4.355   4.497   9.880  0.0153  0.0820 -0.7081
  174SAPI  H20S19776   4.263   4.592   9.763 -0.5322  0.2933  2.4033
  174SAPI  H20T19777   4.427   4.513   9.716  0.8378 -0.3054  1.0679
  174SAPI   C3319778   5.433   4.218   9.867  0.6990  0.1195  0.7891
  174SAPI   H3X19779   5.363   4.138   9.834 -3.0351  3.7674 -1.2283
  174SAPI   H3Y19780   5.540   4.191   9.856  0.7461 -0.4429  2.3712
  174SAPI   C3419781   5.426   4.341   9.772  0.1455 -1.2476  0.0910
  174SAPI   H4X19782   5.498   4.415   9.813 -0.7330 -0.9061  1.0517
  174SAPI   H4Y19783   5.318   4.368   9.773  0.4199  0.3736 -2.8215
  174SAPI   C3519784   5.467   4.316   9.631  0.3451  0.0696 -0.5617
  174SAPI   H5X19785   5.427   4.227   9.579  0.5623 -0.0644 -0.5021
  174SAPI   H5Y19786   5.576   4.296   9.637  0.6134  1.2523 -1.3164
  174SAPI   C3619787   5.443   4.433   9.537  0.6800  0.3561 -0.1259
  174SAPI   H6X19788   5.465   4.534   9.576 -0.2075  1.3996 -2.2031
  174SAPI   H6Y19789   5.335   4.425   9.515  0.9999 -1.5723 -1.3198
  174SAPI   C3719790   5.530   4.424   9.409  1.0017 -0.9563  0.0655
  174SAPI   H7X19791   5.535   4.314   9.398  0.0334 -1.1200  1.1603
  174SAPI   H7Y19792   5.629   4.470   9.428  0.0035  0.7438  1.4921
  174SAPI   C3819793   5.464   4.502   9.290 -0.2868  0.2710  0.2948
  174SAPI   H8X19794   5.468   4.612   9.304  1.9579  0.7772 -3.1873
  174SAPI   H8Y19795   5.366   4.467   9.250  0.4037 -0.7146 -0.5832
  174SAPI   C3919796   5.551   4.479   9.164  0.6472  0.2760  0.3207
  174SAPI   H9X19797   5.579   4.372   9.150 -1.0770  0.0138 -1.5735
  174SAPI   H9Y19798   5.642   4.542   9.172  0.7971  0.5404 -2.4617
  174SAPI  C31019799   5.474   4.525   9.036 -0.3090 -0.0831  0.0410
  174SAPI  H10X19800   5.434   4.628   9.046  0.2368  0.0162  1.3849
  174SAPI  H10Y19801   5.383   4.469   9.007  0.3087 -1.5141  0.7673
  174SAPI  C31119802   5.558   4.510   8.901  0.1313  1.0923 -0.1525
  174SAPI  H11X19803   5.664   4.543   8.912  0.3746  0.3103 -0.1164
  174SAPI  H11Y19804   5.515   4.578   8.824  1.4480  2.7171  0.4763
  174SAPI  C31219805   5.566   4.373   8.837  0.3075 -0.3946 -0.1055
  174SAPI  H12X19806   5.573   4.295   8.915 -0.0280 -0.2950  0.0238
  174SAPI  H12Y19807   5.656   4.371   8.771 -0.2074  3.2460 -1.1554
  174SAPI  C31319808   5.452   4.341   8.752 -0.0319  0.1667  0.4143
  174SAPI  H13X19809   5.456   4.421   8.675  2.2293 -0.6280 -0.4076
  174SAPI  H13Y19810   5.364   4.364   8.814 -0.0026  1.0251  0.1490
  174SAPI  C31419811   5.456   4.197   8.698  0.2354 -0.2788 -0.5232
  174SAPI  H14X19812   5.427   4.130   8.782 -0.6857  2.7680  1.7839
  174SAPI  H14Y19813   5.559   4.178   8.661  1.8639  0.8334  3.0020
  174SAPI  C31519814   5.348   4.165   8.591 -0.5630 -0.1958 -0.0943
  174SAPI  H15X19815   5.390   4.077   8.537  0.9236  2.4311 -3.6483
  174SAPI  H15Y19816   5.337   4.245   8.515 -1.9033 -0.6715 -0.4290
  174SAPI  C31619817   5.209   4.152   8.664  0.0008 -0.3929  0.1432
  174SAPI  H16X19818   5.121   4.182   8.602 -0.3993 -3.2715 -0.8208
  174SAPI  H16Y19819   5.201   4.212   8.757  0.0602 -1.3589  0.7773
  174SAPI  C31719820   5.177   4.005   8.715 -0.2698 -0.6507 -0.3286
  174SAPI  H17X19821   5.248   3.969   8.793  1.4153  1.7140 -0.6632
  174SAPI  H17Y19822   5.186   3.935   8.629 -1.4320  0.1451 -1.1169
  174SAPI  C31819823   5.032   3.975   8.771  0.5758 -0.2588  0.5061
  174SAPI  H18X19824   5.017   4.037   8.861  1.2301  1.5390 -0.5609
  174SAPI  H18Y19825   5.021   3.865   8.782  0.6458 -0.2216  0.9606
  174SAPI  H18Z19826   4.958   4.002   8.693 -1.4556 -2.3208  1.6195
  175SAPI   C1219827   1.950   5.458   5.945 -0.1245 -0.8485  0.5983
  175SAPI    H219828   1.856   5.425   5.995 -0.7244  0.6920  0.5392
  175SAPI    O219829   1.999   5.352   5.861  0.8105  0.9108 -0.9379
  175SAPI   HO219830   2.073   5.302   5.893 -0.9176 -0.3391  1.4106
  175SAPI   C1319831   1.918   5.578   5.863 -0.0188 -0.4345  0.8912
  175SAPI    H319832   1.879   5.656   5.932 -0.6439 -2.4945  2.9953
  175SAPI    O319833   1.813   5.544   5.766 -0.3896  0.3546 -0.0315
  175SAPI   HO319834   1.856   5.483   5.706  0.0993  1.0898 -0.4469
  175SAPI   C1419835   2.044   5.618   5.785  0.2998 -0.4484  0.5643
  175SAPI    H419836   2.071   5.549   5.702  0.5442  1.6043 -1.1446
  175SAPI    O419837   2.022   5.736   5.710 -0.4250 -0.0896 -0.2032
  175SAPI   HO419838   2.070   5.741   5.628  1.4765 -2.4910  0.6387
  175SAPI   C1519839   2.158   5.647   5.883  0.4253  0.6263 -0.5043
  175SAPI    H519840   2.129   5.728   5.953  1.1384 -1.2630  2.1488
  175SAPI    O519841   2.278   5.685   5.812 -0.5918  0.3141  0.2934
  175SAPI   HO519842   2.335   5.749   5.855  0.0275  1.8047 -2.5275
  175SAPI   C1619843   2.178   5.536   5.990 -0.0504 -0.0332  0.1766
  175SAPI    H619844   2.231   5.451   5.943 -1.6444 -0.4517 -0.9241
  175SAPI    O619845   2.256   5.586   6.097  0.3376  0.1537  0.2781
  175SAPI   HO619846   2.222   5.562   6.183  2.9600 -0.6302  1.2203
  175SAPI   C1119847   2.049   5.498   6.050  0.4239 -0.4278  0.0494
  175SAPI    H119848   2.000   5.585   6.097  0.5661  1.2931 -2.7613
  175SAPI     P19849   2.037   5.418   6.303 -0.2728  0.2672 -0.7460
  175SAPI   O1319850   2.062   5.289   6.370 -0.3707  0.3267 -0.3296
  175SAPI   O1419851   1.909   5.489   6.330  0.3034 -0.1265 -0.1866
  175SAPI   O1219852   2.070   5.391   6.147  0.5581 -0.0932 -0.2343
  175SAPI   O1119853   2.152   5.518   6.340  0.2731 -0.7860  0.1941
  175SAPI    C119854   2.279   5.489   6.381 -0.5002  0.1873 -0.1976
  175SAPI    HA19855   2.324   5.412   6.314 -1.4352 -2.9502  2.5105
  175SAPI    HB19856   2.344   5.579   6.382 -0.7857  0.4551 -2.0359
  175SAPI    C219857   2.284   5.445   6.531 -0.2598 -0.4492 -0.0913
  175SAPI    HS19858   2.234   5.347   6.541 -0.7605 -0.2453 -0.5608
  175SAPI   O2119859   2.216   5.546   6.602 -0.0073  0.3425  0.9270
  175SAPI   C2119860   2.160   5.507   6.709  0.5119 -0.1000  0.2658
  175SAPI   O2219861   2.140   5.393   6.742 -0.1568  0.3506  0.2955
  175SAPI   C2219862   2.117   5.624   6.795  0.7024 -0.1724  0.1021
  175SAPI   H2R19863   2.206   5.669   6.844 -0.1402  0.2503  1.2912
  175SAPI   H2S19864   2.065   5.690   6.724  0.6441  0.2782  0.5594
  175SAPI    C319865   2.430   5.429   6.579  0.4446  0.0787  0.1581
  175SAPI    HX19866   2.480   5.527   6.560  0.7616  0.1594  1.3314
  175SAPI    HY19867   2.475   5.360   6.504 -0.7490  1.1377 -1.5997
  175SAPI   O3119868   2.447   5.382   6.713  0.4736 -0.0796 -0.4091
  175SAPI   C3119869   2.441   5.252   6.726 -0.4194  0.6980 -0.1093
  175SAPI   O3219870   2.424   5.171   6.634 -0.0315  0.2894 -0.1805
  175SAPI   C3219871   2.442   5.229   6.873  0.1581 -0.1530 -0.1614
  175SAPI   H2X19872   2.356   5.290   6.906 -1.1912 -1.3410 -1.3536
  175SAPI   H2Y19873   2.534   5.275   6.916 -0.4998  2.0655 -1.0288
  175SAPI   C2319874   2.007   5.595   6.909  0.7899 -1.0585  0.5698
  175SAPI   H3R19875   1.918   5.550   6.858 -0.0169 -0.6864  1.6092
  175SAPI   H3S19876   1.980   5.690   6.959  0.7572 -2.0932  2.6383
  175SAPI   C2419877   2.068   5.487   7.005 -0.6600 -0.0642  0.3439
  175SAPI   H4R19878   2.084   5.387   6.959 -0.8092 -0.0400  0.2374
  175SAPI   H4S19879   1.998   5.479   7.090 -2.0020  0.9803 -0.6122
  175SAPI   C2519880   2.199   5.539   7.062  0.2966  0.1845  0.3850
  175SAPI   H5R19881   2.285   5.533   6.994 -0.6233 -0.8979 -0.7384
  175SAPI   C2619882   2.219   5.604   7.178 -0.4942  0.6474 -0.0909
  175SAPI   H6R19883   2.322   5.624   7.210 -0.7215  0.2437  0.9387
  175SAPI   C2719884   2.107   5.637   7.275 -1.4903 -0.2218  0.4200
  175SAPI   H7R19885   2.061   5.546   7.320 -0.4463 -0.2569  1.4615
  175SAPI   H7S19886   2.022   5.672   7.213 -0.8250  0.6936  0.0105
  175SAPI   C2819887   2.152   5.721   7.393  0.2402 -0.0708  0.1256
  175SAPI   H8R19888   2.114   5.824   7.389  1.0225  0.1899 -1.5280
  175SAPI   C2919889   2.226   5.685   7.497  0.2010  0.0347 -0.1276
  175SAPI   H9R19890   2.229   5.766   7.570 -0.1261  1.0743 -1.2361
  175SAPI  C21019891   2.283   5.547   7.520 -0.1419  0.8310  0.0911
  175SAPI  H10R19892   2.380   5.536   7.469  0.0209  0.6352  0.4392
  175SAPI  H10S19893   2.226   5.467   7.469  1.1507  0.0388 -0.1520
  175SAPI  C21119894   2.307   5.529   7.674 -0.0457  0.2187 -0.0680
  175SAPI  H11R19895   2.373   5.602   7.723  2.7582 -3.1241  1.5870
  175SAPI  C21219896   2.252   5.436   7.754 -0.3190  0.7838  0.0839
  175SAPI  H12R19897   2.285   5.436   7.859  1.7982  1.1153 -0.5370
  175SAPI  C21319898   2.155   5.328   7.719  0.0764 -0.4976 -0.0561
  175SAPI  H13R19899   2.171   5.238   7.781  0.5855 -2.1814 -2.5085
  175SAPI  H13S19900   2.170   5.286   7.617  0.0990  1.1031 -0.7451
  175SAPI  C21419901   2.010   5.373   7.734  0.3381  0.7059  0.2390
  175SAPI  H14R19902   1.972   5.400   7.635  0.3726 -1.1171 -0.3090
  175SAPI  C21519903   1.938   5.362   7.844 -0.0085 -0.1767 -0.3384
  175SAPI  H15R19904   1.830   5.381   7.847  0.3510  2.0768 -0.0684
  175SAPI  C21619905   1.997   5.315   7.981  0.3598 -0.5227 -0.1449
  175SAPI  H16R19906   2.107   5.329   7.987  0.1831  1.9882 -1.4760
  175SAPI  H16S19907   1.979   5.208   8.005 -1.7044 -0.3022 -0.5203
  175SAPI  C21719908   1.937   5.392   8.098 -0.2240  0.8054  0.0948
  175SAPI  H17R19909   1.832   5.358   8.111 -0.9894  1.5885 -3.1029
  175SAPI  H17S19910   1.911   5.499   8.079 -1.8378  0.7401  1.6868
  175SAPI  C21819911   2.014   5.382   8.228 -0.3988  0.3175  0.2946
  175SAPI  H18R19912   2.116   5.418   8.201 -0.3631 -2.0511 -3.6726
  175SAPI  H18S19913   2.017   5.277   8.265  0.7348  0.8030  1.6920
  175SAPI  C21919914   1.956   5.479   8.330 -0.3808 -0.5481  0.4565
  175SAPI  H19R19915   1.845   5.465   8.327 -0.6243  0.8734  1.7860
  175SAPI  H19S19916   1.984   5.583   8.302 -1.4995 -0.7078 -1.4473
  175SAPI  C22019917   2.017   5.445   8.465  0.0874 -0.1395  0.1984
  175SAPI  H20R19918   1.970   5.476   8.560  0.0667 -0.8467  0.4263
  175SAPI  H20S19919   2.122   5.482   8.468 -0.2555  0.9506 -0.4759
  175SAPI  H20T19920   2.029   5.335   8.471 -0.4175 -0.2085 -0.0238
  175SAPI   C3319921   2.419   5.086   6.898 -0.0532 -0.2170  0.0739
  175SAPI   H3X19922   2.485   5.018   6.840  0.5748  0.3346  0.1192
  175SAPI   H3Y19923   2.313   5.066   6.874  0.6103 -0.5796 -2.9190
  175SAPI   C3419924   2.433   5.058   7.048  0.1816 -0.3754 -0.4887
  175SAPI   H4X19925   2.534   5.067   7.094  0.2186 -2.3856 -0.0626
  175SAPI   H4Y19926   2.403   4.953   7.070 -2.5199  0.3554 -0.2904
  175SAPI   C3519927   2.343   5.150   7.134  0.8440 -0.2690  0.8530
  175SAPI   H5X19928   2.239   5.149   7.094  1.4606  2.8413 -1.1508
  175SAPI   H5Y19929   2.367   5.259   7.131 -0.1500 -0.0321  1.1814
  175SAPI   C3619930   2.348   5.124   7.287 -0.7883 -0.7314  0.1392
  175SAPI   H6X19931   2.306   5.024   7.310  0.5929 -1.5187 -0.6519
  175SAPI   H6Y19932   2.267   5.183   7.336 -0.1068 -0.1246  0.5586
  175SAPI   C3719933   2.480   5.159   7.353 -0.1183  0.2899  0.9132
  175SAPI   H7X19934   2.520   5.260   7.331  1.4111 -0.2363  1.1187
  175SAPI   H7Y19935   2.555   5.085   7.318  1.3921  0.4893  3.4504
  175SAPI   C3819936   2.483   5.146   7.506 -0.5959 -0.1029  0.0406
  175SAPI   H8X19937   2.445   5.049   7.545 -0.1370 -0.2928  0.0189
  175SAPI   H8Y19938   2.424   5.227   7.555 -2.0876 -2.5640  2.6221
  175SAPI   C3919939   2.634   5.146   7.548  0.1361 -0.1712  0.6852
  175SAPI   H9X19940   2.671   5.251   7.539 -0.1899 -0.0371  0.8953
  175SAPI   H9Y19941   2.700   5.089   7.479  1.5717  0.7024  1.2722
  175SAPI  C31019942   2.654   5.104   7.691  0.1055 -0.7315  0.4111
  175SAPI  H10X19943   2.763   5.117   7.712  0.7429 -0.9494 -2.3967
  175SAPI  H10Y19944   2.614   5.002   7.712 -0.6690 -0.7685 -1.1146
  175SAPI  C31119945   2.580   5.194   7.788 -0.4343 -0.3983  0.2245
  175SAPI  H11X19946   2.470   5.195   7.773 -0.2129  0.3105 -1.5652
  175SAPI  H11Y19947   2.603   5.300   7.764 -0.5335 -0.1606  1.1459
  175SAPI  C31219948   2.629   5.186   7.934  0.2378  0.9162  0.0703
  175SAPI  H12X19949   2.616   5.291   7.968 -0.3156  1.8799 -2.7878
  175SAPI  H12Y19950   2.736   5.161   7.943 -0.0268 -1.3055 -1.9095
  175SAPI  C31319951   2.539   5.095   8.018  0.0072 -0.1085 -0.7187
  175SAPI  H13X19952   2.540   4.993   7.975  1.5955 -0.8935  1.0244
  175SAPI  H13Y19953   2.434   5.130   8.009 -0.9513 -1.9859  1.9587
  175SAPI  C31419954   2.585   5.074   8.167 -0.3092  0.6202 -0.2043
  175SAPI  H14X19955   2.683   5.022   8.171 -0.2420  0.7996  1.9444
  175SAPI  H14Y19956   2.513   4.996   8.201  1.7749 -0.6259  1.6494
  175SAPI  C31519957   2.558   5.193   8.253  0.4799 -0.0165  0.2896
  175SAPI  H15X19958   2.467   5.246   8.219  1.2245  2.7999  2.3500
  175SAPI  H15Y19959   2.644   5.259   8.230  0.3220 -0.0762 -0.4900
  175SAPI  C31619960   2.535   5.169   8.402  0.3274  0.3383  0.8675
  175SAPI  H16X19961   2.628   5.131   8.448  0.7615  1.0117  0.5554
  175SAPI  H16Y19962   2.459   5.089   8.418 -0.6004  1.2109  0.9279
  175SAPI  C31719963   2.488   5.287   8.478  0.2353 -0.4558 -0.7789
  175SAPI  H17X19964   2.566   5.367   8.471  2.7080 -2.6530  0.1032
  175SAPI  H17Y19965   2.484   5.251   8.582 -1.4145 -0.6971 -0.9058
  175SAPI  C31819966   2.340   5.327   8.455  0.5187  0.1704 -0.4051
  175SAPI  H18X19967   2.333   5.420   8.515 -1.5490 -1.1363  1.5569
  175SAPI  H18Y19968   2.265   5.259   8.501 -0.5185  1.6664  0.1705
  175SAPI  H18Z19969   2.325   5.359   8.349  2.0246  2.0023 -0.1103
  176SAPI   C1219970   1.762   4.996   6.392 -0.6202 -0.0292  0.1061
  176SAPI    H219971   1.788   4.937   6.482 -2.0253  1.4040  1.5307
  176SAPI    O219972   1.728   5.128   6.439  0.0879  0.6039 -0.7782
  176SAPI   HO219973   1.780   5.138   6.519 -0.4960 -1.2783 -0.1324
  176SAPI   C1319974   1.882   4.998   6.301  0.3751  0.3772  0.0809
  176SAPI    H319975   1.886   4.891   6.269 -0.4742  0.2059  0.5167
  176SAPI    O319976   2.007   5.028   6.369 -0.1633  0.0451  0.0859
  176SAPI   HO319977   2.014   5.124   6.371  0.0899  0.0211  1.7377
  176SAPI   C1419978   1.864   5.077   6.176 -0.3878  0.5510 -0.0582
  176SAPI    H419979   1.847   5.185   6.199  0.4548  0.6662  0.0616
  176SAPI    O419980   1.974   5.083   6.092 -0.0544  0.1448 -0.1056
  176SAPI   HO419981   1.977   5.174   6.062  1.7564 -0.2749 -1.3902
  176SAPI   C1519982   1.731   5.031   6.106  0.1801 -0.5757  0.7403
  176SAPI    H519983   1.738   4.926   6.072 -0.5752 -0.6667  0.8532
  176SAPI    O519984   1.711   5.108   5.990 -0.4539  0.0449  0.4139
  176SAPI   HO519985   1.758   5.068   5.917  0.4244 -1.4255  1.7137
  176SAPI   C1619986   1.612   5.018   6.198 -0.1196 -0.5649  0.2009
  176SAPI    H619987   1.579   5.116   6.238  1.3784  0.2280 -0.4274
  176SAPI    O619988   1.503   4.955   6.129  0.0570 -0.0962  0.0178
  176SAPI   HO619989   1.435   4.947   6.197 -0.7196  1.4505 -0.5237
  176SAPI   C1119990   1.645   4.929   6.319 -0.3728  0.3465 -0.4953
  176SAPI    H119991   1.667   4.828   6.278 -1.8158 -0.4519  0.6220
  176SAPI     P19992   1.523   4.803   6.519 -0.2436  0.1304  0.0092
  176SAPI   O1319993   1.605   4.692   6.474 -0.3460 -0.5510 -0.5052
  176SAPI   O1419994   1.381   4.765   6.548 -0.4982 -0.5041 -0.4156
  176SAPI   O1219995   1.531   4.917   6.400  0.7082  0.5072 -0.0595
  176SAPI   O1119996   1.593   4.882   6.629 -0.3386  0.0552 -0.1525
  176SAPI    C119997   1.527   5.001   6.684  0.2771  0.4253 -0.0025
  176SAPI    HA19998   1.587   5.090   6.657  0.7320 -0.3285 -1.5941
  176SAPI    HB19999   1.422   5.023   6.652  0.6925  0.7317 -1.2181
  176SAPI    C220000   1.516   4.991   6.837 -0.1685  0.0532  0.1271
  176SAPI    HS20001   1.451   5.069   6.883 -0.6654 -0.2714 -0.0106
  176SAPI   O2120002   1.654   4.987   6.893 -0.0479  0.0076  0.2951
  176SAPI   C2120003   1.716   5.103   6.879 -0.2785  0.6789 -0.5394
  176SAPI   O2220004   1.662   5.202   6.837  0.0585 -0.2734  0.4454
  176SAPI   C2220005   1.861   5.089   6.917  0.2735  0.3004  1.2550
  176SAPI   H2R20006   1.888   4.982   6.929  1.2948  0.1135 -1.8975
  176SAPI   H2S20007   1.919   5.129   6.831  0.0790 -0.5808  0.7034
  176SAPI    C320008   1.445   4.858   6.870  0.1321 -0.1623  0.1573
  176SAPI    HX20009   1.511   4.780   6.825 -0.2142 -0.2618 -0.1869
  176SAPI    HY20010   1.351   4.852   6.810 -0.1627  0.7489  0.5162
  176SAPI   O3120011   1.428   4.827   7.007 -0.2358 -0.1628  0.0935
  176SAPI   C3120012   1.334   4.888   7.072 -0.3890  0.4755 -0.5622
  176SAPI   O3220013   1.251   4.956   7.019  0.2978 -0.5721  0.1610
  176SAPI   C3220014   1.332   4.840   7.214  0.2154  0.1666 -0.6394
  176SAPI   H2X20015   1.422   4.885   7.261  2.1669 -2.9968 -0.9983
  176SAPI   H2Y20016   1.337   4.729   7.212 -1.0617 -0.0661  2.6121
  176SAPI   C2320017   1.896   5.168   7.042 -0.5256  0.3872  0.5417
  176SAPI   H3R20018   1.837   5.261   7.059  0.3352  1.0756 -0.1476
  176SAPI   H3S20019   1.998   5.210   7.026 -0.3128  0.2415  1.4554
  176SAPI   C2420020   1.893   5.081   7.176  0.2656  0.1785  0.2682
  176SAPI   H4R20021   1.967   4.998   7.172 -2.1257 -2.0942 -0.5292
  176SAPI   H4S20022   1.794   5.031   7.183  0.8646 -1.0096  0.6918
  176SAPI   C2520023   1.926   5.168   7.289  0.1386  0.6795  0.0444
  176SAPI   H5R20024   2.032   5.197   7.294  1.2088 -2.8255  0.3934
  176SAPI   C2620025   1.843   5.204   7.386 -0.2600 -0.6740  0.0939
  176SAPI   H6R20026   1.877   5.255   7.478  0.0398  0.4928 -0.6412
  176SAPI   C2720027   1.697   5.161   7.380  0.6095 -0.1208 -0.3845
  176SAPI   H7R20028   1.649   5.138   7.283 -2.9529 -0.3561  1.2743
  176SAPI   H7S20029   1.630   5.245   7.407 -1.3065 -0.5940 -3.2417
  176SAPI   C2820030   1.679   5.053   7.488 -0.2539  0.0626  0.4774
  176SAPI   H8R20031   1.754   4.973   7.492  0.9689  1.1644  0.1764
  176SAPI   C2920032   1.585   5.057   7.590 -0.4505 -0.0084 -0.1816
  176SAPI   H9R20033   1.568   4.965   7.648 -2.3473  0.1114 -0.4811
  176SAPI  C21020034   1.483   5.164   7.608 -0.0580  0.3658  0.4205
  176SAPI  H10R20035   1.406   5.148   7.529 -0.8530 -0.7345  1.3702
  176SAPI  H10S20036   1.523   5.267   7.608  0.3986  0.1943 -0.4842
  176SAPI  C21120037   1.406   5.148   7.737  0.0204  0.2055  0.0043
  176SAPI  H11R20038   1.306   5.101   7.732  0.6586 -1.2007 -0.0600
  176SAPI  C21220039   1.450   5.173   7.864  0.5189 -0.3265 -0.4064
  176SAPI  H12R20040   1.388   5.149   7.951 -1.0946 -3.1470 -2.1635
  176SAPI  C21320041   1.585   5.241   7.899  0.1508  0.4454  0.2801
  176SAPI  H13R20042   1.564   5.348   7.923 -1.2575  0.8888 -2.5463
  176SAPI  H13S20043   1.659   5.234   7.817  0.2596 -1.9066  0.5001
  176SAPI  C21420044   1.652   5.172   8.016  0.4772 -0.1479 -0.5294
  176SAPI  H14R20045   1.734   5.103   7.991  0.2183 -0.2406 -1.1192
  176SAPI  C21520046   1.621   5.179   8.147 -0.1384  0.3674 -0.1647
  176SAPI  H15R20047   1.686   5.124   8.218 -2.2382 -0.0308  1.5648
  176SAPI  C21620048   1.506   5.258   8.206  0.7370  0.0425 -0.2732
  176SAPI  H16R20049   1.434   5.185   8.249  1.5109 -0.9908 -0.6911
  176SAPI  H16S20050   1.449   5.312   8.127  1.0509  0.0097 -0.5248
  176SAPI  C21720051   1.554   5.361   8.317  0.3934  0.6766  0.5522
  176SAPI  H17R20052   1.454   5.401   8.345  0.1388  0.4775 -0.0608
  176SAPI  H17S20053   1.610   5.437   8.258  0.2255 -1.4559 -2.5758
  176SAPI  C21820054   1.627   5.300   8.427 -0.3079  0.5955 -0.2434
  176SAPI  H18R20055   1.729   5.266   8.399 -1.6352 -3.0827 -1.3465
  176SAPI  H18S20056   1.567   5.209   8.449 -3.4948  2.3095 -1.2912
  176SAPI  C21920057   1.637   5.395   8.553  0.6624  0.3199  0.3181
  176SAPI  H19R20058   1.701   5.481   8.527 -1.8805  2.3520  0.3266
  176SAPI  H19S20059   1.689   5.341   8.636  1.8012 -1.0089 -1.1991
  176SAPI  C22020060   1.511   5.452   8.598  0.3130 -0.0800  0.8509
  176SAPI  H20R20061   1.483   5.523   8.517 -0.1638 -2.3428 -1.1170
  176SAPI  H20S20062   1.531   5.494   8.698 -1.4802  1.8075  0.4717
  176SAPI  H20T20063   1.433   5.376   8.620  1.7855 -1.7364  0.5929
  176SAPI   C3320064   1.203   4.887   7.289 -0.2789 -0.8405 -0.0243
  176SAPI   H3X20065   1.108   4.855   7.243 -1.3572  1.0924  0.7205
  176SAPI   H3Y20066   1.200   4.998   7.291  0.1232 -0.8152 -0.4326
  176SAPI   C3420067   1.204   4.843   7.437  0.0280  0.1542  0.2906
  176SAPI   H4X20068   1.306   4.865   7.476 -0.0972  0.4955  0.4250
  176SAPI   H4Y20069   1.190   4.733   7.444 -1.4768  0.3173  0.1512
  176SAPI   C3520070   1.106   4.916   7.530 -0.3788  0.0319  0.6881
  176SAPI   H5X20071   1.002   4.883   7.507 -0.7420  1.8355 -0.4893
  176SAPI   H5Y20072   1.102   5.024   7.503  0.2461  0.3258  1.7182
  176SAPI   C3620073   1.126   4.886   7.678  0.0910 -0.0430 -0.1831
  176SAPI   H6X20074   1.225   4.927   7.708  0.8439 -0.4529 -1.9352
  176SAPI   H6Y20075   1.135   4.776   7.686  2.5206  0.1215  0.1086
  176SAPI   C3720076   1.017   4.940   7.772  0.5976 -0.0877  0.7445
  176SAPI   H7X20077   1.041   4.909   7.877 -1.4081 -0.5645  1.1056
  176SAPI   H7Y20078   0.921   4.889   7.748  1.4740 -1.6657  0.4629
  176SAPI   C3820079   0.995   5.095   7.764  0.0075  0.0587  0.3449
  176SAPI   H8X20080   0.961   5.117   7.660  2.5371  1.1239 -0.3239
  176SAPI   H8Y20081   1.100   5.130   7.775  0.2409 -0.5180  0.0252
  176SAPI   C3920082   0.912   5.151   7.873  0.3612 -0.3980 -0.0586
  176SAPI   H9X20083   0.910   5.092   7.967 -2.4174 -0.8309 -0.2883
  176SAPI   H9Y20084   0.810   5.165   7.831 -0.6396 -0.8033  2.1233
  176SAPI  C31020085   0.958   5.288   7.910  0.3257  0.0976 -0.2493
  176SAPI  H10X20086   0.969   5.353   7.821  2.0836 -0.5168 -0.5154
  176SAPI  H10Y20087   1.051   5.285   7.970  0.9114  1.0630 -1.0765
  176SAPI  C31120088   0.861   5.364   8.001 -0.1636 -0.0267 -0.5685
  176SAPI  H11X20089   0.863   5.296   8.089  1.1282 -0.6063 -1.0124
  176SAPI  H11Y20090   0.758   5.367   7.962  0.2953 -0.7528 -1.8876
  176SAPI  C31220091   0.898   5.508   8.037  0.1413  0.4446 -0.6459
  176SAPI  H12X20092   0.896   5.569   7.944  0.2456  2.1662  0.4496
  176SAPI  H12Y20093   0.994   5.523   8.090  0.4011  2.0804 -1.5274
  176SAPI  C31320094   0.784   5.585   8.117 -0.5481 -0.3451  0.4689
  176SAPI  H13X20095   0.689   5.596   8.061  0.3497  1.2354 -0.8434
  176SAPI  H13Y20096   0.815   5.690   8.137 -1.1173 -0.3828  1.6142
  176SAPI  C31420097   0.754   5.526   8.262  0.1831 -0.0269  0.5002
  176SAPI  H14X20098   0.705   5.429   8.239  1.3255 -1.0035  1.9786
  176SAPI  H14Y20099   0.688   5.604   8.305  0.3902  0.2210  0.3717
  176SAPI  C31520100   0.875   5.510   8.360 -0.0081  0.3134  0.3735
  176SAPI  H15X20101   0.938   5.421   8.340 -0.4726 -0.7049  3.0222
  176SAPI  H15Y20102   0.839   5.497   8.465  0.2115  1.2083  0.5662
  176SAPI  C31620103   0.951   5.643   8.368 -0.4744 -0.7872 -0.2118
  176SAPI  H16X20104   0.887   5.733   8.365  0.5069 -0.0794 -0.5071
  176SAPI  H16Y20105   1.018   5.660   8.281 -1.6177  1.3641 -0.7313
  176SAPI  C31720106   1.050   5.661   8.490  0.3147 -0.1532  0.3660
  176SAPI  H17X20107   0.980   5.650   8.575  0.6946 -2.1991  0.4557
  176SAPI  H17Y20108   1.094   5.763   8.487  1.0770 -0.4830 -0.1743
  176SAPI  C31820109   1.160   5.546   8.506  0.0760  0.0312 -0.5474
  176SAPI  H18X20110   1.214   5.524   8.412  0.1680  0.5889 -0.6288
  176SAPI  H18Y20111   1.124   5.461   8.568  0.4567  1.7294  2.1878
  176SAPI  H18Z20112   1.250   5.580   8.563 -0.8484  0.7800  0.5242
  177SLPC     N20113   3.210   0.563  10.607 -0.1719 -0.3171  0.3231
  177SLPC   C1320114   3.093   0.510  10.684  0.4043 -0.1016 -0.1116
  177SLPC  H13A20115   3.119   0.456  10.774 -0.6076  0.5640  0.6006
  177SLPC  H13B20116   3.021   0.586  10.708  0.9553 -0.3422  2.6728
  177SLPC  H13C20117   3.030   0.445  10.625  2.2574 -2.5809  0.4602
  177SLPC   C1420118   3.280   0.650  10.704  0.3880  0.2984  0.1589
  177SLPC  H14A20119   3.214   0.715  10.760  0.8191  0.5572  0.3677
  177SLPC  H14B20120   3.334   0.589  10.775 -0.4110 -1.2951 -0.5463
  177SLPC  H14C20121   3.353   0.708  10.649 -0.3305  0.2220 -0.9056
  177SLPC   C1520122   3.154   0.644  10.497  0.4912 -0.6181  0.2289
  177SLPC  H15A20123   3.224   0.719  10.463  1.3605 -0.6296  1.8968
  177SLPC  H15B20124   3.127   0.582  10.412 -3.1970  1.6939 -0.4993
  177SLPC  H15C20125   3.066   0.694  10.534  0.5185  0.3743 -0.9681
  177SLPC   C1220126   3.302   0.452  10.557  0.2964  0.0561 -0.7880
  177SLPC  H12A20127   3.337   0.392  10.639 -0.2240  0.5686 -0.1791
  177SLPC  H12B20128   3.384   0.505  10.513  0.3153  0.8288  0.1471
  177SLPC   C1120129   3.241   0.356  10.447 -0.1405 -0.6861 -0.4395
  177SLPC  H11A20130   3.327   0.296  10.410 -1.1980 -3.7811  1.6782
  177SLPC  H11B20131   3.211   0.424  10.364  1.4506  1.2881  0.5364
  177SLPC     P20132   3.141   0.126  10.520 -0.1096  0.1447  0.2568
  177SLPC   O1320133   3.245   0.089  10.619  0.5815 -0.2532  0.3082
  177SLPC   O1420134   2.998   0.085  10.540 -0.0763  0.4898  0.1954
  177SLPC   O1220135   3.133   0.280  10.499  0.2922  0.4435  0.0935
  177SLPC   O1120136   3.183   0.077  10.374  0.3134 -0.4636 -0.8237
  177SLPC    C120137   3.203  -0.066  10.359 -0.4907  0.2206 -0.1612
  177SLPC    HA20138   3.309  -0.070  10.324 -0.5093 -0.7021 -0.1414
  177SLPC    HB20139   3.209  -0.122  10.454  0.6896  0.1927 -0.2359
  177SLPC    C220140   3.102  -0.124  10.255 -0.7039  0.0617  0.0352
  177SLPC    HS20141   3.132  -0.229  10.237 -0.7980 -0.0054  0.2608
  177SLPC   O2120142   3.122  -0.047  10.131 -0.1743  0.2941  0.2091
  177SLPC   C2120143   3.220  -0.084  10.050  0.8885  0.3232  0.2749
  177SLPC   O2220144   3.309  -0.164  10.069  0.8324  0.2952 -0.7279
  177SLPC   C2220145   3.195  -0.010   9.918  0.4947 -0.4468 -1.2513
  177SLPC   H2R20146   3.092   0.029   9.905 -0.0656 -2.4975 -3.8885
  177SLPC   H2S20147   3.264   0.077   9.918 -0.6700  0.5673  1.0337
  177SLPC    C320148   2.958  -0.115  10.296  0.3777 -0.0642  0.2095
  177SLPC    HX20149   2.928  -0.015  10.332 -2.7673 -0.4878 -0.8510
  177SLPC    HY20150   2.944  -0.196  10.371  0.0039 -0.0160  0.1950
  177SLPC   O3120151   2.879  -0.151  10.179  0.3960 -0.5119 -0.1014
  177SLPC   C3120152   2.755  -0.090  10.179 -0.2437  0.7895  0.4230
  177SLPC   O3220153   2.702  -0.029  10.268  0.2285  0.6741  0.3787
  177SLPC   C3220154   2.695  -0.114  10.046  0.0513 -0.5158  0.5762
  177SLPC   H2X20155   2.613  -0.039  10.043  1.6771  1.4051  1.7507
  177SLPC   H2Y20156   2.639  -0.210  10.054  1.3117 -1.2741  0.5044
  177SLPC   C2320157   3.229  -0.091   9.796  0.1343 -0.6099  0.9854
  177SLPC   H3R20158   3.163  -0.179   9.781 -1.1000  0.5957 -1.1101
  177SLPC   H3S20159   3.328  -0.139   9.804  1.2637  1.5510  0.6837
  177SLPC   C2420160   3.204  -0.021   9.661  0.4687 -0.5086  0.3534
  177SLPC   H4R20161   3.230   0.086   9.674  3.6488 -1.3101  1.4425
  177SLPC   H4S20162   3.101  -0.042   9.624  0.4096 -1.3119  0.9463
  177SLPC   C2520163   3.290  -0.070   9.542  0.1951  0.8493  0.3293
  177SLPC   H5R20164   3.255  -0.169   9.508 -0.4027  1.7374 -1.7560
  177SLPC   H5S20165   3.398  -0.070   9.571  0.6534  0.9411 -1.3093
  177SLPC   C2620166   3.276   0.016   9.416  0.3313  0.6327  0.5489
  177SLPC   H6R20167   3.282   0.124   9.441  0.1737  0.4793  1.2913
  177SLPC   H6S20168   3.173  -0.002   9.379  0.7503  1.0681 -0.9001
  177SLPC   C2720169   3.370  -0.020   9.302 -0.4888 -0.0349  0.6807
  177SLPC   H7R20170   3.361  -0.129   9.283 -2.8180 -0.8601  5.0715
  177SLPC   H7S20171   3.475   0.001   9.332 -1.2541  1.1681  2.7871
  177SLPC   C2820172   3.332   0.060   9.175  0.0743  0.7053 -0.1408
  177SLPC   H8R20173   3.365   0.166   9.182 -1.1050  1.2178 -1.6147
  177SLPC   H8S20174   3.222   0.046   9.175 -0.0672  1.7284 -0.1910
  177SLPC   C2920175   3.396  -0.004   9.048  0.7285 -0.1421 -0.1008
  177SLPC   H9R20176   3.427  -0.108   9.068  1.3835 -0.0586 -0.6209
  177SLPC  C21020177   3.431   0.053   8.932 -0.0524 -0.1955 -0.6702
  177SLPC  H10R20178   3.459  -0.017   8.852 -1.3524  0.3167 -1.6200
  177SLPC  C21120179   3.422   0.203   8.887  0.3284  0.2036  0.3803
  177SLPC  H11R20180   3.412   0.270   8.975  1.2061  0.2189  0.4816
  177SLPC  H11S20181   3.516   0.227   8.832  0.0053  1.6591  0.4169
  177SLPC  C21220182   3.299   0.220   8.794  0.4475  0.0201 -0.4196
  177SLPC  H12R20183   3.210   0.196   8.854  1.5493  1.0763  1.7259
  177SLPC  C21320184   3.298   0.258   8.662 -0.5693 -0.0886 -1.0958
  177SLPC  H13R20185   3.207   0.265   8.601  0.1092 -1.1663 -2.2807
  177SLPC  C21420186   3.421   0.286   8.587  0.6425 -0.0857  0.4631
  177SLPC  H14R20187   3.514   0.277   8.647  0.7509 -1.6558  0.0870
  177SLPC  H14S20188   3.413   0.386   8.538 -1.8030 -0.2664  0.3522
  177SLPC  C21520189   3.446   0.182   8.476 -0.2676  0.0002  0.2216
  177SLPC  H15R20190   3.354   0.167   8.417  0.2967  1.1035 -0.9855
  177SLPC  H15S20191   3.469   0.086   8.527  0.3451 -0.0634 -0.1551
  177SLPC  C21620192   3.552   0.225   8.374  0.5788 -0.0035 -0.0681
  177SLPC  H16R20193   3.648   0.244   8.426  1.8271  1.1466 -2.6232
  177SLPC  H16S20194   3.513   0.319   8.329 -0.4514 -1.0923 -1.6038
  177SLPC  C21720195   3.568   0.127   8.260  0.0823  0.0863 -0.3011
  177SLPC  H17R20196   3.462   0.118   8.227 -1.6092  2.3133  3.8340
  177SLPC  H17S20197   3.600   0.024   8.285 -2.2789 -1.3536 -2.5961
  177SLPC  C21820198   3.651   0.173   8.136  0.4896  0.0792  0.2256
  177SLPC  H18R20199   3.630   0.105   8.050 -0.1344  1.9016 -1.1188
  177SLPC  H18S20200   3.760   0.172   8.156  0.6432 -0.2754 -0.6007
  177SLPC  H18T20201   3.620   0.273   8.101 -2.1350 -1.8441 -3.6875
  177SLPC   C3320202   2.788  -0.102   9.925 -0.0390 -0.1302  0.7026
  177SLPC   H3X20203   2.849  -0.195   9.923 -1.8137 -1.3667 -1.5764
  177SLPC   H3Y20204   2.858  -0.016   9.931  0.2157 -0.1979 -0.7848
  177SLPC   C3420205   2.704  -0.089   9.790  0.0776 -0.0308  0.0912
  177SLPC   H4X20206   2.651   0.009   9.789 -2.4310 -1.2957 -0.1352
  177SLPC   H4Y20207   2.627  -0.169   9.787  1.7421 -1.9060  3.0633
  177SLPC   C3520208   2.769  -0.104   9.648  0.5794 -0.2036  0.1509
  177SLPC   H5X20209   2.807  -0.207   9.633  1.3430  0.2898 -1.6336
  177SLPC   H5Y20210   2.855  -0.035   9.633  0.6611 -0.0750  1.1707
  177SLPC   C3620211   2.657  -0.074   9.545  0.1669 -0.2715 -0.0520
  177SLPC   H6X20212   2.641   0.035   9.560  0.5923 -0.0517 -1.0987
  177SLPC   H6Y20213   2.558  -0.117   9.571  0.9729 -1.9600  0.3196
  177SLPC   C3720214   2.696  -0.114   9.404 -1.0568 -0.3798 -0.2495
  177SLPC   H7X20215   2.610  -0.077   9.344 -1.0397  0.4014  0.1897
  177SLPC   H7Y20216   2.693  -0.225   9.403  0.9896 -0.4910 -2.2348
  177SLPC   C3820217   2.832  -0.064   9.364 -0.0427 -0.6649  0.0655
  177SLPC   H8X20218   2.913  -0.090   9.436 -0.7717 -2.1112  0.4033
  177SLPC   H8Y20219   2.817   0.046   9.372 -1.3407 -0.6998 -1.5378
  177SLPC   C3920220   2.880  -0.098   9.225 -0.3494 -0.4484  0.0855
  177SLPC   H9X20221   2.898  -0.206   9.205 -0.2801 -0.4527  0.1704
  177SLPC   H9Y20222   2.980  -0.053   9.204  1.3224 -2.7177  2.4917
  177SLPC  C31020223   2.783  -0.043   9.120  0.1265 -0.0180 -0.5206
  177SLPC  H10X20224   2.762   0.063   9.146 -0.5364 -0.4521  0.8178
  177SLPC  H10Y20225   2.680  -0.085   9.128  0.4235 -0.4201  3.4107
  177SLPC  C31120226   2.832  -0.054   8.975 -0.4022 -0.3260 -0.6606
  177SLPC  H11X20227   2.827  -0.158   8.937 -0.4296  0.7985 -4.1028
  177SLPC  H11Y20228   2.938  -0.022   8.969 -1.2104  2.7210 -0.5591
  177SLPC  C31220229   2.743   0.024   8.884 -0.6049  0.5867 -0.6780
  177SLPC  H12X20230   2.757   0.131   8.909 -0.1746  0.8691 -2.0483
  177SLPC  H12Y20231   2.635   0.000   8.897 -0.2143 -0.5837  0.6362
  177SLPC  C31320232   2.785  -0.002   8.739  0.3623  0.0525 -0.4287
  177SLPC  H13X20233   2.758  -0.105   8.707 -1.5114  0.2279  0.4334
  177SLPC  H13Y20234   2.896   0.001   8.737  0.3521 -0.1009 -1.8089
  177SLPC  C31420235   2.718   0.090   8.639 -0.0275  0.7704 -0.0670
  177SLPC  H14X20236   2.738   0.193   8.674  0.7457  0.3545  0.7624
  177SLPC  H14Y20237   2.608   0.074   8.641  0.0555 -0.4150 -2.1373
  177SLPC  C31520238   2.779   0.061   8.498 -0.7222  0.2742  0.1840
  177SLPC  H15X20239   2.747  -0.042   8.473  1.4582 -0.0159 -1.6765
  177SLPC  H15Y20240   2.890   0.067   8.498 -0.7174  0.2018 -0.2496
  177SLPC  C31620241   2.731   0.164   8.403  0.1950 -0.0251  0.6127
  177SLPC  H16X20242   2.751   0.267   8.439  1.0266  0.3980 -0.9641
  177SLPC  H16Y20243   2.620   0.163   8.393  0.2400  1.8389 -0.5404
  177SLPC  C31720244   2.803   0.135   8.268  0.3763  0.3523 -0.1580
  177SLPC  H17X20245   2.783   0.035   8.226 -0.4392  0.8382 -0.9609
  177SLPC  H17Y20246   2.912   0.141   8.285  0.4315  0.9119 -0.7023
  177SLPC  C31820247   2.764   0.229   8.159 -0.4175  0.4776  0.8645
  177SLPC  H18X20248   2.762   0.333   8.197  1.3619  0.8710 -0.0172
  177SLPC  H18Y20249   2.667   0.203   8.112  0.7659 -0.7631 -1.0241
  177SLPC  H18Z20250   2.839   0.214   8.078 -2.2215  0.1179 -0.7996
  178SLPC     N20251   2.098   0.729  11.064  0.3364 -0.1534 -0.5546
  178SLPC   C1320252   1.955   0.722  11.101 -0.0036 -0.5179 -0.2271
  178SLPC  H13A20253   1.911   0.816  11.132 -2.2635 -1.4333 -0.4787
  178SLPC  H13B20254   1.890   0.684  11.023 -2.2515  1.4420  0.5822
  178SLPC  H13C20255   1.933   0.654  11.182 -0.1972  0.6626  0.7333
  178SLPC   C1420256   2.177   0.771  11.184 -0.0649  0.4835  0.0964
  178SLPC  H14A20257   2.247   0.848  11.157  0.3982 -0.6917 -2.2972
  178SLPC  H14B20258   2.120   0.808  11.267  1.0854  0.2227  1.0369
  178SLPC  H14C20259   2.227   0.683  11.222  0.9457  0.8221 -0.3992
  178SLPC   C1520260   2.120   0.845  10.966 -0.0744  1.1374  0.3195
  178SLPC  H15A20261   2.067   0.836  10.872  3.2953 -0.3814 -1.6482
  178SLPC  H15B20262   2.086   0.936  11.011 -1.3266  0.7395  0.2155
  178SLPC  H15C20263   2.224   0.846  10.938 -0.0983  1.8376  0.2560
  178SLPC   C1220264   2.153   0.602  11.005  0.2051 -0.0581  0.0302
  178SLPC  H12A20265   2.163   0.525  11.080 -0.3738 -0.0773  0.0934
  178SLPC  H12B20266   2.251   0.626  10.967 -0.1671 -0.9599 -1.5677
  178SLPC   C1120267   2.082   0.529  10.895 -0.0667 -0.0534  0.3424
  178SLPC  H11A20268   1.976   0.509  10.920 -0.4401  0.9650 -0.3607
  178SLPC  H11B20269   2.132   0.432  10.874  1.0672  0.3591  1.0565
  178SLPC     P20270   2.189   0.622  10.670 -0.5240  0.5114 -0.2968
  178SLPC   O1320271   2.291   0.712  10.731  0.4582  0.4795 -0.1464
  178SLPC   O1420272   2.226   0.491  10.617 -0.4567  0.2090 -0.1856
  178SLPC   O1220273   2.077   0.601  10.774 -0.2237  0.3021  0.0149
  178SLPC   O1120274   2.122   0.698  10.553  0.3652 -0.6900  0.4635
  178SLPC    C120275   1.995   0.656  10.503 -0.5178  0.3221  0.2870
  178SLPC    HA20276   1.997   0.546  10.487  0.6159  0.4456 -0.5488
  178SLPC    HB20277   1.916   0.689  10.574 -0.6190  1.3064 -0.2610
  178SLPC    C220278   1.962   0.725  10.366 -0.4669  0.1940  0.1103
  178SLPC    HS20279   1.853   0.716  10.344 -0.8170 -0.3411  1.9322
  178SLPC   O2120280   2.049   0.687  10.263  0.0603  0.0884 -0.5895
  178SLPC   C2120281   2.007   0.574  10.216  0.3518  0.3237  0.1073
  178SLPC   O2220282   1.905   0.518  10.244 -0.1609  0.5009  0.3633
  178SLPC   C2220283   2.120   0.522  10.120  0.2734  0.1487  0.0416
  178SLPC   H2R20284   2.220   0.507  10.166  1.1161 -2.3604 -2.4089
  178SLPC   H2S20285   2.086   0.421  10.089  0.2078  0.8263 -2.2796
  178SLPC    C320286   1.996   0.871  10.371  0.5111  0.4047  0.2616
  178SLPC    HX20287   2.106   0.886  10.379  0.3850  0.4082  2.6070
  178SLPC    HY20288   1.952   0.921  10.460  1.5431  1.0102  0.4445
  178SLPC   O3120289   1.942   0.940  10.256 -0.5232  0.3040 -1.2155
  178SLPC   C3120290   1.974   1.068  10.250  0.0182 -0.2324  0.2721
  178SLPC   O3220291   2.053   1.124  10.324 -0.1387  0.0363  0.4495
  178SLPC   C3220292   1.898   1.128  10.132  0.0805 -0.3642  0.1900
  178SLPC   H2X20293   1.805   1.068  10.124 -0.0671 -0.2780  1.1426
  178SLPC   H2Y20294   1.960   1.115  10.040 -0.6597 -1.1977 -0.2010
  178SLPC   C2320295   2.133   0.607   9.994 -0.0745 -0.2955  0.1407
  178SLPC   H3R20296   2.192   0.700  10.011 -0.5485  0.4645 -2.0412
  178SLPC   H3S20297   2.038   0.657   9.964 -0.4063  0.4435  2.2069
  178SLPC   C2420298   2.195   0.528   9.878 -0.2982  0.4966 -0.8721
  178SLPC   H4R20299   2.147   0.427   9.876 -0.1743  0.4360 -0.7712
  178SLPC   H4S20300   2.301   0.510   9.906 -1.2163 -0.8252  2.1255
  178SLPC   C2520301   2.186   0.612   9.750 -0.6507 -0.1259  0.5698
  178SLPC   H5R20302   2.264   0.691   9.757  1.0128 -1.7459  0.9674
  178SLPC   H5S20303   2.088   0.665   9.747 -0.9412 -0.6294  0.9398
  178SLPC   C2620304   2.192   0.537   9.611 -0.6047 -0.3325  0.4576
  178SLPC   H6R20305   2.124   0.449   9.604 -1.3751  0.2169  0.9005
  178SLPC   H6S20306   2.296   0.498   9.608 -1.0449 -1.6877  1.7096
  178SLPC   C2720307   2.150   0.625   9.496 -0.5426 -0.0665 -0.2045
  178SLPC   H7R20308   2.196   0.620   9.395 -0.5828  3.0798 -0.4836
  178SLPC   H7S20309   2.178   0.728   9.527 -1.2291 -0.4026  1.6684
  178SLPC   C2820310   2.000   0.642   9.464  0.1358 -0.0594 -0.4881
  178SLPC   H8R20311   1.955   0.644   9.566  2.0859  1.0273  0.4262
  178SLPC   H8S20312   1.962   0.545   9.427 -1.8394  0.9639 -1.2389
  178SLPC   C2920313   1.953   0.769   9.389 -0.9078  0.2978 -0.3002
  178SLPC   H9R20314   2.019   0.794   9.304  0.1379 -2.3490 -0.3697
  178SLPC  C21020315   1.847   0.838   9.417  0.4128 -0.0858  0.5484
  178SLPC  H10R20316   1.824   0.920   9.348 -0.7227 -0.1029  0.8860
  178SLPC  C21120317   1.752   0.815   9.538 -0.1023  0.3436  0.8193
  178SLPC  H11R20318   1.761   0.716   9.588  2.6790  0.1099  0.0440
  178SLPC  H11S20319   1.650   0.821   9.496 -0.2112  0.7223  1.1354
  178SLPC  C21220320   1.771   0.930   9.633 -0.1065 -0.3431 -0.7183
  178SLPC  H12R20321   1.861   0.987   9.608  0.1541 -0.7417 -0.7075
  178SLPC  C21320322   1.715   0.937   9.761 -0.0587  0.2507  0.3067
  178SLPC  H13R20323   1.739   1.014   9.835 -0.7528 -1.4996  2.4474
  178SLPC  C21420324   1.616   0.829   9.806 -0.0917 -0.4309 -0.6007
  178SLPC  H14R20325   1.563   0.774   9.725 -1.3081 -1.0579  0.5827
  178SLPC  H14S20326   1.534   0.875   9.864 -0.5405  0.9733 -2.2559
  178SLPC  C21520327   1.672   0.713   9.891 -0.1153  0.2564 -0.5588
  178SLPC  H15R20328   1.751   0.673   9.824 -0.3068  0.2974 -0.8080
  178SLPC  H15S20329   1.607   0.623   9.900  0.2362 -0.0871 -1.4156
  178SLPC  C21620330   1.733   0.753  10.033 -0.0991  0.6640  0.1739
  178SLPC  H16R20331   1.797   0.842  10.013 -0.2316  0.9728  1.0439
  178SLPC  H16S20332   1.788   0.665  10.072 -2.5177 -0.2432  1.8223
  178SLPC  C21720333   1.636   0.776  10.152  0.4732 -0.8997  0.8956
  178SLPC  H17R20334   1.557   0.851  10.129  1.4425 -0.3272 -0.6831
  178SLPC  H17S20335   1.689   0.832  10.233  0.0747 -0.4319  0.8401
  178SLPC  C21820336   1.574   0.649  10.200 -0.1172  0.2520 -0.8929
  178SLPC  H18R20337   1.529   0.595  10.114  1.8724 -1.7594 -0.7794
  178SLPC  H18S20338   1.505   0.665  10.285  0.9275 -0.1913  0.0745
  178SLPC  H18T20339   1.652   0.583  10.245 -0.4947 -0.4948 -1.3194
  178SLPC   C3320340   1.858   1.274  10.150  0.0771  0.6786 -0.5911
  178SLPC   H3X20341   1.952   1.333  10.142 -0.3888  1.4337 -0.5663
  178SLPC   H3Y20342   1.806   1.277  10.249  3.1016  0.5385  1.1359
  178SLPC   C3420343   1.774   1.321  10.031 -0.4174 -0.2529  0.1953
  178SLPC   H4X20344   1.752   1.428  10.054  2.1506  0.0088  1.7927
  178SLPC   H4Y20345   1.683   1.260  10.013  0.8663 -2.2641  0.2602
  178SLPC   C3520346   1.841   1.320   9.894  0.1119 -0.2725  0.1466
  178SLPC   H5X20347   1.805   1.227   9.844 -0.1748 -0.8067  1.3230
  178SLPC   H5Y20348   1.952   1.316   9.894  0.3990  3.3536 -1.3534
  178SLPC   C3620349   1.791   1.426   9.800  0.1111 -0.1556  0.1659
  178SLPC   H6X20350   1.793   1.524   9.852 -0.0382 -0.6437  1.1182
  178SLPC   H6Y20351   1.684   1.400   9.787  0.0244 -0.1769  0.8937
  178SLPC   C3720352   1.867   1.437   9.671  0.4532 -0.0414 -0.5548
  178SLPC   H7X20353   1.972   1.416   9.699 -0.0233  1.1690  2.6350
  178SLPC   H7Y20354   1.858   1.538   9.626  2.6334  1.2754  1.7261
  178SLPC   C3820355   1.834   1.335   9.572 -0.6466  0.5503  0.1188
  178SLPC   H8X20356   1.736   1.358   9.525 -0.8218 -2.2736 -1.0972
  178SLPC   H8Y20357   1.852   1.238   9.621  1.9446  0.1049 -1.5323
  178SLPC   C3920358   1.936   1.345   9.452  0.0242  0.8407  0.4206
  178SLPC   H9X20359   2.039   1.345   9.492 -0.2418  1.5311  1.1424
  178SLPC   H9Y20360   1.924   1.445   9.405  1.2301  0.1201 -1.5151
  178SLPC  C31020361   1.923   1.238   9.350 -0.2535 -0.3796 -0.4718
  178SLPC  H10X20362   1.825   1.257   9.303 -1.8589 -1.4328  2.2419
  178SLPC  H10Y20363   1.921   1.141   9.403  1.6357 -0.1531  0.1037
  178SLPC  C31120364   2.026   1.249   9.239 -0.6545  0.6733  0.3175
  178SLPC  H11X20365   2.125   1.235   9.286 -0.5560  0.0957 -0.0498
  178SLPC  H11Y20366   2.035   1.348   9.189  0.5645  0.9633  1.0886
  178SLPC  C31220367   1.995   1.144   9.125  0.4716 -0.5255  0.2161
  178SLPC  H12X20368   1.886   1.150   9.104  0.9674  1.0446 -2.4711
  178SLPC  H12Y20369   1.999   1.041   9.164  2.2745 -0.8919 -0.7821
  178SLPC  C31320370   2.073   1.177   9.001 -0.5474  0.3169  0.1778
  178SLPC  H13X20371   2.047   1.281   8.972  0.1568  0.1718 -1.0313
  178SLPC  H13Y20372   2.032   1.116   8.918 -1.8431  0.5885  0.6010
  178SLPC  C31420373   2.225   1.151   9.018 -0.6043 -0.3993 -0.1604
  178SLPC  H14X20374   2.236   1.048   9.059 -0.5120 -1.4378 -2.6184
  178SLPC  H14Y20375   2.268   1.209   9.102 -0.8730 -3.2698  2.1077
  178SLPC  C31520376   2.294   1.150   8.882  0.2643 -0.2331  0.8564
  178SLPC  H15X20377   2.235   1.085   8.814 -0.5578 -0.8952  2.1659
  178SLPC  H15Y20378   2.289   1.253   8.839  2.4886 -0.0438  0.9542
  178SLPC  C31620379   2.442   1.109   8.886 -0.1276  0.0394 -0.3388
  178SLPC  H16X20380   2.458   1.019   8.949 -0.6709  0.5859  0.6141
  178SLPC  H16Y20381   2.511   1.183   8.933  1.7202 -1.0406 -1.2251
  178SLPC  C31720382   2.495   1.066   8.744  0.1519 -0.5610  0.9782
  178SLPC  H17X20383   2.603   1.043   8.750  0.6150  1.6924  3.1499
  178SLPC  H17Y20384   2.478   1.152   8.676 -1.8111 -1.3253  0.4223
  178SLPC  C31820385   2.426   0.942   8.682 -0.0429 -0.4939 -0.3935
  178SLPC  H18X20386   2.436   0.863   8.760 -0.5568 -0.5055 -0.3314
  178SLPC  H18Y20387   2.473   0.921   8.584 -2.1048 -0.1433 -1.5274
  178SLPC  H18Z20388   2.316   0.955   8.670 -0.4240 -2.9884 -0.1624
  179SLPC     N20389   5.058   1.803  10.712 -0.2772  0.0356  0.4050
  179SLPC   C1320390   4.965   1.916  10.776 -0.1092  0.3618 -0.8885
  179SLPC  H13A20391   4.921   1.873  10.865 -0.6052  1.4440 -0.5898
  179SLPC  H13B20392   5.028   1.995  10.814 -2.3223  0.9853  1.8126
  179SLPC  H13C20393   4.889   1.954  10.709 -1.7662 -0.6920  0.3003
  179SLPC   C1420394   4.975   1.681  10.696 -0.2433 -0.2820 -0.4974
  179SLPC  H14A20395   5.031   1.598  10.654 -2.3846 -1.5163 -1.0863
  179SLPC  H14B20396   4.935   1.647  10.791  2.5637  1.3681  1.3969
  179SLPC  H14C20397   4.895   1.704  10.627 -1.0707 -1.0192  0.1768
  179SLPC   C1520398   5.176   1.779  10.802 -0.5182  0.0583  0.0908
  179SLPC  H15A20399   5.244   1.717  10.746 -0.4976  0.2797 -0.1341
  179SLPC  H15B20400   5.229   1.870  10.824  2.5150 -1.8837  1.3487
  179SLPC  H15C20401   5.142   1.734  10.894 -0.6589 -0.6932 -0.3200
  179SLPC   C1220402   5.105   1.853  10.579  0.2599  0.3554  0.4839
  179SLPC  H12A20403   5.122   1.959  10.585 -2.9442  1.0398 -0.3323
  179SLPC  H12B20404   5.016   1.845  10.518  0.8683 -0.2383 -0.3496
  179SLPC   C1120405   5.215   1.779  10.508 -0.6713 -0.1369 -0.1964
  179SLPC  H11A20406   5.301   1.770  10.577 -0.9017  0.2822  0.1465
  179SLPC  H11B20407   5.238   1.846  10.422  0.7276  1.9247  1.6705
  179SLPC     P20408   5.063   1.647  10.334 -0.1796  0.1083 -0.7250
  179SLPC   O1320409   5.042   1.504  10.302 -0.2109 -0.9746 -0.1944
  179SLPC   O1420410   4.939   1.723  10.357 -0.8276 -0.0737 -0.2511
  179SLPC   O1220411   5.161   1.655  10.459 -0.9593  0.8507 -0.1913
  179SLPC   O1120412   5.152   1.714  10.222  0.0203 -0.2360 -0.2147
  179SLPC    C120413   5.294   1.673  10.218 -0.1636  0.6186  0.2841
  179SLPC    HA20414   5.361   1.747  10.266 -2.0309  1.1272  2.2559
  179SLPC    HB20415   5.312   1.579  10.274 -0.7249 -0.3418 -1.0786
  179SLPC    C220416   5.339   1.662  10.075 -0.5476  0.3375  0.1769
  179SLPC    HS20417   5.332   1.761  10.025 -1.0658 -0.5767 -1.6285
  179SLPC   O2120418   5.262   1.556  10.013 -0.2190  0.1951 -0.1181
  179SLPC   C2120419   5.166   1.607   9.929  0.3491  0.2780 -0.4368
  179SLPC   O2220420   5.143   1.721   9.903 -0.6158 -0.2678  0.1035
  179SLPC   C2220421   5.093   1.485   9.863 -0.9403 -0.9391  0.3461
  179SLPC   H2R20422   5.094   1.405   9.941 -0.6703  0.7367  2.1505
  179SLPC   H2S20423   4.988   1.513   9.842 -1.3090 -1.8163  0.9814
  179SLPC    C320424   5.490   1.623  10.070 -0.2010  0.4861 -0.1054
  179SLPC    HX20425   5.501   1.517  10.102 -0.2386  0.7954  0.9762
  179SLPC    HY20426   5.544   1.683  10.147 -0.1960  0.8579 -0.3982
  179SLPC   O3120427   5.548   1.642   9.937  0.1614 -0.6054 -0.1262
  179SLPC   C3120428   5.674   1.607   9.927  0.3430 -0.1078  0.3360
  179SLPC   O3220429   5.738   1.554  10.014 -0.0238 -0.3367  0.5272
  179SLPC   C3220430   5.730   1.642   9.791 -0.1326  0.0972 -0.3022
  179SLPC   H2X20431   5.809   1.568   9.768  1.8508  0.1884  4.8324
  179SLPC   H2Y20432   5.782   1.740   9.797 -0.0192  0.2771 -3.1339
  179SLPC   C2320433   5.187   1.429   9.749 -0.2737  0.2677  0.0921
  179SLPC   H3R20434   5.136   1.342   9.703 -0.4472  1.4262 -2.0375
  179SLPC   H3S20435   5.280   1.385   9.791  0.4808 -0.8933 -2.6184
  179SLPC   C2420436   5.212   1.532   9.640 -0.1479 -0.4141  0.1231
  179SLPC   H4R20437   5.297   1.501   9.575  1.8922  2.3484  1.3096
  179SLPC   H4S20438   5.256   1.624   9.683  2.8956  0.0427 -3.4593
  179SLPC   C2520439   5.077   1.555   9.557 -0.1079 -0.1143 -0.8391
  179SLPC   H5R20440   5.007   1.591   9.636  1.2490  0.6497  0.0610
  179SLPC   H5S20441   5.043   1.455   9.522 -0.0290 -0.7290  0.7312
  179SLPC   C2620442   5.084   1.651   9.444  0.4162  0.5666  0.0411
  179SLPC   H6R20443   5.130   1.746   9.479 -2.1711  1.4050  1.3579
  179SLPC   H6S20444   4.981   1.674   9.411  1.6348  1.6040 -3.5223
  179SLPC   C2720445   5.143   1.592   9.315 -0.2571 -0.1456  0.2456
  179SLPC   H7R20446   5.163   1.485   9.338  1.5865  0.4542  1.6749
  179SLPC   H7S20447   5.239   1.643   9.293 -0.0670 -0.9728 -0.9497
  179SLPC   C2820448   5.046   1.597   9.192  0.4313 -0.1463 -1.0389
  179SLPC   H8R20449   5.015   1.700   9.163  0.5587 -0.2578 -1.5878
  179SLPC   H8S20450   4.945   1.551   9.206 -0.1383  1.3982  0.1116
  179SLPC   C2920451   5.103   1.526   9.076  0.0765  0.0549 -0.0641
  179SLPC   H9R20452   5.121   1.418   9.088  1.2207  0.1734 -0.6116
  179SLPC  C21020453   5.131   1.584   8.960  0.1935 -0.4536 -0.2401
  179SLPC  H10R20454   5.171   1.515   8.883  0.7553 -1.3600  0.8373
  179SLPC  C21120455   5.125   1.729   8.918  0.1250 -0.4259  0.2194
  179SLPC  H11R20456   5.044   1.790   8.963  1.9167  2.0577  0.2879
  179SLPC  H11S20457   5.114   1.733   8.808 -0.3584 -1.7882  0.1966
  179SLPC  C21220458   5.259   1.791   8.958 -0.0256 -0.9027  0.4858
  179SLPC  H12R20459   5.323   1.752   9.039 -0.9195  1.2474  2.3407
  179SLPC  C21320460   5.311   1.892   8.885 -0.7784 -0.0697 -0.2205
  179SLPC  H13R20461   5.407   1.935   8.918 -0.6936 -0.9136  0.6552
  179SLPC  C21420462   5.249   1.958   8.766  0.2309  0.0299  0.3545
  179SLPC  H14R20463   5.173   2.031   8.802  0.5010 -0.5383  2.2005
  179SLPC  H14S20464   5.198   1.883   8.701 -1.8032  2.3443 -0.8911
  179SLPC  C21520465   5.349   2.021   8.669  0.4135  0.8135 -0.1888
  179SLPC  H15R20466   5.412   2.098   8.719  1.5237 -1.5157  2.2502
  179SLPC  H15S20467   5.293   2.065   8.584  2.4697  0.9138 -1.5404
  179SLPC  C21620468   5.439   1.912   8.613 -0.8044  0.4102  0.0491
  179SLPC  H16R20469   5.384   1.817   8.596  0.6653 -0.7220  1.3043
  179SLPC  H16S20470   5.515   1.892   8.692  0.2989  1.4546 -0.7050
  179SLPC  C21720471   5.503   1.971   8.490  0.0932 -1.1882  0.0230
  179SLPC  H17R20472   5.553   2.066   8.518 -2.9388  0.2838  0.9315
  179SLPC  H17S20473   5.417   1.994   8.423  0.1015  0.2089  0.4641
  179SLPC  C21820474   5.606   1.885   8.417  0.0921 -0.1693  0.3092
  179SLPC  H18R20475   5.564   1.783   8.406 -1.4433  0.6188 -1.7065
  179SLPC  H18S20476   5.706   1.880   8.465  1.6973  0.0254 -2.7674
  179SLPC  H18T20477   5.631   1.916   8.313 -1.5252 -1.0171 -0.3668
  179SLPC   C3320478   5.625   1.654   9.681  0.0112  0.1241 -0.0281
  179SLPC   H3X20479   5.560   1.741   9.705 -1.2028 -0.7600  0.0226
  179SLPC   H3Y20480   5.547   1.574   9.679 -2.2284  2.1778  0.0959
  179SLPC   C3420481   5.687   1.656   9.546  0.8048  0.0574 -0.6260
  179SLPC   H4X20482   5.686   1.552   9.507 -1.2942  0.2193 -1.1418
  179SLPC   H4Y20483   5.793   1.689   9.548  0.7542  0.2372  0.9844
  179SLPC   C3520484   5.608   1.733   9.441 -0.6513  0.8906 -0.5922
  179SLPC   H5X20485   5.617   1.841   9.466 -0.9946  0.7934 -0.0428
  179SLPC   H5Y20486   5.502   1.701   9.431 -0.5655 -0.3981  1.8926
  179SLPC   C3620487   5.668   1.715   9.308  0.4186  0.2414  1.3475
  179SLPC   H6X20488   5.639   1.612   9.276  0.0249  0.2222  1.7594
  179SLPC   H6Y20489   5.777   1.729   9.320  0.6148 -0.7197  0.8029
  179SLPC   C3720490   5.604   1.815   9.209  0.0077 -0.6386  0.8007
  179SLPC   H7X20491   5.654   1.909   9.243  0.6915 -0.7983  0.2681
  179SLPC   H7Y20492   5.496   1.819   9.234 -0.4224  0.2456 -1.0402
  179SLPC   C3820493   5.614   1.787   9.056  0.2188  0.6827 -0.2892
  179SLPC   H8X20494   5.572   1.879   9.008  1.1921  1.3000  0.0161
  179SLPC   H8Y20495   5.534   1.716   9.027 -0.9355  1.0592  1.7563
  179SLPC   C3920496   5.749   1.738   9.011  0.3877  0.0833  0.3133
  179SLPC   H9X20497   5.788   1.643   9.055 -0.0612 -1.4241 -2.3370
  179SLPC   H9Y20498   5.812   1.826   9.039  0.3586 -0.3484  1.8349
  179SLPC  C31020499   5.747   1.716   8.855  0.0612 -0.2670 -0.5009
  179SLPC  H10X20500   5.695   1.799   8.803 -0.2224 -0.7449 -0.9865
  179SLPC  H10Y20501   5.685   1.630   8.824 -0.8852  0.3356 -0.3253
  179SLPC  C31120502   5.886   1.701   8.787  0.5017 -0.3657  0.1705
  179SLPC  H11X20503   5.935   1.608   8.824 -1.6822 -1.2726  0.9591
  179SLPC  H11Y20504   5.947   1.791   8.808  0.9199 -0.1456 -1.7879
  179SLPC  C31220505   5.876   1.705   8.631 -0.7021 -0.4640  0.4065
  179SLPC  H12X20506   5.979   1.697   8.591 -1.0099  0.5261 -0.6271
  179SLPC  H12Y20507   5.833   1.802   8.600  1.2806  0.2369 -0.2376
  179SLPC  C31320508   5.791   1.591   8.572 -0.1112  0.3652  0.6156
  179SLPC  H13X20509   5.682   1.610   8.581 -0.1197  3.0855 -3.0340
  179SLPC  H13Y20510   5.814   1.494   8.620 -1.6553  0.5745  1.8396
  179SLPC  C31420511   5.822   1.573   8.420  0.1496 -0.4702  0.1147
  179SLPC  H14X20512   5.930   1.550   8.406  0.0225 -0.4412 -1.0473
  179SLPC  H14Y20513   5.800   1.673   8.377 -0.1101 -0.4436  0.3082
  179SLPC  C31520514   5.741   1.467   8.353  0.5134  0.1887  0.3204
  179SLPC  H15X20515   5.632   1.477   8.372  0.4216 -1.2093  0.6267
  179SLPC  H15Y20516   5.758   1.365   8.395 -1.8422 -1.4382 -2.3446
  179SLPC  C31620517   5.778   1.458   8.205 -0.0764 -0.6686 -0.3266
  179SLPC  H16X20518   5.888   1.443   8.196  0.4822  2.5021  0.0115
  179SLPC  H16Y20519   5.757   1.551   8.149 -2.3880 -0.5849  0.5560
  179SLPC  C31720520   5.716   1.342   8.139  0.1475  0.4465  0.0540
  179SLPC  H17X20521   5.742   1.252   8.200  0.4738 -0.0130 -0.7483
  179SLPC  H17Y20522   5.756   1.321   8.038 -0.6932 -1.5449  0.0905
  179SLPC  C31820523   5.563   1.348   8.118 -0.0185  0.0790  0.4813
  179SLPC  H18X20524   5.526   1.244   8.120 -1.2858  0.5254  1.7043
  179SLPC  H18Y20525   5.535   1.390   8.019 -1.7038 -0.5422  0.6750
  179SLPC  H18Z20526   5.513   1.415   8.192 -2.1379 -2.0266  1.0583
  180SLPC     N20527   0.665   3.451  10.763  0.1404  0.2874  0.3274
  180SLPC   C1320528   0.682   3.564  10.858 -0.1911 -0.2385 -0.3244
  180SLPC  H13A20529   0.690   3.663  10.816 -3.9965  0.3438 -0.0774
  180SLPC  H13B20530   0.585   3.576  10.905 -0.3828 -2.1074 -0.1654
  180SLPC  H13C20531   0.749   3.538  10.939  0.6557  2.6285  0.0094
  180SLPC   C1420532   0.521   3.450  10.719  0.3828 -0.7004 -0.0910
  180SLPC  H14A20533   0.454   3.437  10.803  0.6613 -1.8570 -0.0302
  180SLPC  H14B20534   0.500   3.546  10.674 -1.1920  0.0979  2.1334
  180SLPC  H14C20535   0.501   3.367  10.652  1.9822  0.3454 -1.9588
  180SLPC   C1520536   0.700   3.327  10.844  0.2190  0.5598 -0.6439
  180SLPC  H15A20537   0.804   3.318  10.870 -0.3844 -0.4222  1.7254
  180SLPC  H15B20538   0.644   3.318  10.936  1.9012  0.1770  0.3804
  180SLPC  H15C20539   0.674   3.234  10.796 -1.1959 -0.1831  1.3982
  180SLPC   C1220540   0.765   3.466  10.650 -0.3866  0.0025 -0.2157
  180SLPC  H12A20541   0.863   3.436  10.684  0.2240  1.2591 -0.8091
  180SLPC  H12B20542   0.788   3.571  10.641  1.3326 -0.2554  0.8240
  180SLPC   C1120543   0.738   3.411  10.511  0.0183 -0.6509  0.0245
  180SLPC  H11A20544   0.821   3.439  10.444  1.8642 -2.9256  1.2175
  180SLPC  H11B20545   0.645   3.450  10.465 -0.5605 -3.9146 -1.8759
  180SLPC     P20546   0.876   3.190  10.527 -0.2183 -0.0420  0.3402
  180SLPC   O1320547   0.944   3.251  10.643  0.3459  0.1648  0.2566
  180SLPC   O1420548   0.852   3.049  10.535  0.2814 -0.2819 -0.0594
  180SLPC   O1220549   0.734   3.270  10.516 -0.5756 -0.2470  0.0135
  180SLPC   O1120550   0.947   3.243  10.391 -0.6459 -0.1521  0.4882
  180SLPC    C120551   0.899   3.214  10.260 -0.2975  0.0907 -0.0472
  180SLPC    HA20552   0.792   3.183  10.267 -0.3956  0.0926 -1.2994
  180SLPC    HB20553   0.909   3.298  10.188 -1.6706  0.6769  0.4183
  180SLPC    C220554   0.981   3.098  10.191 -0.8872  0.3923 -0.2640
  180SLPC    HS20555   0.980   3.004  10.250 -2.7413  0.9153  0.6253
  180SLPC   O2120556   1.115   3.145  10.182 -0.0828 -0.2504 -0.4458
  180SLPC   C2120557   1.210   3.085  10.250 -0.3259 -0.3172 -0.1512
  180SLPC   O2220558   1.197   2.992  10.327 -0.6495 -0.0880  0.4742
  180SLPC   C2220559   1.345   3.136  10.206 -0.1412 -0.3882  0.3138
  180SLPC   H2R20560   1.334   3.245  10.220  0.4880 -0.3138  0.2438
  180SLPC   H2S20561   1.419   3.092  10.277  0.3465  0.5259  0.3802
  180SLPC    C320562   0.942   3.055  10.047  0.1476 -0.5166  0.4852
  180SLPC    HX20563   0.989   2.960  10.014  1.7534 -0.1180  1.4951
  180SLPC    HY20564   0.996   3.130   9.985  0.6361 -1.1938  0.0757
  180SLPC   O3120565   0.807   3.051  10.022  0.1721  0.7763 -0.0087
  180SLPC   C3120566   0.755   3.147   9.955 -0.0539 -0.0434 -0.2404
  180SLPC   O3220567   0.805   3.240   9.889 -0.4560 -0.2897  0.4291
  180SLPC   C3220568   0.602   3.126   9.963 -0.1376 -0.0581  0.2369
  180SLPC   H2X20569   0.553   3.218  10.002 -3.0111 -1.6801  0.7424
  180SLPC   H2Y20570   0.590   3.050  10.043  1.6168 -1.4031 -0.7099
  180SLPC   C2320571   1.373   3.108  10.052 -0.2447  0.1780  0.5369
  180SLPC   H3R20572   1.472   3.154  10.033 -0.5544 -0.2725 -2.7061
  180SLPC   H3S20573   1.300   3.160   9.986 -0.4367  0.0182  0.6211
  180SLPC   C2420574   1.397   2.960  10.021 -0.6368 -0.0379  0.1463
  180SLPC   H4R20575   1.311   2.895  10.048  0.5790 -1.7209  0.0810
  180SLPC   H4S20576   1.475   2.921  10.089 -2.3618 -1.5299  1.3674
  180SLPC   C2520577   1.435   2.940   9.878 -0.0460  0.4569  0.0516
  180SLPC   H5R20578   1.487   2.842   9.867 -0.3201  0.2484  0.5812
  180SLPC   H5S20579   1.512   3.015   9.847  0.2543  0.3116  0.4371
  180SLPC   C2620580   1.315   2.957   9.785 -0.0555  0.1759 -0.2330
  180SLPC   H6R20581   1.282   3.063   9.793 -1.1046  0.0249 -1.9602
  180SLPC   H6S20582   1.235   2.894   9.828 -0.6884 -0.4366 -2.2123
  180SLPC   C2720583   1.337   2.915   9.638  0.1788  0.0536  0.4800
  180SLPC   H7R20584   1.356   2.806   9.649  1.4597  0.2355  0.2157
  180SLPC   H7S20585   1.422   2.969   9.592  0.1004 -0.2652 -0.0451
  180SLPC   C2820586   1.208   2.922   9.559  0.3767 -0.9522  0.1450
  180SLPC   H8R20587   1.151   3.005   9.607  1.0427 -0.8225  0.7235
  180SLPC   H8S20588   1.148   2.832   9.584 -1.5704  0.1087 -0.4749
  180SLPC   C2920589   1.213   2.944   9.412 -0.0132  0.1136  0.3237
  180SLPC   H9R20590   1.300   2.903   9.359 -0.8897 -0.0796 -1.0104
  180SLPC  C21020591   1.130   3.023   9.338  0.8115 -0.5735 -0.8141
  180SLPC  H10R20592   1.149   3.020   9.230  0.0499 -1.5855 -0.9436
  180SLPC  C21120593   0.997   3.082   9.381 -1.0397 -0.8285 -0.1353
  180SLPC  H11R20594   0.970   3.167   9.314  2.7124  2.0459  1.5875
  180SLPC  H11S20595   1.003   3.135   9.478 -1.1237  3.3291 -2.1577
  180SLPC  C21220596   0.888   2.983   9.390 -0.1713  0.0118 -0.2496
  180SLPC  H12R20597   0.861   2.971   9.496 -1.1070  0.8828 -0.3813
  180SLPC  C21320598   0.822   2.915   9.298  0.0601  0.2640  0.7197
  180SLPC  H13R20599   0.756   2.837   9.339  2.1806 -1.5404  0.9468
  180SLPC  C21420600   0.849   2.919   9.152  0.0118 -0.4056  0.1155
  180SLPC  H14R20601   0.887   2.823   9.112  0.5644 -0.2841  0.3370
  180SLPC  H14S20602   0.937   2.987   9.140 -0.5307  0.5995  1.5254
  180SLPC  C21520603   0.720   2.942   9.067  0.7370 -0.1745  0.1071
  180SLPC  H15R20604   0.658   3.026   9.104 -1.5346 -2.9818  3.3478
  180SLPC  H15S20605   0.654   2.853   9.072  1.0414 -0.4252 -0.2092
  180SLPC  C21620606   0.761   2.975   8.918 -0.1756  0.3192  0.6356
  180SLPC  H16R20607   0.814   2.890   8.869 -2.9169 -0.2751 -1.5855
  180SLPC  H16S20608   0.817   3.071   8.913 -1.2859  0.9126 -1.7779
  180SLPC  C21720609   0.637   2.996   8.827 -0.4679 -0.3930 -0.3296
  180SLPC  H17R20610   0.682   3.031   8.732 -0.0375  1.8181  0.6249
  180SLPC  H17S20611   0.578   3.079   8.871  0.7760  1.3634 -1.8418
  180SLPC  C21820612   0.558   2.869   8.790 -0.4046 -0.5351 -0.1282
  180SLPC  H18R20613   0.628   2.805   8.733  0.7273  0.6113 -0.0665
  180SLPC  H18S20614   0.467   2.888   8.729 -0.3742  1.4322  0.3811
  180SLPC  H18T20615   0.528   2.810   8.880 -0.1088  0.8266  0.8930
  180SLPC   C3320616   0.529   3.076   9.829  0.0669 -0.7500  0.2881
  180SLPC   H3X20617   0.426   3.064   9.870  0.1698  0.5135  0.9658
  180SLPC   H3Y20618   0.571   2.974   9.818 -1.7338 -1.7086  1.6908
  180SLPC   C3420619   0.524   3.163   9.709 -0.4503 -0.4359 -0.8444
  180SLPC   H4X20620   0.627   3.177   9.669  0.6021 -2.4603  0.9399
  180SLPC   H4Y20621   0.483   3.264   9.731  1.2497 -0.3982  2.8890
  180SLPC   C3520622   0.442   3.099   9.594 -0.4518 -0.1390  0.2694
  180SLPC   H5X20623   0.352   3.049   9.634  0.4256 -0.5332  1.8510
  180SLPC   H5Y20624   0.505   3.023   9.541 -0.7624 -1.1481  1.2996
  180SLPC   C3620625   0.399   3.201   9.491 -0.2693 -0.1165 -0.0391
  180SLPC   H6X20626   0.490   3.250   9.453 -0.8991 -0.5280 -2.2061
  180SLPC   H6Y20627   0.339   3.280   9.541  0.7640 -0.3679  1.6875
  180SLPC   C3720628   0.340   3.145   9.361 -0.6416  0.0289  0.1617
  180SLPC   H7X20629   0.251   3.084   9.387 -0.4016  0.1924  1.4108
  180SLPC   H7Y20630   0.414   3.069   9.328 -1.5059 -0.5758 -0.4256
  180SLPC   C3820631   0.316   3.255   9.254  0.1027  0.4039  0.5640
  180SLPC   H8X20632   0.403   3.324   9.254 -0.8690  1.6793 -0.1448
  180SLPC   H8Y20633   0.221   3.309   9.276  0.4633  1.0929  0.4593
  180SLPC   C3920634   0.304   3.184   9.119 -0.1447  0.1458  0.2645
  180SLPC   H9X20635   0.214   3.118   9.118  1.0638 -1.5697  0.1943
  180SLPC   H9Y20636   0.397   3.123   9.125  0.0855  0.6479  3.4256
  180SLPC  C31020637   0.318   3.276   8.999  0.6694 -0.6653  0.7613
  180SLPC  H10X20638   0.422   3.310   8.980 -0.4521  1.5608 -2.2277
  180SLPC  H10Y20639   0.257   3.368   9.010  0.3062 -0.1785 -3.5491
  180SLPC  C31120640   0.274   3.219   8.859  0.2696  0.3865  1.1341
  180SLPC  H11X20641   0.167   3.192   8.857  0.1409  0.6619  3.0558
  180SLPC  H11Y20642   0.334   3.127   8.838 -0.8801 -0.3662  1.0596
  180SLPC  C31220643   0.305   3.314   8.738  0.4804  0.6091  0.1309
  180SLPC  H12X20644   0.414   3.336   8.747  0.0056  2.4151  2.8846
  180SLPC  H12Y20645   0.246   3.408   8.733 -4.7162 -2.3162 -2.5864
  180SLPC  C31320646   0.283   3.240   8.602  0.9697  0.3418  0.6421
  180SLPC  H13X20647   0.172   3.239   8.596  1.0274  0.8376 -0.9241
  180SLPC  H13Y20648   0.315   3.134   8.611  0.2996  0.1741  1.2297
  180SLPC  C31420649   0.349   3.305   8.479  0.0601 -0.2281 -0.1190
  180SLPC  H14X20650   0.344   3.239   8.390  0.5958 -0.9940  0.4103
  180SLPC  H14Y20651   0.458   3.297   8.497  0.3036 -2.3793 -2.1805
  180SLPC  C31520652   0.308   3.445   8.438  0.7538 -0.1805  0.6168
  180SLPC  H15X20653   0.326   3.510   8.526 -1.9253 -1.6195  2.3693
  180SLPC  H15Y20654   0.201   3.450   8.410  1.1997  2.1204 -0.9709
  180SLPC  C31620655   0.373   3.506   8.309 -0.7068 -0.3700 -0.1108
  180SLPC  H16X20656   0.381   3.614   8.333 -2.3458 -0.6428  1.8817
  180SLPC  H16Y20657   0.312   3.488   8.217  2.2774 -0.8102 -2.1292
  180SLPC  C31720658   0.522   3.470   8.300  0.5933  0.2851 -0.3965
  180SLPC  H17X20659   0.522   3.360   8.283  1.0302  0.6151 -2.9447
  180SLPC  H17Y20660   0.566   3.488   8.400  1.4398 -0.4051 -0.6301
  180SLPC  C31820661   0.598   3.533   8.192 -0.6826  0.1059  0.3485
  180SLPC  H18X20662   0.560   3.481   8.102  3.4354 -2.6136 -0.1251
  180SLPC  H18Y20663   0.708   3.515   8.186 -1.0020 -1.4493 -3.0486
  180SLPC  H18Z20664   0.562   3.638   8.186  1.5242  0.8377 -1.8440
  181SLPC     N20665   5.247   3.001  11.212  0.6296 -0.2368 -0.4071
  181SLPC   C1320666   5.362   3.088  11.158 -0.0710  0.3332  0.8111
  181SLPC  H13A20667   5.445   3.072  11.225 -0.3194 -1.8674  0.6729
  181SLPC  H13B20668   5.394   3.060  11.059 -1.0891  0.6462  0.3819
  181SLPC  H13C20669   5.338   3.192  11.145  1.6339  0.4263 -3.0702
  181SLPC   C1420670   5.218   3.032  11.357  1.1319  0.0558 -0.7365
  181SLPC  H14A20671   5.156   3.120  11.368  0.3361 -0.6784  0.8480
  181SLPC  H14B20672   5.149   2.956  11.388  1.4561 -0.4700 -1.2759
  181SLPC  H14C20673   5.302   3.043  11.424  1.6532  0.7994 -1.4889
  181SLPC   C1520674   5.289   2.857  11.206  0.5814 -0.2721 -0.1539
  181SLPC  H15A20675   5.392   2.844  11.237 -0.0465  0.8609  2.7865
  181SLPC  H15B20676   5.240   2.799  11.283  0.4882 -0.3679 -0.2853
  181SLPC  H15C20677   5.276   2.810  11.110  1.3356  2.8936 -1.9257
  181SLPC   C1220678   5.118   3.022  11.133 -0.2916  0.0740 -0.6291
  181SLPC  H12A20679   5.145   2.995  11.032 -0.8867 -2.0444 -0.2631
  181SLPC  H12B20680   5.091   3.126  11.144 -0.3125 -0.0915  1.1233
  181SLPC   C1120681   4.995   2.937  11.171  0.1116 -0.4108  0.0688
  181SLPC  H11A20682   4.905   2.999  11.151  0.0595 -0.7298 -0.6960
  181SLPC  H11B20683   4.988   2.911  11.279 -0.6236  0.8575  0.3483
  181SLPC     P20684   4.916   2.687  11.148  0.2780 -0.3858 -0.1985
  181SLPC   O1320685   5.014   2.595  11.216 -0.0969 -0.4990  0.2747
  181SLPC   O1420686   4.805   2.729  11.242  0.8678  0.1185  1.1843
  181SLPC   O1220687   4.994   2.815  11.095 -0.2282 -0.7956  0.3362
  181SLPC   O1120688   4.847   2.624  11.026 -0.0046  0.7055  1.0728
  181SLPC    C120689   4.742   2.682  10.951  0.3041  0.5515  0.2721
  181SLPC    HA20690   4.650   2.624  10.974  0.3148  0.0771 -0.8192
  181SLPC    HB20691   4.711   2.786  10.975 -1.1273 -0.0717  1.3016
  181SLPC    C220692   4.774   2.691  10.802 -0.2121 -0.1224  0.2955
  181SLPC    HS20693   4.871   2.742  10.788 -1.8504  2.5793 -2.3647
  181SLPC   O2120694   4.675   2.771  10.733 -0.3166 -0.0538 -0.7566
  181SLPC   C2120695   4.698   2.899  10.740  0.3479 -0.2905  1.2976
  181SLPC   O2220696   4.798   2.957  10.778 -0.4486 -0.1538  0.1638
  181SLPC   C2220697   4.581   2.974  10.694  0.1020 -1.1846 -0.7736
  181SLPC   H2R20698   4.485   2.919  10.697 -2.3690  2.7718  1.7694
  181SLPC   H2S20699   4.574   3.060  10.764  2.0247 -1.8039  0.2578
  181SLPC    C320700   4.791   2.555  10.727  0.1568  0.8409  0.7092
  181SLPC    HX20701   4.699   2.493  10.718 -0.7877  2.4664 -2.0690
  181SLPC    HY20702   4.852   2.494  10.798  1.4575  1.1925 -0.0772
  181SLPC   O3120703   4.856   2.567  10.601  0.1522  0.5460  0.3786
  181SLPC   C3120704   4.782   2.564  10.491  0.2934 -0.1395 -0.1048
  181SLPC   O3220705   4.659   2.568  10.482 -0.0519 -0.2886  0.1499
  181SLPC   C3220706   4.886   2.569  10.372 -0.3959 -0.1505  0.1138
  181SLPC   H2X20707   4.989   2.550  10.408  0.2072  0.1944 -1.3272
  181SLPC   H2Y20708   4.892   2.674  10.335  2.3020 -0.4037 -0.4249
  181SLPC   C2320709   4.618   3.044  10.558 -0.2801 -0.1731  0.2005
  181SLPC   H3R20710   4.707   3.110  10.565 -0.1409 -0.1320 -1.5759
  181SLPC   H3S20711   4.535   3.106  10.520 -0.9234 -0.7122  0.7090
  181SLPC   C2420712   4.649   2.944  10.443  0.2958 -0.0863  0.3231
  181SLPC   H4R20713   4.560   2.878  10.439  1.0958 -1.1302 -0.9482
  181SLPC   H4S20714   4.727   2.872  10.473  1.1319  0.4183 -0.5727
  181SLPC   C2520715   4.651   3.012  10.303 -0.6072 -0.2170 -0.0692
  181SLPC   H5R20716   4.705   3.109  10.304  0.2496 -0.6840 -0.2175
  181SLPC   H5S20717   4.550   3.047  10.273  0.0959 -1.2581 -4.1523
  181SLPC   C2620718   4.710   2.916  10.199 -0.2270 -0.0394 -0.3631
  181SLPC   H6R20719   4.648   2.824  10.203 -2.7273  1.5502  0.0443
  181SLPC   H6S20720   4.812   2.895  10.237 -0.6545 -0.2891  0.6877
  181SLPC   C2720721   4.708   2.968  10.056 -0.6014  0.2621  0.0856
  181SLPC   H7R20722   4.603   3.002  10.039 -0.9137 -1.1497 -1.0889
  181SLPC   H7S20723   4.724   2.881   9.988 -1.0041 -0.8346  1.3470
  181SLPC   C2820724   4.816   3.075  10.025  0.6173  0.1612  0.7601
  181SLPC   H8R20725   4.804   3.162  10.094 -1.0121  0.7909 -0.2562
  181SLPC   H8S20726   4.778   3.095   9.923  2.1526 -1.1931 -0.1255
  181SLPC   C2920727   4.950   3.007  10.025 -0.5762  0.6283 -0.1710
  181SLPC   H9R20728   4.973   2.954  10.119  0.7211  0.0330 -0.7946
  181SLPC  C21020729   5.035   3.012   9.918  0.1755 -0.1566 -0.1810
  181SLPC  H10R20730   5.133   2.961   9.926  1.4329  1.6088 -2.8387
  181SLPC  C21120731   5.015   3.088   9.787  0.6027 -0.0275 -0.0853
  181SLPC  H11R20732   5.103   3.153   9.768 -0.1661  0.8180 -0.8782
  181SLPC  H11S20733   4.931   3.161   9.800  1.0576  0.7811 -1.4609
  181SLPC  C21220734   4.973   2.994   9.675 -0.3666  0.1281  0.6114
  181SLPC  H12R20735   4.872   3.014   9.636 -1.7341 -2.4445  2.4770
  181SLPC  C21320736   5.047   2.920   9.590 -0.5402 -0.0821 -0.5142
  181SLPC  H13R20737   4.999   2.867   9.506  0.1978 -0.7632 -0.5175
  181SLPC  C21420738   5.195   2.908   9.600 -0.4355 -0.3908 -0.2942
  181SLPC  H14R20739   5.206   2.797   9.602  0.8261 -0.3968 -3.1737
  181SLPC  H14S20740   5.243   2.934   9.697 -0.3306 -2.3818  0.2449
  181SLPC  C21520741   5.284   2.967   9.493 -0.0248 -0.4316  0.5678
  181SLPC  H15R20742   5.248   2.927   9.396  0.9735  0.8254 -0.3653
  181SLPC  H15S20743   5.386   2.924   9.505  0.4437  1.0763  2.6117
  181SLPC  C21620744   5.293   3.124   9.486  0.4098  0.3274 -0.2569
  181SLPC  H16R20745   5.328   3.156   9.587 -0.6014 -1.3538  0.6669
  181SLPC  H16S20746   5.200   3.182   9.470 -0.5025  0.0640  3.2655
  181SLPC  C21720747   5.388   3.173   9.376 -0.3201 -0.2925 -0.2971
  181SLPC  H17R20748   5.383   3.284   9.377  1.2806 -0.1729  1.8266
  181SLPC  H17S20749   5.368   3.121   9.279  0.6752 -1.9748  0.3488
  181SLPC  C21820750   5.536   3.146   9.407  0.1524 -0.5636  0.1314
  181SLPC  H18R20751   5.575   3.186   9.502  0.2327 -0.4970  0.0718
  181SLPC  H18S20752   5.609   3.208   9.350  1.4349 -0.1332  2.1355
  181SLPC  H18T20753   5.565   3.041   9.385  2.5753  0.2593 -1.0110
  181SLPC   C3320754   4.843   2.477  10.255 -0.4627  0.3064 -0.4871
  181SLPC   H3X20755   4.732   2.480  10.242 -0.2550  0.7394 -2.3742
  181SLPC   H3Y20756   4.872   2.371  10.272 -0.2578  0.1850 -1.5301
  181SLPC   C3420757   4.909   2.505  10.118  0.4022 -0.1547  0.3625
  181SLPC   H4X20758   4.877   2.606  10.086 -1.5217 -0.5973  0.7609
  181SLPC   H4Y20759   4.884   2.426  10.044  1.4361 -1.8205  1.7185
  181SLPC   C3520760   5.063   2.509  10.126 -0.0483 -0.4153  0.1535
  181SLPC   H5X20761   5.105   2.411  10.157  1.8087  0.6583  1.1876
  181SLPC   H5Y20762   5.100   2.580  10.203  1.3271 -2.5272  1.5065
  181SLPC   C3620763   5.131   2.551   9.994  0.0073  0.5370 -0.1730
  181SLPC   H6X20764   5.091   2.651   9.968  0.5061  1.6522  2.9312
  181SLPC   H6Y20765   5.111   2.477   9.914 -1.0097 -0.3015  0.8043
  181SLPC   C3720766   5.282   2.575  10.002 -0.3430  0.0132 -0.6218
  181SLPC   H7X20767   5.339   2.482  10.024 -1.6347 -0.3592  1.3215
  181SLPC   H7Y20768   5.305   2.658  10.071 -2.5391  2.2433 -2.3773
  181SLPC   C3820769   5.338   2.633   9.873  0.0241  0.6909  0.9501
  181SLPC   H8X20770   5.304   2.739   9.870  0.8504  0.9732  1.2355
  181SLPC   H8Y20771   5.289   2.578   9.791  0.8221 -0.6537  1.3436
  181SLPC   C3920772   5.490   2.609   9.856 -0.7355 -0.4451  0.3220
  181SLPC   H9X20773   5.523   2.504   9.874 -0.6614 -1.2065 -3.5038
  181SLPC   H9Y20774   5.539   2.674   9.932 -0.8256  0.6864 -0.5603
  181SLPC  C31020775   5.555   2.647   9.720  0.1732  0.9273  0.9517
  181SLPC  H10X20776   5.661   2.613   9.723 -0.1727 -0.1183  2.3265
  181SLPC  H10Y20777   5.551   2.757   9.710 -2.0264  0.7637 -0.6242
  181SLPC  C31120778   5.481   2.585   9.604 -0.3131 -1.0848  0.2964
  181SLPC  H11X20779   5.372   2.602   9.595 -0.2036 -0.4619  0.0789
  181SLPC  H11Y20780   5.498   2.475   9.606 -0.1565 -1.0569  0.7854
  181SLPC  C31220781   5.535   2.639   9.464  0.5447 -0.6037 -0.4119
  181SLPC  H12X20782   5.644   2.618   9.461  1.1181  1.6708  1.5919
  181SLPC  H12Y20783   5.530   2.750   9.473  0.1933 -0.6988  0.5997
  181SLPC  C31320784   5.448   2.589   9.348 -0.1497  0.4804 -0.1027
  181SLPC  H13X20785   5.343   2.622   9.337 -0.5912 -1.4608 -2.5808
  181SLPC  H13Y20786   5.430   2.479   9.338  0.9760  0.1070  1.4590
  181SLPC  C31420787   5.501   2.640   9.216 -0.0519 -0.1026  0.4915
  181SLPC  H14X20788   5.424   2.612   9.141  0.2355 -3.4912  1.2970
  181SLPC  H14Y20789   5.596   2.599   9.175 -1.3120 -2.0729 -0.6655
  181SLPC  C31520790   5.534   2.793   9.216 -0.1476 -0.3657  0.4080
  181SLPC  H15X20791   5.619   2.819   9.282 -1.8423 -0.4510  2.7593
  181SLPC  H15Y20792   5.453   2.859   9.252 -0.3454 -1.0697  1.2827
  181SLPC  C31620793   5.561   2.824   9.063 -0.2427 -0.4498  0.1156
  181SLPC  H16X20794   5.477   2.787   8.999 -0.2982  0.0591 -0.1159
  181SLPC  H16Y20795   5.651   2.773   9.022 -0.7919 -1.3513  0.0004
  181SLPC  C31720796   5.573   2.969   9.025  0.7652  0.3590 -0.2941
  181SLPC  H17X20797   5.636   3.021   9.101  0.7317 -0.4785  0.3222
  181SLPC  H17Y20798   5.479   3.027   9.019  1.5056  1.4204 -2.1657
  181SLPC  C31820799   5.645   3.005   8.894  0.7197  0.2321 -0.7895
  181SLPC  H18X20800   5.658   3.115   8.887  2.4533  0.1404  0.4568
  181SLPC  H18Y20801   5.587   2.963   8.808  0.4087 -2.0285  0.4378
  181SLPC  H18Z20802   5.745   2.958   8.906  0.2588 -0.7356 -0.5759
  182SLPC     N20803   1.343   3.152  10.840  0.2626 -1.2073 -0.7360
  182SLPC   C1320804   1.346   3.291  10.895  0.1477 -0.4029 -0.6556
  182SLPC  H13A20805   1.382   3.351  10.812 -2.5110 -0.9912 -2.3491
  182SLPC  H13B20806   1.245   3.318  10.921  0.4284 -1.7696  2.2084
  182SLPC  H13C20807   1.403   3.299  10.986  1.3228  0.9871 -1.4587
  182SLPC   C1420808   1.201   3.122  10.796 -1.0428 -0.4647 -0.3990
  182SLPC  H14A20809   1.136   3.121  10.882 -2.2858  1.6371 -1.2171
  182SLPC  H14B20810   1.174   3.202  10.727 -0.8891  1.0443  1.2140
  182SLPC  H14C20811   1.186   3.029  10.743 -1.3164 -0.4652 -0.3251
  182SLPC   C1520812   1.366   3.052  10.950 -0.5666 -0.3440 -0.0470
  182SLPC  H15A20813   1.468   3.058  10.984 -0.2909  0.1630 -0.9467
  182SLPC  H15B20814   1.309   3.066  11.040  0.4287  0.3051  0.4967
  182SLPC  H15C20815   1.353   2.955  10.903 -0.6770  1.8464 -5.2232
  182SLPC   C1220816   1.435   3.130  10.725  0.5415 -0.3115  0.0202
  182SLPC  H12A20817   1.416   3.028  10.694  0.0913 -0.1126 -0.3523
  182SLPC  H12B20818   1.537   3.144  10.760  0.9550 -0.0557 -1.2404
  182SLPC   C1120819   1.415   3.227  10.606 -0.7925 -0.0162  0.8658
  182SLPC  H11A20820   1.307   3.230  10.578 -0.7853  0.3981  0.8805
  182SLPC  H11B20821   1.476   3.188  10.522  0.0720  1.4480  0.7886
  182SLPC     P20822   1.620   3.383  10.648 -0.5239 -0.2195 -0.2069
  182SLPC   O1320823   1.657   3.459  10.768  0.2090  0.7407 -0.1020
  182SLPC   O1420824   1.695   3.253  10.638  0.1153 -0.6792  0.0476
  182SLPC   O1220825   1.464   3.353  10.636 -0.7223  0.0388 -0.1119
  182SLPC   O1120826   1.655   3.469  10.515  0.2733 -0.0807 -0.3660
  182SLPC    C120827   1.578   3.584  10.482  0.7952  0.2390 -0.3113
  182SLPC    HA20828   1.470   3.561  10.497  0.5621 -0.3213 -2.4792
  182SLPC    HB20829   1.597   3.670  10.549 -1.4122  0.1624  0.5181
  182SLPC    C220830   1.599   3.624  10.330  0.3861  0.7668  0.2220
  182SLPC    HS20831   1.616   3.734  10.323 -0.0657  0.7490 -1.3256
  182SLPC   O2120832   1.485   3.579  10.247 -0.0294  0.1744 -0.1314
  182SLPC   C2120833   1.377   3.653  10.251  0.5778  0.8253  0.0547
  182SLPC   O2220834   1.361   3.746  10.329  0.1749 -0.3306 -0.1270
  182SLPC   C2220835   1.275   3.612  10.142  0.1759  0.9145 -0.3985
  182SLPC   H2R20836   1.201   3.547  10.192  0.7238 -0.1755 -0.9873
  182SLPC   H2S20837   1.225   3.709  10.119 -0.5892  0.6956  0.3156
  182SLPC    C320838   1.719   3.538  10.262  0.6864 -0.2262  0.1911
  182SLPC    HX20839   1.683   3.434  10.246  1.5544 -0.3451 -1.1670
  182SLPC    HY20840   1.806   3.536  10.331  1.2134 -3.9629 -0.3749
  182SLPC   O3120841   1.762   3.591  10.129 -0.3298  0.1473  0.4274
  182SLPC   C3120842   1.845   3.696  10.137  0.8021  0.4500 -1.0151
  182SLPC   O3220843   1.878   3.752  10.237  0.3216 -0.1466  0.1625
  182SLPC   C3220844   1.913   3.715  10.002 -0.2938 -0.5059  0.0404
  182SLPC   H2X20845   2.018   3.686  10.019  0.4559  1.3059 -1.1675
  182SLPC   H2Y20846   1.909   3.825   9.991  1.3324 -0.3602  0.6657
  182SLPC   C2320847   1.347   3.540  10.026 -0.4647 -0.0148 -0.3561
  182SLPC   H3R20848   1.401   3.454  10.070  1.8496  0.1004 -2.7526
  182SLPC   H3S20849   1.426   3.598   9.974 -1.1278  0.8444 -0.4396
  182SLPC   C2420850   1.233   3.480   9.943 -0.2096 -0.7080 -0.5510
  182SLPC   H4R20851   1.158   3.557   9.916  0.3373 -0.1764 -0.5771
  182SLPC   H4S20852   1.178   3.409  10.009  0.4319 -1.2267 -0.5696
  182SLPC   C2520853   1.272   3.413   9.808 -0.0911  0.4978 -0.2221
  182SLPC   H5R20854   1.347   3.335   9.829 -0.8912  0.1495  1.5446
  182SLPC   H5S20855   1.329   3.491   9.754 -3.7266  2.3118 -1.8387
  182SLPC   C2620856   1.154   3.367   9.720  0.0090  0.4428 -0.5035
  182SLPC   H6R20857   1.084   3.309   9.784  2.6343 -0.7723  1.4283
  182SLPC   H6S20858   1.194   3.306   9.637 -2.0004 -1.5019 -0.1561
  182SLPC   C2720859   1.086   3.480   9.649 -0.3262 -0.0376  0.6887
  182SLPC   H7R20860   1.141   3.517   9.560 -1.6275  0.2748  0.0014
  182SLPC   H7S20861   1.081   3.563   9.723 -0.7777  1.4405 -0.9571
  182SLPC   C2820862   0.940   3.435   9.616 -0.2627  0.0807  0.1316
  182SLPC   H8R20863   0.889   3.390   9.703  1.1198 -0.0527  0.8969
  182SLPC   H8S20864   0.945   3.367   9.528  0.1942  0.7359 -0.3631
  182SLPC   C2920865   0.860   3.558   9.586  0.0305 -0.4105 -0.0429
  182SLPC   H9R20866   0.851   3.635   9.665 -0.7268 -1.4127  0.8762
  182SLPC  C21020867   0.806   3.604   9.472 -0.0519 -0.1949  0.3898
  182SLPC  H10R20868   0.757   3.702   9.480 -0.4369 -0.4976  2.1473
  182SLPC  C21120869   0.813   3.520   9.345  0.7288 -0.4475  0.0407
  182SLPC  H11R20870   0.915   3.476   9.345  1.1335  0.4676 -0.0266
  182SLPC  H11S20871   0.796   3.588   9.259 -1.9135  0.7589  1.4008
  182SLPC  C21220872   0.714   3.401   9.334 -0.6404 -0.2245 -0.2610
  182SLPC  H12R20873   0.671   3.376   9.433 -2.0793 -1.3501 -1.1367
  182SLPC  C21320874   0.701   3.317   9.230  0.4679  0.2378  0.2613
  182SLPC  H13R20875   0.645   3.224   9.243 -0.6997  0.5360 -2.0257
  182SLPC  C21420876   0.781   3.342   9.100 -0.2182 -0.3800 -0.8152
  182SLPC  H14R20877   0.845   3.252   9.087 -0.7545 -0.8412 -0.3481
  182SLPC  H14S20878   0.857   3.420   9.120 -1.1079  0.0837  0.9162
  182SLPC  C21520879   0.703   3.369   8.969 -0.7638  0.8377  0.3509
  182SLPC  H15R20880   0.637   3.456   8.986 -0.6844  0.7370  1.2259
  182SLPC  H15S20881   0.643   3.278   8.946 -0.1332  0.2779  0.8668
  182SLPC  C21620882   0.803   3.401   8.859  0.4623 -0.1774  0.2926
  182SLPC  H16R20883   0.885   3.326   8.849  1.0787  0.1633  2.4165
  182SLPC  H16S20884   0.847   3.497   8.893 -0.5327  1.5140 -2.7624
  182SLPC  C21720885   0.735   3.411   8.723  0.4154  0.1525 -0.3821
  182SLPC  H17R20886   0.632   3.451   8.730  0.6275  0.7511 -0.6291
  182SLPC  H17S20887   0.718   3.311   8.677 -2.2823 -0.6216  1.9845
  182SLPC  C21820888   0.805   3.507   8.625  0.6758  0.0494  0.1009
  182SLPC  H18R20889   0.914   3.488   8.612  0.9914  1.8864 -0.1745
  182SLPC  H18S20890   0.805   3.610   8.666 -2.1822  0.8582 -1.6791
  182SLPC  H18T20891   0.761   3.507   8.523  2.4468 -1.2427 -0.7244
  182SLPC   C3320892   1.853   3.662   9.866 -0.2189  0.4303 -0.1710
  182SLPC   H3X20893   1.745   3.688   9.870  0.0866  1.5825  1.7242
  182SLPC   H3Y20894   1.870   3.553   9.881  1.3977  0.6965  0.2060
  182SLPC   C3420895   1.919   3.713   9.733  0.5881 -0.3051  0.7301
  182SLPC   H4X20896   2.030   3.701   9.735  0.4880 -1.3921  0.3212
  182SLPC   H4Y20897   1.908   3.824   9.729 -0.1267 -0.3206  1.6983
  182SLPC   C3520898   1.863   3.643   9.608 -0.8072 -0.3438  0.3678
  182SLPC   H5X20899   1.752   3.656   9.607 -1.1957 -3.0102  0.1187
  182SLPC   H5Y20900   1.872   3.532   9.613  0.0205 -0.2260  3.0247
  182SLPC   C3620901   1.921   3.698   9.472 -0.1901  0.5716 -0.3715
  182SLPC   H6X20902   2.027   3.663   9.466 -0.0361  1.2011 -1.8082
  182SLPC   H6Y20903   1.922   3.809   9.467 -1.1279  0.5446 -1.6844
  182SLPC   C3720904   1.849   3.632   9.352 -0.4335  0.4213 -0.3266
  182SLPC   H7X20905   1.750   3.589   9.379  1.5542 -3.9899  0.8472
  182SLPC   H7Y20906   1.912   3.552   9.308 -0.0962  1.6356 -2.1793
  182SLPC   C3820907   1.841   3.737   9.243 -0.0971  0.0277  0.0833
  182SLPC   H8X20908   1.939   3.789   9.232 -0.4049  0.3991 -1.0338
  182SLPC   H8Y20909   1.777   3.817   9.287  0.5745  0.2715  0.6490
  182SLPC   C3920910   1.795   3.690   9.103  0.2426 -0.4006  0.0784
  182SLPC   H9X20911   1.700   3.633   9.117 -0.7925  1.3564  0.4963
  182SLPC   H9Y20912   1.867   3.622   9.053  0.5849 -0.0403  0.0740
  182SLPC  C31020913   1.765   3.809   9.007  0.3058 -0.1664  0.2267
  182SLPC  H10X20914   1.860   3.844   8.961 -0.3669  2.0991  0.4277
  182SLPC  H10Y20915   1.723   3.895   9.063  1.3847  2.0872 -2.1806
  182SLPC  C31120916   1.677   3.768   8.891  0.1130 -0.6767 -0.3785
  182SLPC  H11X20917   1.665   3.860   8.831  1.2401  0.3350  0.8991
  182SLPC  H11Y20918   1.576   3.731   8.917 -0.2760  1.4564  1.4479
  182SLPC  C31220919   1.738   3.655   8.799  0.1578 -0.2511  0.0899
  182SLPC  H12X20920   1.766   3.572   8.867 -2.1711 -0.7359  0.5523
  182SLPC  H12Y20921   1.835   3.689   8.756 -0.1070 -0.5631 -0.7573
  182SLPC  C31320922   1.637   3.608   8.691 -0.2397  0.6520 -0.0603
  182SLPC  H13X20923   1.614   3.694   8.624 -2.8346 -1.1004 -1.6097
  182SLPC  H13Y20924   1.540   3.581   8.738 -0.4741 -0.9217 -1.3688
  182SLPC  C31420925   1.665   3.489   8.606  0.0123  0.3952 -0.2329
  182SLPC  H14X20926   1.571   3.467   8.551 -0.0863  0.6617 -0.1699
  182SLPC  H14Y20927   1.692   3.411   8.680 -1.1692  2.0183  2.0418
  182SLPC  C31520928   1.773   3.504   8.505 -0.0732  0.0967 -0.0978
  182SLPC  H15X20929   1.871   3.532   8.550  0.8929 -3.3208  0.2052
  182SLPC  H15Y20930   1.732   3.588   8.445 -2.2677  0.8886  2.2943
  182SLPC  C31620931   1.802   3.387   8.414 -0.4272  0.7164 -0.1075
  182SLPC  H16X20932   1.708   3.336   8.382 -0.6181 -0.9261  2.7573
  182SLPC  H16Y20933   1.855   3.310   8.475  1.4480  2.1879  0.1838
  182SLPC  C31720934   1.890   3.427   8.292 -0.4082  0.3609 -0.1706
  182SLPC  H17X20935   1.937   3.336   8.247 -2.0168 -0.5022 -0.1626
  182SLPC  H17Y20936   1.971   3.490   8.335  0.4401  0.1350 -1.3500
  182SLPC  C31820937   1.818   3.498   8.176 -0.7666 -0.6770 -0.4839
  182SLPC  H18X20938   1.762   3.577   8.230  0.4713  1.9633 -2.7700
  182SLPC  H18Y20939   1.734   3.441   8.130 -1.0086  0.4401 -1.4885
  182SLPC  H18Z20940   1.887   3.558   8.113 -0.5897  0.7691  1.0297
  183SLPC     N20941   2.504   5.458  10.831 -0.4700 -0.4645  1.2141
  183SLPC   C1320942   2.365   5.450  10.805  0.7252 -0.3572  0.1794
  183SLPC  H13A20943   2.331   5.532  10.745  0.0420  0.5116  1.6939
  183SLPC  H13B20944   2.339   5.354  10.762 -1.7821  0.0714  0.6028
  183SLPC  H13C20945   2.304   5.445  10.894 -1.1320 -0.3341 -1.0385
  183SLPC   C1420946   2.551   5.355  10.931  0.0884 -0.6922  1.0586
  183SLPC  H14A20947   2.650   5.380  10.967  0.2656 -0.1743  0.2343
  183SLPC  H14B20948   2.484   5.342  11.015  1.5781 -3.4153  1.9393
  183SLPC  H14C20949   2.554   5.260  10.881  1.3136 -0.5380  0.8139
  183SLPC   C1520950   2.544   5.598  10.874 -0.0773 -0.6240 -0.4990
  183SLPC  H15A20951   2.528   5.661  10.787 -1.3509 -0.5662 -0.2451
  183SLPC  H15B20952   2.492   5.639  10.959 -0.5373  0.1111 -1.1122
  183SLPC  H15C20953   2.646   5.604  10.908 -1.1356  2.7134  2.7455
  183SLPC   C1220954   2.574   5.434  10.690  0.1230 -0.2654 -0.2292
  183SLPC  H12A20955   2.681   5.446  10.706 -0.3895  3.3563  1.6327
  183SLPC  H12B20956   2.548   5.519  10.629  0.5839 -0.5511 -0.8464
  183SLPC   C1120957   2.539   5.306  10.612  0.3397 -0.2690  0.1428
  183SLPC  H11A20958   2.586   5.309  10.512  0.5198  0.7094  0.2388
  183SLPC  H11B20959   2.429   5.306  10.595  0.6052 -1.2170 -1.7866
  183SLPC     P20960   2.728   5.134  10.674  0.3902  0.4857  0.0083
  183SLPC   O1320961   2.809   5.247  10.727 -0.1406  0.6969 -0.7327
  183SLPC   O1420962   2.732   5.014  10.760 -0.0061 -0.2475 -0.3206
  183SLPC   O1220963   2.584   5.191  10.682  0.5358  0.1328  0.1586
  183SLPC   O1120964   2.763   5.108  10.521  0.3649 -0.1679 -0.1658
  183SLPC    C120965   2.671   5.032  10.441 -0.0265 -0.3428 -0.1654
  183SLPC    HA20966   2.632   4.938  10.487  1.2113 -0.2947  1.0593
  183SLPC    HB20967   2.597   5.100  10.395  1.3151 -0.0662 -2.0077
  183SLPC    C220968   2.740   4.963  10.314  0.1691 -0.1559 -1.2213
  183SLPC    HS20969   2.828   4.906  10.351 -0.9908 -3.1639 -2.8052
  183SLPC   O2120970   2.776   5.073  10.231 -0.3710 -0.2115 -0.2102
  183SLPC   C2120971   2.889   5.055  10.158 -0.4495  0.0476 -0.6507
  183SLPC   O2220972   2.970   4.964  10.173 -0.0023  0.5366 -0.2563
  183SLPC   C2220973   2.915   5.182  10.076  0.2829 -0.1001 -0.5351
  183SLPC   H2R20974   2.820   5.238  10.074 -1.1077 -2.1411  2.1983
  183SLPC   H2S20975   2.988   5.243  10.134  1.2051 -2.9055  1.4911
  183SLPC    C320976   2.653   4.857  10.243  0.0921  0.3245 -0.1913
  183SLPC    HX20977   2.556   4.898  10.207  0.5035  1.0465 -0.5022
  183SLPC    HY20978   2.621   4.786  10.322  1.7866  1.8224  1.9595
  183SLPC   O3120979   2.712   4.798  10.124  0.0331 -0.3054 -0.4243
  183SLPC   C3120980   2.784   4.692  10.156 -0.6818  0.4185  0.2967
  183SLPC   O3220981   2.800   4.645  10.268  0.4234  0.0840  0.1327
  183SLPC   C3220982   2.859   4.628  10.037  0.4117 -0.0344  0.8995
  183SLPC   H2X20983   2.779   4.587   9.972  1.1752  0.5660 -0.4640
  183SLPC   H2Y20984   2.916   4.541  10.075  0.4449  0.2399  1.4968
  183SLPC   C2320985   2.986   5.162   9.945  0.6785 -0.5199  0.1460
  183SLPC   H3R20986   2.921   5.098   9.882 -0.5820 -0.4352  1.3114
  183SLPC   H3S20987   3.085   5.112   9.959  0.9771  0.2106  0.6547
  183SLPC   C2420988   2.997   5.299   9.871 -0.1714  0.4862  0.2914
  183SLPC   H4R20989   3.075   5.371   9.905 -0.9075  0.8299  1.2907
  183SLPC   H4S20990   2.902   5.354   9.883  0.0616  0.7892  0.7748
  183SLPC   C2520991   3.035   5.270   9.718 -0.8999  0.3176  0.5192
  183SLPC   H5R20992   2.954   5.214   9.665  0.2305  0.0405 -0.9607
  183SLPC   H5S20993   3.122   5.201   9.721 -0.2442  1.1016 -0.1714
  183SLPC   C2620994   3.064   5.404   9.638 -0.0245 -0.3639 -0.4933
  183SLPC   H6R20995   3.157   5.454   9.673  0.6559 -0.9687 -1.4066
  183SLPC   H6S20996   2.985   5.482   9.641  0.6621  0.3308  0.0585
  183SLPC   C2720997   3.074   5.387   9.486  0.2286  0.1879  0.6415
  183SLPC   H7R20998   3.079   5.488   9.439  1.1524 -0.2603 -0.2516
  183SLPC   H7S20999   2.989   5.335   9.438 -0.5597  1.5985  0.4350
  183SLPC   C2821000   3.199   5.312   9.444 -0.5510 -0.3862  0.4877
  183SLPC   H8R21001   3.185   5.202   9.448  1.9674 -0.7607  4.4962
  183SLPC   H8S21002   3.291   5.322   9.505  0.8945 -0.7614 -1.5276
  183SLPC   C2921003   3.230   5.343   9.301  0.1783 -0.3317 -0.3957
  183SLPC   H9R21004   3.180   5.277   9.228 -0.6186  1.6598 -1.7257
  183SLPC  C21021005   3.306   5.446   9.256  0.5995  0.3258 -0.3996
  183SLPC  H10R21006   3.317   5.472   9.150  2.7004  0.6873 -0.1443
  183SLPC  C21121007   3.382   5.549   9.345  0.3967  0.0488  0.9691
  183SLPC  H11R21008   3.383   5.509   9.448  0.9117 -1.4063  0.4300
  183SLPC  H11S21009   3.321   5.641   9.344  0.6740  0.2434 -0.5757
  183SLPC  C21221010   3.527   5.573   9.293  0.1748 -0.9116 -0.5405
  183SLPC  H12R21011   3.612   5.534   9.351  0.8899  1.1684 -0.1058
  183SLPC  C21321012   3.550   5.653   9.190 -0.1505 -0.2567  0.0647
  183SLPC  H13R21013   3.656   5.675   9.171  0.5182 -2.0660  1.4118
  183SLPC  C21421014   3.445   5.729   9.108 -0.2364 -0.1236 -0.2650
  183SLPC  H14R21015   3.343   5.732   9.151 -0.1145  1.6005 -0.0229
  183SLPC  H14S21016   3.445   5.673   9.012 -1.6267  0.1320 -0.4296
  183SLPC  C21521017   3.485   5.873   9.099  0.1085 -0.9106 -0.7566
  183SLPC  H15R21018   3.571   5.897   9.033  0.7065  0.0094  0.3280
  183SLPC  H15S21019   3.503   5.916   9.200 -2.3164  0.8061 -0.9655
  183SLPC  C21621020   3.376   5.964   9.037 -0.4304  0.3310  0.2639
  183SLPC  H16R21021   3.411   6.069   9.052 -1.4793  1.0289 -1.7104
  183SLPC  H16S21022   3.278   5.944   9.085 -0.9071 -0.7288 -1.0776
  183SLPC  C21721023   3.363   5.958   8.883 -0.6619  0.3434 -0.9946
  183SLPC  H17R21024   3.301   5.867   8.868 -0.1585 -0.6973  2.3847
  183SLPC  H17S21025   3.458   5.931   8.834  1.6309 -0.3655  3.3161
  183SLPC  C21821026   3.291   6.075   8.836  0.2610  0.5015 -0.5842
  183SLPC  H18R21027   3.275   6.070   8.726  0.0323  0.1607 -0.5409
  183SLPC  H18S21028   3.350   6.168   8.846  0.4361  0.2022  1.7541
  183SLPC  H18T21029   3.188   6.076   8.878  0.1736 -3.5301 -0.3115
  183SLPC   C3321030   2.933   4.742   9.961 -0.4741  0.2498 -0.4681
  183SLPC   H3X21031   3.015   4.772  10.030 -0.7796  1.8230 -0.7611
  183SLPC   H3Y21032   2.862   4.827   9.954 -0.0906  0.6263  0.1574
  183SLPC   C3421033   2.962   4.705   9.819 -0.7975 -0.4354  0.1298
  183SLPC   H4X21034   3.031   4.617   9.819  2.1653  1.7084  2.2410
  183SLPC   H4Y21035   3.016   4.787   9.767 -1.3197 -0.9872 -1.3326
  183SLPC   C3521036   2.832   4.683   9.745  0.0457 -0.2118  0.1948
  183SLPC   H5X21037   2.758   4.742   9.803  0.6153  1.5084 -0.7488
  183SLPC   H5Y21038   2.810   4.574   9.752  0.8986 -0.4067 -0.0161
  183SLPC   C3621039   2.828   4.731   9.601  0.4614 -0.1389  0.3704
  183SLPC   H6X21040   2.865   4.836   9.596  0.1876 -0.1050 -2.6199
  183SLPC   H6Y21041   2.722   4.739   9.570  1.2136 -1.3968 -2.9591
  183SLPC   C3721042   2.899   4.639   9.502  1.0139  0.0024 -0.3345
  183SLPC   H7X21043   2.871   4.532   9.501  1.0265 -0.0050 -1.8099
  183SLPC   H7Y21044   3.008   4.652   9.518  1.3380 -2.5763 -0.0130
  183SLPC   C3821045   2.882   4.683   9.350 -0.2011 -0.8223  0.3738
  183SLPC   H8X21046   2.771   4.695   9.341 -0.5639 -3.4582  0.6765
  183SLPC   H8Y21047   2.912   4.597   9.287 -0.3278  0.4963 -1.5788
  183SLPC   C3921048   2.964   4.802   9.319 -0.3117  0.5748 -0.2359
  183SLPC   H9X21049   2.946   4.883   9.393 -1.2623  0.5761 -0.4657
  183SLPC   H9Y21050   2.916   4.852   9.232 -1.6555 -1.0956 -0.5085
  183SLPC  C31021051   3.105   4.760   9.287  0.1869 -0.4747  0.0146
  183SLPC  H10X21052   3.097   4.679   9.210 -1.0172  0.7579 -1.2161
  183SLPC  H10Y21053   3.159   4.722   9.376 -0.4903  0.2243  0.7277
  183SLPC  C31121054   3.184   4.879   9.242  0.1244 -0.1472 -0.0713
  183SLPC  H11X21055   3.285   4.834   9.224  0.5751  0.3868  1.0267
  183SLPC  H11Y21056   3.189   4.952   9.326  0.9623 -0.3259  0.0523
  183SLPC  C31221057   3.136   4.948   9.116  0.2487 -0.2910  0.6537
  183SLPC  H12X21058   3.051   5.010   9.153 -0.1408 -0.6213  0.3176
  183SLPC  H12Y21059   3.093   4.871   9.049  2.3673 -0.7846 -0.1920
  183SLPC  C31321060   3.255   5.017   9.048 -1.2765 -0.0797 -0.3231
  183SLPC  H13X21061   3.330   4.951   8.999  0.6688  1.1110  0.8921
  183SLPC  H13Y21062   3.306   5.069   9.132  1.8506 -1.9999 -0.8839
  183SLPC  C31421063   3.207   5.126   8.951  0.0786 -0.8052  0.8507
  183SLPC  H14X21064   3.146   5.193   9.015 -0.7325  0.3609 -1.0748
  183SLPC  H14Y21065   3.142   5.089   8.869  0.0477  3.2079 -1.1921
  183SLPC  C31521066   3.326   5.197   8.896  0.5255 -0.6685  0.3450
  183SLPC  H15X21067   3.387   5.133   8.830  0.6196 -1.1728  0.9180
  183SLPC  H15Y21068   3.400   5.214   8.977  3.1653  0.0965 -2.0962
  183SLPC  C31621069   3.279   5.328   8.832  0.5772 -0.6437 -0.1136
  183SLPC  H16X21070   3.231   5.389   8.910  0.3915 -0.9842  0.0394
  183SLPC  H16Y21071   3.213   5.309   8.745 -1.4320  0.2765  1.1575
  183SLPC  C31721072   3.393   5.420   8.776 -0.5411  0.5124  0.7226
  183SLPC  H17X21073   3.438   5.374   8.686  1.2607  0.3992  1.6322
  183SLPC  H17Y21074   3.470   5.450   8.851  0.4789  0.0543 -0.1174
  183SLPC  C31821075   3.341   5.559   8.733 -0.7840  0.1503 -1.1349
  183SLPC  H18X21076   3.276   5.554   8.643  0.5858 -0.3396 -2.1441
  183SLPC  H18Y21077   3.427   5.629   8.720 -0.0335 -0.6343 -0.4757
  183SLPC  H18Z21078   3.289   5.594   8.824  2.5163 -0.7781  1.3116
  184SLPC     N21079   5.639   6.365  10.700  0.0577 -0.0825  0.7373
  184SLPC   C1321080   5.667   6.509  10.739 -0.1848 -0.4389 -0.5058
  184SLPC  H13A21081   5.579   6.569  10.758  0.4134  0.4859 -0.5775
  184SLPC  H13B21082   5.731   6.528  10.824 -2.1565  0.4161  0.8677
  184SLPC  H13C21083   5.698   6.555  10.647 -2.1104 -0.7469 -1.3558
  184SLPC   C1421084   5.611   6.298  10.826  0.2216 -0.0298 -0.6665
  184SLPC  H14A21085   5.588   6.193  10.818  0.1464 -0.1433  0.7277
  184SLPC  H14B21086   5.687   6.310  10.902 -0.0371 -2.2038  0.0100
  184SLPC  H14C21087   5.532   6.350  10.877 -0.5509 -0.5296 -1.3389
  184SLPC   C1521088   5.768   6.322  10.636 -0.2307  0.7080  0.2823
  184SLPC  H15A21089   5.839   6.313  10.717 -1.4289  1.2242  1.4397
  184SLPC  H15B21090   5.764   6.226  10.587 -0.2079 -0.6633  2.7529
  184SLPC  H15C21091   5.797   6.386  10.555 -1.0161  1.2586  0.4271
  184SLPC   C1221092   5.527   6.368  10.596  0.1468  1.0758  0.8316
  184SLPC  H12A21093   5.553   6.429  10.510  0.9159 -1.6310 -0.9829
  184SLPC  H12B21094   5.433   6.398  10.641 -0.9557 -1.8911  0.7112
  184SLPC   C1121095   5.500   6.227  10.534 -0.4830 -0.7432  0.0093
  184SLPC  H11A21096   5.596   6.179  10.507  0.0533  0.9052 -1.1911
  184SLPC  H11B21097   5.449   6.231  10.435 -0.4690  1.3994  0.0362
  184SLPC     P21098   5.282   6.146  10.637 -0.5592 -0.2196 -0.4922
  184SLPC   O1321099   5.230   6.048  10.741  0.2768  0.1204  0.4617
  184SLPC   O1421100   5.239   6.285  10.650 -0.0833  0.0659  0.0891
  184SLPC   O1221101   5.440   6.137  10.628 -0.0954  0.2268  0.1034
  184SLPC   O1121102   5.261   6.088  10.497 -0.5702  0.0389 -0.2813
  184SLPC    C121103   5.301   5.959  10.449  0.5110  0.2629  0.2147
  184SLPC    HA21104   5.398   5.940  10.499  0.4085 -1.6714 -0.2208
  184SLPC    HB21105   5.233   5.881  10.490 -0.1906  0.6618 -0.1666
  184SLPC    C221106   5.317   5.943  10.296 -0.0550 -0.2532  0.1842
  184SLPC    HS21107   5.384   5.855  10.286  2.0074  1.1848  0.6384
  184SLPC   O2121108   5.368   6.064  10.240  0.2129 -0.4703 -0.5419
  184SLPC   C2121109   5.502   6.061  10.235 -0.3250 -0.4905  0.3151
  184SLPC   O2221110   5.574   5.971  10.275 -0.0788 -0.2774  0.0745
  184SLPC   C2221111   5.554   6.189  10.171 -0.0576  0.1010 -0.0481
  184SLPC   H2R21112   5.466   6.248  10.136  0.4487 -0.2269 -2.0025
  184SLPC   H2S21113   5.621   6.249  10.236  2.9335 -1.3750 -1.5769
  184SLPC    C321114   5.181   5.909  10.229 -0.2747 -0.6891 -0.1297
  184SLPC    HX21115   5.122   6.001  10.251  0.6996 -0.0558 -0.0835
  184SLPC    HY21116   5.133   5.820  10.275 -0.6666 -1.1113 -1.3293
  184SLPC   O3121117   5.195   5.899  10.085 -0.4607 -0.4161  0.0772
  184SLPC   C3121118   5.076   5.895  10.029 -1.0668 -0.3154  0.3793
  184SLPC   O3221119   4.966   5.905  10.081 -0.5195 -0.3368 -0.0879
  184SLPC   C3221120   5.102   5.879   9.881  0.8184 -0.3038  0.1999
  184SLPC   H2X21121   5.160   5.786   9.860  1.8047  0.7158 -1.8071
  184SLPC   H2Y21122   5.170   5.960   9.848 -0.7265  0.0065 -2.4491
  184SLPC   C2321123   5.635   6.169  10.038  0.8277 -0.0520 -0.0345
  184SLPC   H3R21124   5.731   6.114  10.045  1.4970  1.1004  0.0707
  184SLPC   H3S21125   5.649   6.268   9.989  1.9354 -0.4533 -0.5564
  184SLPC   C2421126   5.557   6.088   9.929  0.3961  0.2009 -0.6653
  184SLPC   H4R21127   5.468   6.142   9.891  0.4444 -0.5647 -1.8999
  184SLPC   H4S21128   5.524   5.992   9.973  1.4062  0.4420  0.7001
  184SLPC   C2521129   5.651   6.064   9.803  0.3923 -0.2978 -0.5668
  184SLPC   H5R21130   5.735   6.000   9.836  1.5566  1.2336 -0.4517
  184SLPC   H5S21131   5.710   6.157   9.786  0.7325 -0.0284  1.8132
  184SLPC   C2621132   5.585   6.030   9.669  0.0142 -0.2684 -0.1273
  184SLPC   H6R21133   5.507   6.106   9.646  0.1588 -0.0097  0.2421
  184SLPC   H6S21134   5.536   5.931   9.676 -0.2744 -0.0784  0.6353
  184SLPC   C2721135   5.683   6.016   9.555 -0.7098  0.5018 -0.1100
  184SLPC   H7R21136   5.763   5.944   9.582 -0.9287  0.8539  1.5581
  184SLPC   H7S21137   5.731   6.114   9.539 -0.8215  0.8524  1.5153
  184SLPC   C2821138   5.622   5.977   9.419  0.4168  0.5026 -0.3364
  184SLPC   H8R21139   5.701   6.012   9.350 -0.5955  1.0651 -1.2480
  184SLPC   H8S21140   5.535   6.043   9.397  0.1112 -0.1240 -1.0590
  184SLPC   C2921141   5.576   5.834   9.397  0.0400 -0.2287  0.6349
  184SLPC   H9R21142   5.655   5.763   9.366  0.5409  1.1449 -1.4353
  184SLPC  C21021143   5.448   5.798   9.405 -0.0425 -0.1496 -0.2552
  184SLPC  H10R21144   5.426   5.691   9.390  2.5172 -0.8465  0.4470
  184SLPC  C21121145   5.334   5.892   9.434 -1.3260 -0.7642  0.3755
  184SLPC  H11R21146   5.309   5.957   9.348 -0.1396  0.6534  1.0554
  184SLPC  H11S21147   5.371   5.959   9.515 -0.9853 -1.1060  0.5016
  184SLPC  C21221148   5.208   5.828   9.481 -0.0253  0.3699  0.4286
  184SLPC  H12R21149   5.205   5.814   9.590 -2.1688  2.0510  0.6531
  184SLPC  C21321150   5.105   5.787   9.403  0.1155 -0.2633 -0.6723
  184SLPC  H13R21151   5.009   5.761   9.451 -0.2460 -0.4320 -1.4600
  184SLPC  C21421152   5.099   5.814   9.259 -0.0225  0.6786  0.0869
  184SLPC  H14R21153   5.186   5.771   9.203 -0.1336  0.1956  0.2868
  184SLPC  H14S21154   5.097   5.923   9.235 -0.2253  0.9905  1.4824
  184SLPC  C21521155   4.968   5.754   9.213  0.5557  0.2970  0.3590
  184SLPC  H15R21156   4.898   5.774   9.296 -0.4042 -1.1348 -0.0686
  184SLPC  H15S21157   4.963   5.644   9.201  0.1606  0.3000  0.5052
  184SLPC  C21621158   4.910   5.821   9.084 -0.6349  0.2173 -0.3296
  184SLPC  H16R21159   4.896   5.927   9.112  2.0081  0.0483  2.1519
  184SLPC  H16S21160   4.820   5.770   9.045 -0.6743  1.1988 -1.5771
  184SLPC  C21721161   5.018   5.818   8.970  0.9635 -0.1696  0.6633
  184SLPC  H17R21162   5.045   5.710   8.963  0.3450 -0.3395  0.7651
  184SLPC  H17S21163   5.110   5.875   8.990 -0.5389  2.9423 -0.6932
  184SLPC  C21821164   4.967   5.862   8.828  0.1098  0.1331  0.4154
  184SLPC  H18R21165   4.885   5.796   8.794  0.2394  0.2384 -0.1202
  184SLPC  H18S21166   5.061   5.868   8.769 -0.9306 -0.8094 -1.4542
  184SLPC  H18T21167   4.925   5.965   8.834  2.4882  1.1907  0.1318
  184SLPC   C3321168   4.966   5.876   9.804 -0.6736 -0.3638  0.8425
  184SLPC   H3X21169   4.990   5.918   9.704  2.6571 -1.3648  1.0855
  184SLPC   H3Y21170   4.886   5.925   9.862 -0.6446  0.1950  0.4195
  184SLPC   C3421171   4.913   5.735   9.781 -0.5181  0.3920 -0.4881
  184SLPC   H4X21172   4.894   5.674   9.872 -1.4265  1.5320  0.1187
  184SLPC   H4Y21173   4.993   5.682   9.725 -0.2652 -1.8929  1.8200
  184SLPC   C3521174   4.796   5.715   9.691 -0.2673  0.2837  0.3068
  184SLPC   H5X21175   4.837   5.753   9.595  3.4244  3.9194  3.0322
  184SLPC   H5Y21176   4.701   5.767   9.713 -0.1236  0.5514  0.3032
  184SLPC   C3621177   4.771   5.565   9.678  0.9669  0.3354  0.2157
  184SLPC   H6X21178   4.735   5.521   9.773 -2.6088 -1.4644 -1.7616
  184SLPC   H6Y21179   4.867   5.509   9.665  0.0452 -1.4228  0.7173
  184SLPC   C3721180   4.668   5.535   9.563 -0.3698 -0.1265 -0.3636
  184SLPC   H7X21181   4.570   5.576   9.595  0.6003  2.1328 -0.1189
  184SLPC   H7Y21182   4.657   5.424   9.566 -1.7255 -0.0149 -0.7175
  184SLPC   C3821183   4.713   5.590   9.428  0.2333  0.4876  0.5117
  184SLPC   H8X21184   4.821   5.580   9.408  0.2155 -1.1791  1.1002
  184SLPC   H8Y21185   4.699   5.700   9.425  1.2000  0.6719  1.8437
  184SLPC   C3921186   4.630   5.518   9.319  0.2056 -0.2434 -0.0626
  184SLPC   H9X21187   4.527   5.560   9.327  0.0549 -0.3807 -1.0497
  184SLPC   H9Y21188   4.624   5.409   9.340  0.0473 -0.3595 -0.6893
  184SLPC  C31021189   4.673   5.550   9.178 -0.6220 -0.7990 -0.1429
  184SLPC  H10X21190   4.784   5.555   9.174 -0.5904 -1.7080 -3.0506
  184SLPC  H10Y21191   4.652   5.654   9.148  1.5609 -0.5628 -1.0860
  184SLPC  C31121192   4.612   5.450   9.075  0.0447 -0.1508  0.3741
  184SLPC  H11X21193   4.505   5.479   9.079  0.3126  0.9189  0.0709
  184SLPC  H11Y21194   4.636   5.347   9.107  1.1355 -0.3636 -1.0353
  184SLPC  C31221195   4.660   5.454   8.930  0.0317 -0.0562 -0.6957
  184SLPC  H12X21196   4.614   5.365   8.881  0.3284 -1.5828  1.6147
  184SLPC  H12Y21197   4.768   5.429   8.941 -0.7361 -3.3628  0.7723
  184SLPC  C31321198   4.622   5.581   8.852 -0.0308 -0.3009  0.1333
  184SLPC  H13X21199   4.658   5.663   8.917  1.2324 -1.1925  0.6026
  184SLPC  H13Y21200   4.513   5.595   8.838 -0.2124 -1.1270  0.6464
  184SLPC  C31421201   4.696   5.592   8.718  0.8767 -0.4546  0.1467
  184SLPC  H14X21202   4.676   5.504   8.654 -1.4250  0.9176 -1.1541
  184SLPC  H14Y21203   4.805   5.593   8.739  0.8180  0.7741  0.4676
  184SLPC  C31521204   4.656   5.705   8.619 -0.0632 -0.8739 -0.4726
  184SLPC  H15X21205   4.684   5.801   8.669  1.0743 -2.2330  1.6547
  184SLPC  H15Y21206   4.547   5.696   8.597 -0.2668 -1.5807  0.7414
  184SLPC  C31621207   4.730   5.707   8.492 -0.2210 -0.4646 -0.6011
  184SLPC  H16X21208   4.730   5.600   8.460  0.1412 -1.4104  2.3149
  184SLPC  H16Y21209   4.834   5.739   8.511 -0.7486  0.9332  0.0239
  184SLPC  C31721210   4.683   5.805   8.385 -0.4773 -0.2911  0.0153
  184SLPC  H17X21211   4.575   5.803   8.362 -0.7306 -1.6412  1.1692
  184SLPC  H17Y21212   4.736   5.774   8.292 -2.9781 -0.0910 -1.5633
  184SLPC  C31821213   4.731   5.951   8.402 -0.5671 -0.7887  0.2335
  184SLPC  H18X21214   4.698   6.015   8.318  0.1378  0.2585  0.7303
  184SLPC  H18Y21215   4.841   5.965   8.404 -0.8530  1.9045  1.0921
  184SLPC  H18Z21216   4.690   5.995   8.496 -2.5403  0.4871 -1.1494
  185SLPC     N21217   6.203   3.909   5.900 -0.2642  0.9307  1.1858
  185SLPC   C1321218   6.153   3.817   6.007 -0.6321  0.4208 -0.8756
  185SLPC  H13A21219   6.222   3.782   6.082 -2.1283  1.0621  0.8480
  185SLPC  H13B21220   6.078   3.867   6.065  1.3075 -0.6571  2.9129
  185SLPC  H13C21221   6.116   3.724   5.966 -2.1248  0.4144  0.4324
  185SLPC   C1421222   6.096   3.919   5.794  0.0030 -0.4360 -0.5551
  185SLPC  H14A21223   6.084   3.827   5.739  0.3520  0.1513 -1.6497
  185SLPC  H14B21224   6.000   3.938   5.840  0.3389 -0.5600  0.1943
  185SLPC  H14C21225   6.117   3.999   5.724 -0.8394  1.3569  1.1260
  185SLPC   C1521226   6.317   3.841   5.836  0.4850 -0.5866 -0.9701
  185SLPC  H15A21227   6.278   3.749   5.793 -1.0478  0.0600 -1.0463
  185SLPC  H15B21228   6.359   3.901   5.757  1.5370 -0.0983 -0.0616
  185SLPC  H15C21229   6.383   3.806   5.914 -0.0962 -0.9700 -0.6386
  185SLPC   C1221230   6.248   4.039   5.966  0.1396 -0.1709 -0.5642
  185SLPC  H12A21231   6.164   4.098   6.000 -0.5300 -1.1779 -0.4121
  185SLPC  H12B21232   6.287   4.113   5.898  1.9230  0.5302  1.1436
  185SLPC   C1121233   6.346   4.036   6.089 -0.0026  0.2071 -0.0973
  185SLPC  H11A21234   6.435   3.979   6.057 -0.2607  1.1511 -2.7837
  185SLPC  H11B21235   6.301   3.992   6.181  0.6181  0.9737  0.5936
  185SLPC     P21236   6.352   4.250   6.251 -0.2769 -0.5800  0.2445
  185SLPC   O1321237   6.404   4.393   6.234  0.7332  0.1423 -0.2973
  185SLPC   O1421238   6.208   4.236   6.278 -0.0275  0.1959 -0.1031
  185SLPC   O1221239   6.392   4.166   6.118  0.2403  0.2065  0.2877
  185SLPC   O1121240   6.420   4.181   6.373  0.5441  0.1115  0.5066
  185SLPC    C121241   6.550   4.111   6.356 -0.1731  0.6074  0.2309
  185SLPC    HA21242   6.548   4.053   6.261 -0.6583 -0.8979  1.1258
  185SLPC    HB21243   6.629   4.190   6.354  0.3036  0.1244 -0.3286
  185SLPC    C221244   6.578   3.990   6.457 -0.1541 -0.2773 -0.1924
  185SLPC    HS21245   6.498   3.915   6.442 -1.0911  0.9429 -1.5829
  185SLPC   O2121246   6.558   4.040   6.591  0.8003 -0.7768  0.6507
  185SLPC   C2121247   6.554   3.956   6.689 -0.1405  0.4950 -0.3756
  185SLPC   O2221248   6.554   3.833   6.682 -0.1088 -0.2468 -0.1923
  185SLPC   C2221249   6.538   4.030   6.819  0.8430  0.0413  0.7003
  185SLPC   H2R21250   6.482   4.124   6.800  0.2358 -1.2164 -6.1481
  185SLPC   H2S21251   6.470   3.960   6.872  0.1611  0.3627  0.2507
  185SLPC    C321252   6.719   3.918   6.444  0.6185  0.1036  0.1001
  185SLPC    HX21253   6.730   3.900   6.335 -2.0820 -0.5150 -0.1621
  185SLPC    HY21254   6.705   3.822   6.498 -1.0164  0.8615  1.1035
  185SLPC   O3121255   6.829   3.995   6.507  0.1642  0.3068 -0.4499
  185SLPC   C3121256   6.891   4.077   6.431 -0.9053 -0.1170  0.0095
  185SLPC   O3221257   6.887   4.083   6.308  0.1122  0.2425 -0.3121
  185SLPC   C3221258   6.989   4.157   6.517 -0.5940  0.4892 -0.5216
  185SLPC   H2X21259   6.946   4.259   6.518  0.4181  0.9414  1.6377
  185SLPC   H2Y21260   7.076   4.163   6.449 -0.1324 -2.9974 -0.4463
  185SLPC   C2321261   6.672   4.053   6.886  0.0271 -0.7074  0.5284
  185SLPC   H3R21262   6.719   4.115   6.807  0.1780 -1.0773  0.3245
  185SLPC   H3S21263   6.733   3.961   6.900  1.7491  0.4125  0.7938
  185SLPC   C2421264   6.668   4.127   7.015 -0.0705  0.4701 -0.0404
  185SLPC   H4R21265   6.647   4.236   7.006 -1.4684  0.1307 -1.2149
  185SLPC   H4S21266   6.772   4.118   7.054  0.1709  2.6405 -0.0353
  185SLPC   C2521267   6.576   4.070   7.128 -0.1680 -0.0493  0.3680
  185SLPC   H5R21268   6.565   3.959   7.133  1.0478 -0.2565 -0.8690
  185SLPC   H5S21269   6.474   4.108   7.112  0.2052  0.2430 -1.6093
  185SLPC   C2621270   6.624   4.102   7.270 -0.5063  0.2563  0.5070
  185SLPC   H6R21271   6.647   4.209   7.289 -0.9379  0.3376  0.5827
  185SLPC   H6S21272   6.719   4.047   7.286 -1.1240 -1.2598 -0.8276
  185SLPC   C2721273   6.512   4.068   7.373  0.2619  0.0195  0.3231
  185SLPC   H7R21274   6.501   3.959   7.388 -1.5651  0.3371  1.6640
  185SLPC   H7S21275   6.413   4.109   7.343  0.1317  0.4213  1.2598
  185SLPC   C2821276   6.549   4.116   7.514  0.1189  0.3902 -0.5849
  185SLPC   H8R21277   6.567   4.224   7.501 -2.9206  1.0507 -0.0561
  185SLPC   H8S21278   6.649   4.078   7.542 -0.2332 -0.6418 -0.6757
  185SLPC   C2921279   6.453   4.094   7.629  1.1952  0.6621 -0.0724
  185SLPC   H9R21280   6.384   4.013   7.601  0.5155  0.7590  1.2318
  185SLPC  C21021281   6.446   4.148   7.749 -0.7840  0.4357 -0.0387
  185SLPC  H10R21282   6.372   4.106   7.820  0.3137 -0.9738  0.3007
  185SLPC  C21121283   6.531   4.262   7.804  0.3854 -0.3119  0.0547
  185SLPC  H11R21284   6.476   4.358   7.789  0.8804  0.0178  0.3226
  185SLPC  H11S21285   6.619   4.277   7.739 -0.1742  3.0762 -0.1119
  185SLPC  C21221286   6.578   4.227   7.945  0.4476 -0.3703  0.5307
  185SLPC  H12R21287   6.509   4.274   8.017  0.2024  0.6518 -0.3518
  185SLPC  C21321288   6.680   4.153   7.986  0.4040 -0.5048 -0.0560
  185SLPC  H13R21289   6.696   4.133   8.093 -0.0190 -1.5148 -0.1663
  185SLPC  C21421290   6.778   4.082   7.891  0.3488 -0.6061 -0.0017
  185SLPC  H14R21291   6.879   4.112   7.926  0.6574 -0.4451 -0.9914
  185SLPC  H14S21292   6.765   4.121   7.787 -0.8258 -1.9785 -0.3886
  185SLPC  C21521293   6.770   3.938   7.885 -0.0177  1.1304  0.1001
  185SLPC  H15R21294   6.820   3.900   7.793 -0.9095 -0.8033  0.3522
  185SLPC  H15S21295   6.667   3.896   7.876  0.7430 -0.6556 -0.9267
  185SLPC  C21621296   6.826   3.864   8.002  0.3783  0.4694 -1.2182
  185SLPC  H16R21297   6.755   3.867   8.087  0.5557 -0.7399 -0.9998
  185SLPC  H16S21298   6.914   3.922   8.038 -1.0781  1.8177  0.3017
  185SLPC  C21721299   6.882   3.726   7.973  0.4481 -0.1443  0.0371
  185SLPC  H17R21300   6.965   3.721   7.899  0.1754  0.5140 -0.3280
  185SLPC  H17S21301   6.796   3.671   7.930  0.9536 -0.5346 -0.4909
  185SLPC  C21821302   6.937   3.663   8.104 -0.5242  0.4667  0.2763
  185SLPC  H18R21303   6.859   3.641   8.180  0.5639 -1.4216  0.8924
  185SLPC  H18S21304   7.003   3.743   8.144 -0.1777  0.5776 -0.4887
  185SLPC  H18T21305   7.002   3.574   8.093  1.4030  1.9994 -1.5389
  185SLPC   C3321306   7.036   4.089   6.653  0.2986 -0.6898  0.4502
  185SLPC   H3X21307   7.063   3.983   6.633  1.7524 -0.1546 -0.5899
  185SLPC   H3Y21308   6.947   4.084   6.718  0.1594 -1.0267  0.2333
  185SLPC   C3421309   7.147   4.173   6.716  0.1437 -0.9508 -0.2405
  185SLPC   H4X21310   7.107   4.276   6.708  1.2546 -0.4107  0.8676
  185SLPC   H4Y21311   7.238   4.198   6.656 -0.5100  2.7595  0.0767
  185SLPC   C3521312   7.203   4.133   6.849 -0.3082 -0.3971 -0.5861
  185SLPC   H5X21313   7.259   4.214   6.900  0.4199 -1.8516  1.0390
  185SLPC   H5Y21314   7.284   4.061   6.827 -0.1189 -1.0115  1.8014
  185SLPC   C3621315   7.113   4.056   6.951  0.0002 -0.4315  1.2283
  185SLPC   H6X21316   7.129   3.947   6.936 -1.8062 -0.3849 -1.9788
  185SLPC   H6Y21317   7.008   4.088   6.934  0.3211  0.4165  0.7467
  185SLPC   C3721318   7.147   4.080   7.094 -0.3233  0.2265 -0.8563
  185SLPC   H7X21319   7.151   4.188   7.120  4.8315  0.1733 -0.2964
  185SLPC   H7Y21320   7.249   4.049   7.125 -0.3422  0.0983 -0.9196
  185SLPC   C3821321   7.050   4.011   7.193  0.6566  0.5548  0.3056
  185SLPC   H8X21322   7.053   3.900   7.180 -0.3031  0.7199 -1.8019
  185SLPC   H8Y21323   6.945   4.047   7.197  0.5161  0.1548  0.3145
  185SLPC   C3921324   7.099   4.022   7.337  0.0576  0.4443  1.3700
  185SLPC   H9X21325   7.108   4.131   7.361 -1.4037  0.1830  3.3956
  185SLPC   H9Y21326   7.201   3.980   7.350 -0.4132 -0.3913  2.5290
  185SLPC  C31021327   7.008   3.961   7.437 -0.5004  0.0096  0.0067
  185SLPC  H10X21328   7.006   3.853   7.411 -2.3870 -0.4639  1.8505
  185SLPC  H10Y21329   6.905   3.997   7.417 -0.5334  0.2281  0.5451
  185SLPC  C31121330   7.040   3.981   7.591 -0.2551 -0.5882 -0.2377
  185SLPC  H11X21331   6.972   3.911   7.645  0.1292 -0.0839  0.9208
  185SLPC  H11Y21332   7.018   4.087   7.615  0.7347 -0.2774 -0.6354
  185SLPC  C31221333   7.183   3.939   7.637 -0.0438 -0.9892 -0.0116
  185SLPC  H12X21334   7.256   4.015   7.600 -0.3843 -1.4874 -1.7945
  185SLPC  H12Y21335   7.212   3.841   7.595  1.3445 -0.2309 -0.9140
  185SLPC  C31321336   7.189   3.929   7.793  0.3042 -0.7153  0.2111
  185SLPC  H13X21337   7.096   3.882   7.831 -0.7107  2.0632  1.4068
  185SLPC  H13Y21338   7.195   4.034   7.829  1.7128  0.0398 -1.9989
  185SLPC  C31421339   7.303   3.839   7.848  0.1331  0.4751 -0.5916
  185SLPC  H14X21340   7.403   3.882   7.825  0.5824 -0.5016 -0.4819
  185SLPC  H14Y21341   7.290   3.741   7.798  2.9949 -0.8382  0.9892
  185SLPC  C31521342   7.291   3.822   8.000  1.4400 -0.1128  0.1805
  185SLPC  H15X21343   7.356   3.737   8.030  0.1404 -0.8449  1.0098
  185SLPC  H15Y21344   7.188   3.784   8.015  1.1021  0.9572  0.7341
  185SLPC  C31621345   7.300   3.949   8.090  0.6968 -0.6031 -0.1873
  185SLPC  H16X21346   7.227   4.027   8.058 -1.4375 -2.1606  0.6111
  185SLPC  H16Y21347   7.400   3.997   8.084  0.0102  0.8953 -0.2586
  185SLPC  C31721348   7.274   3.924   8.245  0.0872 -0.1418  0.2172
  185SLPC  H17X21349   7.340   3.844   8.285  0.1192 -0.7218 -0.9754
  185SLPC  H17Y21350   7.170   3.890   8.262 -0.0910  0.2631 -0.0402
  185SLPC  C31821351   7.291   4.057   8.316 -0.4010 -0.1999 -0.4419
  185SLPC  H18X21352   7.274   4.048   8.426 -2.2669  2.9919 -0.3560
  185SLPC  H18Y21353   7.215   4.126   8.273  0.9797  1.6317 -0.0522
  185SLPC  H18Z21354   7.395   4.093   8.300  0.3021 -1.3452  1.2020
  186SLPC     N21355   5.651   4.251   6.274  0.8951  0.0994  0.1823
  186SLPC   C1321356   5.531   4.169   6.311  0.7338 -0.4143 -0.8684
  186SLPC  H13A21357   5.446   4.236   6.317  1.8052  0.8961  1.8053
  186SLPC  H13B21358   5.516   4.090   6.240 -0.5757  0.2186 -1.3351
  186SLPC  H13C21359   5.548   4.127   6.409  1.0797  0.4610 -0.5454
  186SLPC   C1421360   5.620   4.335   6.158 -0.3382  0.4253 -0.3819
  186SLPC  H14A21361   5.569   4.283   6.078 -0.3848  0.2156 -0.2167
  186SLPC  H14B21362   5.547   4.411   6.184 -1.1573 -0.8854  1.3358
  186SLPC  H14C21363   5.705   4.382   6.112 -1.6472  1.5728 -1.7626
  186SLPC   C1521364   5.759   4.161   6.247 -1.1708 -0.2773 -0.0661
  186SLPC  H15A21365   5.740   4.096   6.163  0.3210 -2.7165  1.3592
  186SLPC  H15B21366   5.850   4.206   6.210 -2.2623  0.3528 -2.1235
  186SLPC  H15C21367   5.793   4.103   6.332  1.0006  2.0932  0.8284
  186SLPC   C1221368   5.690   4.342   6.394  0.3893 -0.3773  0.3052
  186SLPC  H12A21369   5.781   4.396   6.374  0.4845 -0.6739 -0.0850
  186SLPC  H12B21370   5.710   4.275   6.476  0.4295 -1.1634 -0.3316
  186SLPC   C1121371   5.596   4.445   6.451  0.2814  0.0164 -0.2327
  186SLPC  H11A21372   5.638   4.493   6.543  0.9842  0.8207 -0.9600
  186SLPC  H11B21373   5.505   4.387   6.474 -1.0905  1.4858 -1.6823
  186SLPC     P21374   5.651   4.676   6.339 -0.1952  0.4424  0.3708
  186SLPC   O1321375   5.703   4.668   6.200  0.0657  0.0459  0.0336
  186SLPC   O1421376   5.571   4.799   6.373  0.2977  0.4492  0.3032
  186SLPC   O1221377   5.564   4.549   6.363 -0.0094  0.5445 -0.3287
  186SLPC   O1121378   5.785   4.655   6.430  0.0348  0.6259  0.0427
  186SLPC    C121379   5.834   4.765   6.508 -0.3194 -0.0536  0.3534
  186SLPC    HA21380   5.861   4.856   6.450 -0.3379  0.5349  1.2537
  186SLPC    HB21381   5.766   4.796   6.589 -1.8140  0.1515 -0.9363
  186SLPC    C221382   5.964   4.716   6.573  0.0414 -0.7992 -0.6833
  186SLPC    HS21383   6.026   4.674   6.492 -0.0572 -0.4277 -0.9517
  186SLPC   O2121384   5.924   4.627   6.683 -0.4562 -0.3809 -0.3564
  186SLPC   C2121385   5.955   4.504   6.662  0.7263 -0.5818 -0.0320
  186SLPC   O2221386   6.016   4.462   6.567 -0.1389  0.3911 -0.1074
  186SLPC   C2221387   5.900   4.417   6.771  0.0601 -0.8320  0.9232
  186SLPC   H2R21388   5.797   4.386   6.742 -0.5754  1.1741  0.8931
  186SLPC   H2S21389   5.968   4.329   6.774 -0.0514 -0.9297  0.6623
  186SLPC    C321390   6.043   4.824   6.646  0.3313  0.5257  0.3707
  186SLPC    HX21391   5.970   4.882   6.707  3.3666  0.1968  4.7932
  186SLPC    HY21392   6.082   4.901   6.577 -2.7982 -0.2696 -2.6149
  186SLPC   O3121393   6.132   4.773   6.750 -0.1512 -0.0101  0.2093
  186SLPC   C3121394   6.246   4.732   6.700 -0.1320 -0.0835 -0.5503
  186SLPC   O3221395   6.272   4.722   6.581 -0.2149 -0.2084  0.6956
  186SLPC   C3221396   6.348   4.705   6.813  0.3780  0.1295 -0.1813
  186SLPC   H2X21397   6.334   4.752   6.913  1.4678 -0.3761  0.2347
  186SLPC   H2Y21398   6.451   4.723   6.776  1.2907  0.0415  2.1130
  186SLPC   C2321399   5.899   4.468   6.921 -0.2635 -0.5170 -0.3270
  186SLPC   H3R21400   5.799   4.512   6.941 -0.3024 -0.7963  0.1129
  186SLPC   H3S21401   5.982   4.539   6.938 -0.5479  0.2338 -1.8968
  186SLPC   C2421402   5.922   4.360   7.023 -1.2420 -0.1788 -0.3046
  186SLPC   H4R21403   6.023   4.315   7.014 -1.2303 -0.3740  0.7173
  186SLPC   H4S21404   5.848   4.280   7.004 -2.5939  1.6335 -3.3816
  186SLPC   C2521405   5.901   4.420   7.162 -0.5101 -0.0568 -0.1644
  186SLPC   H5R21406   5.803   4.473   7.163 -0.0873  0.7799 -1.5319
  186SLPC   H5S21407   5.987   4.487   7.185  0.1800 -1.3718  1.3029
  186SLPC   C2621408   5.914   4.320   7.278 -0.1337  0.4102  0.0561
  186SLPC   H6R21409   5.916   4.365   7.379 -1.4929 -0.3352  0.4335
  186SLPC   H6S21410   6.010   4.265   7.274  0.1836  0.8482  1.3216
  186SLPC   C2721411   5.796   4.217   7.288 -0.0890  0.6947  0.2558
  186SLPC   H7R21412   5.792   4.164   7.190 -0.3766  2.1952 -0.5775
  186SLPC   H7S21413   5.700   4.274   7.294 -1.1830 -1.0521  0.0714
  186SLPC   C2821414   5.820   4.120   7.404  0.0210  0.5901 -0.0660
  186SLPC   H8R21415   5.730   4.078   7.454  0.0668  0.0517 -0.4264
  186SLPC   H8S21416   5.877   4.174   7.483  1.0672  0.7630 -0.9187
  186SLPC   C2921417   5.900   3.999   7.347 -0.4107 -0.3493  0.4436
  186SLPC   H9R21418   5.869   3.973   7.245  0.4537 -0.7670  0.2727
  186SLPC  C21021419   5.990   3.929   7.400 -0.4040 -0.1052 -0.4019
  186SLPC  H10R21420   6.024   3.840   7.344 -1.8273 -1.5328  0.8921
  186SLPC  C21121421   6.040   3.942   7.544 -0.0282  0.2186 -0.0791
  186SLPC  H11R21422   5.969   4.002   7.605 -2.5479 -0.8120 -1.8006
  186SLPC  H11S21423   6.131   4.004   7.532  1.4521 -1.8620 -0.1347
  186SLPC  C21221424   6.077   3.804   7.600  0.3578 -0.1579  0.1516
  186SLPC  H12R21425   6.106   3.732   7.522 -0.7703 -0.4991  0.0390
  186SLPC  C21321426   6.069   3.763   7.726 -0.1614  0.5766 -0.9186
  186SLPC  H13R21427   6.121   3.667   7.741  0.4087  0.7916 -1.4560
  186SLPC  C21421428   6.030   3.839   7.850  0.5012  0.9640  0.4536
  186SLPC  H14R21429   6.022   3.776   7.941 -0.1319  2.0268  1.1575
  186SLPC  H14S21430   5.931   3.888   7.838 -0.7616 -1.7928 -1.1407
  186SLPC  C21521431   6.138   3.943   7.880 -1.1180  0.1514 -0.4221
  186SLPC  H15R21432   6.125   4.023   7.804  0.3590 -0.5176 -1.4424
  186SLPC  H15S21433   6.242   3.903   7.872 -0.1454  2.3301  0.6107
  186SLPC  C21621434   6.106   4.003   8.022  0.1476 -0.2824 -0.2483
  186SLPC  H16R21435   6.124   3.924   8.098 -0.8009 -0.6147 -0.3536
  186SLPC  H16S21436   5.996   4.020   8.023  0.0550 -0.7084 -1.5789
  186SLPC  C21721437   6.174   4.137   8.035  0.2826 -0.5242  0.1002
  186SLPC  H17R21438   6.134   4.206   7.958  1.6728 -0.0593 -0.2468
  186SLPC  H17S21439   6.280   4.136   8.000  0.2968 -0.7128  0.1440
  186SLPC  C21821440   6.175   4.196   8.177 -0.4737  0.2517  1.0051
  186SLPC  H18R21441   6.074   4.209   8.222  0.0074  1.1190  1.8633
  186SLPC  H18S21442   6.224   4.295   8.176  2.1781 -0.9648  1.4672
  186SLPC  H18T21443   6.233   4.128   8.243  0.6750 -1.1397 -1.2784
  186SLPC   C3321444   6.340   4.553   6.865 -0.2808  0.3857  0.1576
  186SLPC   H3X21445   6.367   4.489   6.778 -0.5938  1.6477 -0.9023
  186SLPC   H3Y21446   6.232   4.539   6.889 -1.3343  3.6839 -1.9891
  186SLPC   C3421447   6.436   4.532   6.981  0.2447  0.1244 -0.0366
  186SLPC   H4X21448   6.434   4.623   7.045 -2.5355 -0.2022  0.4628
  186SLPC   H4Y21449   6.538   4.506   6.945  0.3899  1.5907 -0.7613
  186SLPC   C3521450   6.395   4.413   7.080  0.4215 -0.1424 -0.5816
  186SLPC   H5X21451   6.422   4.317   7.032  1.6429 -1.0118  1.6639
  186SLPC   H5Y21452   6.288   4.422   7.106  1.2776  3.8050  2.5776
  186SLPC   C3621453   6.468   4.428   7.217  0.0399  0.0952 -1.3987
  186SLPC   H6X21454   6.573   4.447   7.187 -0.3060  0.9468 -2.0891
  186SLPC   H6Y21455   6.471   4.327   7.264 -0.7059  0.9353  0.5394
  186SLPC   C3721456   6.404   4.526   7.314 -0.2746 -0.3333  0.5968
  186SLPC   H7X21457   6.425   4.634   7.295 -1.0844 -0.1634  0.6292
  186SLPC   H7Y21458   6.450   4.504   7.412 -0.6893 -1.5505  0.5375
  186SLPC   C3821459   6.252   4.512   7.336  0.0572  0.5069  1.2023
  186SLPC   H8X21460   6.226   4.404   7.331 -0.8332  0.7009  1.3625
  186SLPC   H8Y21461   6.186   4.556   7.258  0.9095  1.2278  0.8848
  186SLPC   C3921462   6.207   4.555   7.476  0.6761  0.0731  0.0676
  186SLPC   H9X21463   6.096   4.551   7.478  0.5713  1.5877 -0.9528
  186SLPC   H9Y21464   6.236   4.661   7.494 -0.7949  0.4377  0.4077
  186SLPC  C31021465   6.252   4.460   7.590 -0.4270 -0.1728  0.1696
  186SLPC  H10X21466   6.363   4.469   7.601  0.0002 -0.5701 -3.0177
  186SLPC  H10Y21467   6.234   4.361   7.544  1.1078 -0.4584  0.1048
  186SLPC  C31121468   6.170   4.476   7.718 -0.4445  0.4066  0.0666
  186SLPC  H11X21469   6.214   4.400   7.786 -0.5189 -0.2730 -0.6354
  186SLPC  H11Y21470   6.065   4.446   7.703  0.4511 -2.0257 -1.9298
  186SLPC  C31221471   6.194   4.614   7.778  0.4471  0.1474  1.2563
  186SLPC  H12X21472   6.133   4.695   7.732 -1.1935 -1.7339 -0.0354
  186SLPC  H12Y21473   6.303   4.635   7.773  0.7505 -1.4641  0.6166
  186SLPC  C31321474   6.162   4.608   7.932  0.2800 -0.2054  0.0707
  186SLPC  H13X21475   6.210   4.515   7.971 -1.9884 -1.7329 -0.5819
  186SLPC  H13Y21476   6.052   4.600   7.941  0.1886  0.1060 -0.7265
  186SLPC  C31421477   6.199   4.739   8.006 -0.2333  0.2048  0.2570
  186SLPC  H14X21478   6.141   4.825   7.967  3.0366  2.5480  0.1848
  186SLPC  H14Y21479   6.309   4.750   7.990 -0.1822  0.3123  0.6819
  186SLPC  C31521480   6.168   4.719   8.148  0.6733 -0.1802 -0.2460
  186SLPC  H15X21481   6.063   4.688   8.168  0.7295 -0.2572 -0.0662
  186SLPC  H15Y21482   6.184   4.814   8.203  1.7736 -1.1324  1.1467
  186SLPC  C31621483   6.252   4.612   8.217 -0.1757 -0.1074  0.4395
  186SLPC  H16X21484   6.359   4.635   8.201 -0.5587  0.7757 -0.9933
  186SLPC  H16Y21485   6.247   4.512   8.170  2.1088 -0.5125  0.9201
  186SLPC  C31721486   6.221   4.603   8.372  0.0171  0.2159 -0.3600
  186SLPC  H17X21487   6.207   4.497   8.402  0.0332  0.1621 -0.5434
  186SLPC  H17Y21488   6.122   4.654   8.378  0.8955  1.9049  0.1756
  186SLPC  C31821489   6.334   4.668   8.453  0.2256 -0.5612  0.1284
  186SLPC  H18X21490   6.430   4.616   8.432  1.2047  1.7169 -1.4267
  186SLPC  H18Y21491   6.309   4.674   8.561  2.5009  0.2564  0.6536
  186SLPC  H18Z21492   6.352   4.773   8.421 -2.5269  0.9559  3.0265
  187SLPC     N21493   1.218   3.943   6.144 -0.6590  0.3103 -0.2754
  187SLPC   C1321494   1.354   3.998   6.136  0.5094  0.3460 -0.3151
  187SLPC  H13A21495   1.424   3.930   6.183 -0.3720  0.4974  1.2765
  187SLPC  H13B21496   1.379   4.021   6.033  4.0661 -3.4642 -0.6144
  187SLPC  H13C21497   1.368   4.094   6.183  0.8480  0.2895 -0.2971
  187SLPC   C1421498   1.212   3.817   6.069 -0.1469  0.3724  0.3580
  187SLPC  H14A21499   1.243   3.821   5.965  1.2423 -0.8486  0.6995
  187SLPC  H14B21500   1.289   3.753   6.109 -1.3291 -0.9419  0.5864
  187SLPC  H14C21501   1.121   3.763   6.088 -0.9803  1.2899 -0.8574
  187SLPC   C1521502   1.127   4.038   6.078  0.0650 -0.3095 -0.2342
  187SLPC  H15A21503   1.154   4.140   6.103  1.8125 -0.3440 -1.7718
  187SLPC  H15B21504   1.149   4.035   5.972 -0.7076  0.4290 -0.4344
  187SLPC  H15C21505   1.028   4.017   6.116  0.1459  1.8612  1.3513
  187SLPC   C1221506   1.182   3.921   6.288  0.0860 -0.0208 -0.6468
  187SLPC  H12A21507   1.100   3.851   6.291  1.8762 -2.2956 -2.0190
  187SLPC  H12B21508   1.155   4.017   6.330  2.3440  0.6524 -0.6048
  187SLPC   C1121509   1.288   3.865   6.388  0.6914  0.0287  0.4920
  187SLPC  H11A21510   1.242   3.863   6.489  0.5135  1.5167  0.4579
  187SLPC  H11B21511   1.377   3.930   6.392  2.0902 -1.6085 -1.5663
  187SLPC     P21512   1.265   3.601   6.387 -0.1631 -0.0679 -0.1922
  187SLPC   O1321513   1.156   3.567   6.291  0.4656  0.3527  0.1982
  187SLPC   O1421514   1.380   3.503   6.405  0.4597  0.0541 -0.1315
  187SLPC   O1221515   1.329   3.732   6.354  0.3815  0.5460 -0.0732
  187SLPC   O1121516   1.198   3.631   6.523 -0.4997  0.3256 -0.6571
  187SLPC    C121517   1.279   3.653   6.637  0.0859  0.1095  0.7432
  187SLPC    HA21518   1.386   3.679   6.623  0.7381 -2.9229 -0.8327
  187SLPC    HB21519   1.233   3.727   6.706 -2.0195 -0.5709  0.1555
  187SLPC    C221520   1.282   3.519   6.717 -0.2490 -0.0243 -0.1301
  187SLPC    HS21521   1.333   3.447   6.651  1.9385  0.2714  1.1479
  187SLPC   O2121522   1.149   3.490   6.753  0.2828  0.5380 -1.1068
  187SLPC   C2121523   1.122   3.366   6.798 -0.2399 -0.2747  0.2261
  187SLPC   O2221524   1.200   3.271   6.805  0.6462 -0.1746  0.3234
  187SLPC   C2221525   0.980   3.361   6.845 -0.0246  0.1468  0.6359
  187SLPC   H2R21526   0.914   3.433   6.791 -0.4285 -0.4957  0.2686
  187SLPC   H2S21527   0.947   3.264   6.802  0.0104 -1.3502  3.7518
  187SLPC    C321528   1.369   3.527   6.849  0.3161 -0.0778  0.0607
  187SLPC    HX21529   1.472   3.541   6.810 -0.3496  0.2663 -1.6805
  187SLPC    HY21530   1.365   3.430   6.903  0.7997  0.1760  0.5649
  187SLPC   O3121531   1.333   3.642   6.931  0.0128 -0.6557  0.1708
  187SLPC   C3121532   1.248   3.615   7.036 -0.0988 -0.0075  0.1346
  187SLPC   O3221533   1.208   3.504   7.062  0.1986  0.3121  0.0944
  187SLPC   C3221534   1.203   3.747   7.109  0.2262 -0.1941  0.3267
  187SLPC   H2X21535   1.188   3.816   7.023  0.9343  0.6458  0.8554
  187SLPC   H2Y21536   1.287   3.790   7.168  0.3116  0.9740 -0.5972
  187SLPC   C2321537   0.964   3.356   7.001  0.6335 -0.1684 -0.4657
  187SLPC   H3R21538   0.970   3.458   7.044 -0.1910  0.3612 -1.5338
  187SLPC   H3S21539   1.051   3.304   7.045  1.1039  0.9462 -0.0506
  187SLPC   C2421540   0.835   3.283   7.045 -1.1617 -0.8541 -0.0786
  187SLPC   H4R21541   0.841   3.175   7.018  4.5202 -1.1565  1.1617
  187SLPC   H4S21542   0.761   3.339   6.984  0.5109  2.0118  0.3556
  187SLPC   C2521543   0.823   3.290   7.196  0.1496 -1.4620  0.2994
  187SLPC   H5R21544   0.849   3.394   7.225  2.1377 -2.3705  2.0597
  187SLPC   H5S21545   0.890   3.216   7.243  0.1727 -0.8910  1.1939
  187SLPC   C2621546   0.675   3.266   7.228  0.1149  0.4331  0.1059
  187SLPC   H6R21547   0.640   3.165   7.199 -3.0312  1.3326  0.4137
  187SLPC   H6S21548   0.619   3.339   7.165 -1.0070  0.3093  0.9275
  187SLPC   C2721549   0.628   3.310   7.375 -0.4386  0.2954 -0.5199
  187SLPC   H7R21550   0.522   3.289   7.400  0.2980 -1.6095  1.2954
  187SLPC   H7S21551   0.657   3.415   7.395 -1.7554  0.5801 -0.0612
  187SLPC   C2821552   0.710   3.241   7.490  0.2829  0.3523 -0.6015
  187SLPC   H8R21553   0.650   3.260   7.582 -1.0618 -4.4299 -0.2258
  187SLPC   H8S21554   0.804   3.295   7.515 -0.9642  1.9102  1.0889
  187SLPC   C2921555   0.739   3.094   7.485 -0.1572  0.1396  0.7578
  187SLPC   H9R21556   0.823   3.059   7.424 -1.9753 -1.6058 -0.8945
  187SLPC  C21021557   0.650   2.996   7.514 -0.1155  0.0267  0.3025
  187SLPC  H10R21558   0.674   2.889   7.511 -0.7125 -0.1486  1.2886
  187SLPC  C21121559   0.508   3.019   7.569  0.0866  0.4372  0.6107
  187SLPC  H11R21560   0.448   3.064   7.488 -2.3879 -1.4429  1.2628
  187SLPC  H11S21561   0.505   3.100   7.645  0.3921  1.7776 -0.7608
  187SLPC  C21221562   0.437   2.891   7.608  0.7422  0.3284  0.6807
  187SLPC  H12R21563   0.490   2.814   7.666  0.2500 -1.0379 -0.6048
  187SLPC  C21321564   0.301   2.869   7.580 -0.9122  0.9799  0.7680
  187SLPC  H13R21565   0.247   2.787   7.629 -0.1144 -2.2938 -3.2938
  187SLPC  C21421566   0.214   2.974   7.509  0.0258 -0.0760 -1.0457
  187SLPC  H14R21567   0.243   3.079   7.532 -1.1933 -0.1234  0.9851
  187SLPC  H14S21568   0.112   2.961   7.552  1.0546 -0.4878  1.4520
  187SLPC  C21521569   0.212   2.965   7.354  0.0101  0.0344  0.0249
  187SLPC  H15R21570   0.173   2.867   7.319  0.7566 -0.3059  0.1252
  187SLPC  H15S21571   0.315   2.963   7.312 -0.5923  0.2738 -1.5469
  187SLPC  C21621572   0.112   3.061   7.281 -0.4606  0.3387  0.2015
  187SLPC  H16R21573   0.113   3.168   7.312  1.0014  0.6484 -0.8099
  187SLPC  H16S21574   0.013   3.013   7.299  0.7986 -2.2777  0.5311
  187SLPC  C21721575   0.141   3.073   7.133  0.2782  0.2107  0.1733
  187SLPC  H17R21576   0.051   3.101   7.074 -0.6851 -2.5240  0.1748
  187SLPC  H17S21577   0.166   2.973   7.092  2.8499  1.0218 -0.3805
  187SLPC  C21821578   0.248   3.172   7.104  0.3043 -0.4453 -0.1562
  187SLPC  H18R21579   0.216   3.267   7.153  0.6592 -0.2048 -0.3843
  187SLPC  H18S21580   0.262   3.188   6.995  0.5843 -4.7296 -0.9222
  187SLPC  H18T21581   0.344   3.147   7.154  1.0928  2.5711  0.0173
  187SLPC   C3321582   1.083   3.732   7.194 -0.2971  0.0576 -1.0325
  187SLPC   H3X21583   1.009   3.658   7.159 -0.2161 -1.7250  2.1423
  187SLPC   H3Y21584   1.042   3.834   7.207  1.5568  0.7680 -0.3825
  187SLPC   C3421585   1.131   3.690   7.328 -0.0819 -0.4595 -0.0764
  187SLPC   H4X21586   1.201   3.768   7.365  0.1557  0.2117 -1.8188
  187SLPC   H4Y21587   1.194   3.599   7.315  1.2077  0.0608  1.9939
  187SLPC   C3521588   1.012   3.659   7.427 -0.0166 -0.0702 -0.1056
  187SLPC   H5X21589   0.940   3.588   7.382 -0.4370 -1.4944  2.6376
  187SLPC   H5Y21590   0.949   3.750   7.437  2.3931  1.8204 -1.0963
  187SLPC   C3621591   1.057   3.610   7.564  0.0318 -0.5211 -0.4036
  187SLPC   H6X21592   1.147   3.669   7.589 -0.4230  0.3310 -0.7329
  187SLPC   H6Y21593   1.076   3.501   7.575  0.8447 -0.5731 -2.0815
  187SLPC   C3721594   0.949   3.634   7.672 -0.2318 -0.3240  0.0991
  187SLPC   H7X21595   0.997   3.616   7.771  0.8249 -0.5117 -0.4364
  187SLPC   H7Y21596   0.919   3.739   7.651  1.6392  0.3941  0.7697
  187SLPC   C3821597   0.835   3.532   7.665  0.2195 -0.3693 -0.3011
  187SLPC   H8X21598   0.865   3.432   7.702 -1.3387 -0.7213  0.0752
  187SLPC   H8Y21599   0.804   3.525   7.558  0.9722 -1.7110 -0.4507
  187SLPC   C3921600   0.725   3.581   7.762 -0.2010 -0.3507 -0.4433
  187SLPC   H9X21601   0.674   3.670   7.719  0.8825 -0.3066 -1.6987
  187SLPC   H9Y21602   0.783   3.627   7.845  1.3954  0.9727 -2.2143
  187SLPC  C31021603   0.609   3.479   7.800 -0.7541  0.3493  0.2229
  187SLPC  H10X21604   0.553   3.449   7.709  0.5359 -0.1607 -0.4272
  187SLPC  H10Y21605   0.539   3.528   7.871 -1.2362 -1.1440  0.8001
  187SLPC  C31121606   0.662   3.353   7.873 -0.0997 -0.0321  0.9100
  187SLPC  H11X21607   0.741   3.389   7.942  2.5645 -2.0195 -0.9274
  187SLPC  H11Y21608   0.726   3.289   7.808  1.0892 -0.3261  2.3109
  187SLPC  C31221609   0.542   3.274   7.920 -0.2819 -0.0622 -0.4382
  187SLPC  H12X21610   0.492   3.235   7.829 -1.6295 -0.0921  0.2921
  187SLPC  H12Y21611   0.461   3.334   7.966  0.3431 -0.4691  1.2655
  187SLPC  C31321612   0.567   3.157   8.023 -0.3848 -0.8964  0.2744
  187SLPC  H13X21613   0.611   3.212   8.109 -0.9137  0.6011 -0.3742
  187SLPC  H13Y21614   0.647   3.099   7.973  2.6752  4.2456 -1.6113
  187SLPC  C31421615   0.445   3.071   8.049  0.2310  0.5278  0.0011
  187SLPC  H14X21616   0.445   2.986   7.978  1.3912 -1.3147  2.0683
  187SLPC  H14Y21617   0.346   3.118   8.032 -0.6502 -1.7248 -1.6189
  187SLPC  C31521618   0.456   2.994   8.182  0.0773  0.3935  0.1751
  187SLPC  H15X21619   0.426   3.061   8.265  0.7715  0.8034  0.0979
  187SLPC  H15Y21620   0.561   2.964   8.204 -0.6496 -2.8661 -0.2367
  187SLPC  C31621621   0.359   2.878   8.179  0.0206  0.2647  0.2895
  187SLPC  H16X21622   0.386   2.825   8.085  0.5451  1.9146 -0.5137
  187SLPC  H16Y21623   0.253   2.911   8.179 -0.3187 -0.7737 -0.2649
  187SLPC  C31721624   0.386   2.776   8.292  0.6168 -0.1356  0.0526
  187SLPC  H17X21625   0.493   2.746   8.291  0.1737 -1.7664 -0.1848
  187SLPC  H17Y21626   0.310   2.696   8.282  0.4301 -0.1680  1.4939
  187SLPC  C31821627   0.348   2.827   8.436 -0.5262 -0.2480  0.0687
  187SLPC  H18X21628   0.416   2.912   8.460 -2.7776  1.3813  1.0089
  187SLPC  H18Y21629   0.361   2.755   8.519 -1.2418 -1.6009 -0.9530
  187SLPC  H18Z21630   0.248   2.874   8.443  0.0938  1.0157  0.7234
  188SLPC     N21631   5.044   6.103   5.997 -0.2345  0.3103 -0.9956
  188SLPC   C1321632   4.966   5.996   5.926  0.2892 -0.2818  0.6234
  188SLPC  H13A21633   4.860   6.010   5.940  0.2825 -0.6231  0.9499
  188SLPC  H13B21634   4.989   5.983   5.821 -0.3793  0.3715  0.3894
  188SLPC  H13C21635   4.972   5.892   5.956 -1.2014 -1.4935 -2.7425
  188SLPC   C1421636   5.020   6.223   5.917 -0.0833  0.2905  0.0367
  188SLPC  H14A21637   4.918   6.257   5.928  0.2859  1.1373  1.0488
  188SLPC  H14B21638   5.084   6.301   5.955  2.2594 -2.6559  2.7281
  188SLPC  H14C21639   5.051   6.216   5.814 -1.1163 -0.9944 -0.2190
  188SLPC   C1521640   5.186   6.065   5.990  0.0914  0.6984 -0.5133
  188SLPC  H15A21641   5.236   6.132   6.058  1.5303  0.0875 -0.9342
  188SLPC  H15B21642   5.195   5.961   6.018 -0.5358  0.3722 -1.4540
  188SLPC  H15C21643   5.230   6.078   5.892  0.4746 -4.4761 -1.2897
  188SLPC   C1221644   5.000   6.117   6.141  0.2455 -0.4509  0.0696
  188SLPC  H12A21645   4.900   6.157   6.149 -0.3758 -1.3129 -2.3239
  188SLPC  H12B21646   5.058   6.187   6.199 -0.9206  0.7270 -0.1380
  188SLPC   C1121647   4.991   5.985   6.226  0.2465  0.0135  0.2744
  188SLPC  H11A21648   4.995   6.017   6.333 -0.0562 -0.4327  0.4191
  188SLPC  H11B21649   5.089   5.935   6.212  0.6223  1.1320 -1.3336
  188SLPC     P21650   4.758   5.886   6.281  0.4661  0.3795 -0.0522
  188SLPC   O1321651   4.677   6.009   6.272 -0.5501  0.0173  0.1041
  188SLPC   O1421652   4.684   5.755   6.260  0.0446 -0.1065  0.1427
  188SLPC   O1221653   4.885   5.904   6.186 -0.4006  0.2978  0.1316
  188SLPC   O1121654   4.819   5.890   6.425  0.4887  0.1178  0.1229
  188SLPC    C121655   4.841   5.781   6.502  0.5013  0.4362 -0.1138
  188SLPC    HA21656   4.754   5.711   6.504 -0.3435  1.4656  2.1889
  188SLPC    HB21657   4.922   5.721   6.456  0.2072  1.2515 -1.7779
  188SLPC    C221658   4.889   5.800   6.648 -0.4734  0.3157 -0.3040
  188SLPC    HS21659   4.796   5.815   6.706 -0.0539 -1.8776  1.0450
  188SLPC   O2121660   4.990   5.906   6.645 -0.2596 -0.1937 -0.5007
  188SLPC   C2121661   4.935   6.026   6.681 -0.5263  0.8098  0.0187
  188SLPC   O2221662   4.816   6.041   6.713  0.0698 -0.3683  0.5202
  188SLPC   C2221663   5.044   6.129   6.698  0.2548  0.2574 -0.3714
  188SLPC   H2R21664   5.102   6.112   6.604 -0.5007 -0.1723 -0.7660
  188SLPC   H2S21665   4.996   6.229   6.701 -0.3618 -0.0602  1.5037
  188SLPC    C321666   4.959   5.673   6.704 -0.7403 -0.3048 -0.4013
  188SLPC    HX21667   5.039   5.636   6.636 -0.6541 -2.0982  0.6174
  188SLPC    HY21668   4.877   5.597   6.698 -0.0781 -0.9533 -1.9250
  188SLPC   O3121669   5.001   5.686   6.844 -0.5625  0.3939  0.8926
  188SLPC   C3121670   5.130   5.718   6.867  0.4184 -0.1134 -0.4842
  188SLPC   O3221671   5.226   5.710   6.797  0.3620  0.3243 -0.3444
  188SLPC   C3221672   5.140   5.715   7.023 -0.1188 -0.0486 -0.0272
  188SLPC   H2X21673   5.212   5.797   7.042  0.9463 -0.0594 -3.4637
  188SLPC   H2Y21674   5.197   5.623   7.052 -2.0264 -1.6153 -0.9984
  188SLPC   C2321675   5.145   6.120   6.815  0.6322  0.2430  0.1630
  188SLPC   H3R21676   5.242   6.168   6.792 -0.1285  0.6254 -2.6777
  188SLPC   H3S21677   5.175   6.017   6.843  2.7589  0.5924 -0.6497
  188SLPC   C2421678   5.081   6.184   6.939 -0.6656  0.3727 -0.3927
  188SLPC   H4R21679   5.009   6.106   6.970  1.2076 -1.1347  0.3784
  188SLPC   H4S21680   5.029   6.281   6.924  0.2803  0.9936  0.2532
  188SLPC   C2521681   5.166   6.208   7.069  0.4286 -1.1113 -1.0088
  188SLPC   H5R21682   5.234   6.296   7.068 -0.3857 -0.4581 -2.4082
  188SLPC   H5S21683   5.225   6.118   7.098  1.2238 -0.6283 -1.0789
  188SLPC   C2621684   5.056   6.232   7.183 -0.2101 -0.7102  0.4259
  188SLPC   H6R21685   5.101   6.207   7.282  0.0134 -0.3988  0.4054
  188SLPC   H6S21686   4.975   6.160   7.159 -1.7361  1.5397 -1.6797
  188SLPC   C2721687   4.986   6.370   7.181 -0.6766  0.2705  0.0376
  188SLPC   H7R21688   4.964   6.389   7.074  3.5671 -0.5824 -1.1792
  188SLPC   H7S21689   5.064   6.444   7.209  0.2335 -1.1020  1.2768
  188SLPC   C2821690   4.860   6.382   7.273 -0.1141  0.6944  0.4414
  188SLPC   H8R21691   4.817   6.483   7.256  0.8100  0.7990 -1.6071
  188SLPC   H8S21692   4.906   6.383   7.374 -0.4650  0.5920  0.6032
  188SLPC   C2921693   4.752   6.282   7.266  0.2251  0.5544 -0.0911
  188SLPC   H9R21694   4.739   6.214   7.180 -1.5848  0.2882  0.3495
  188SLPC  C21021695   4.663   6.251   7.362  0.8361 -0.5440  0.4826
  188SLPC  H10R21696   4.571   6.198   7.336 -0.3490  2.1678 -1.3159
  188SLPC  C21121697   4.654   6.337   7.489 -0.0381 -0.0932 -0.3505
  188SLPC  H11R21698   4.757   6.359   7.525  0.9328 -0.0239 -2.9725
  188SLPC  H11S21699   4.604   6.284   7.574  1.2720 -1.0462 -0.1346
  188SLPC  C21221700   4.579   6.464   7.461 -0.4126  0.1243 -0.0806
  188SLPC  H12R21701   4.515   6.475   7.373  1.0139  1.4182 -1.0078
  188SLPC  C21321702   4.581   6.563   7.555 -0.5843  0.0862  0.7133
  188SLPC  H13R21703   4.547   6.662   7.521  0.2839 -0.3937 -1.8025
  188SLPC  C21421704   4.651   6.549   7.687 -0.0384  0.5704 -0.0865
  188SLPC  H14R21705   4.671   6.441   7.702 -0.4096  0.5537  0.3010
  188SLPC  H14S21706   4.586   6.579   7.772  1.0194  1.9762  0.2794
  188SLPC  C21521707   4.785   6.626   7.686 -0.2882  0.0845 -0.2532
  188SLPC  H15R21708   4.765   6.727   7.645  0.3869  0.0935 -0.5629
  188SLPC  H15S21709   4.856   6.580   7.615 -0.1431  1.8078 -1.2749
  188SLPC  C21621710   4.866   6.628   7.820  0.4299 -0.0534  0.2552
  188SLPC  H16R21711   4.891   6.523   7.848 -1.4885 -0.6328 -0.0575
  188SLPC  H16S21712   4.806   6.671   7.903  1.2341  2.7712 -0.5077
  188SLPC  C21721713   4.990   6.715   7.813  0.0151  0.2292 -0.2605
  188SLPC  H17R21714   5.050   6.670   7.730 -0.3966 -0.7916 -0.0273
  188SLPC  H17S21715   5.045   6.699   7.908 -1.3278  1.3783  0.7339
  188SLPC  C21821716   4.971   6.863   7.780  0.0174 -0.0253 -0.2929
  188SLPC  H18R21717   4.906   6.879   7.692 -1.1936 -0.2368  0.5338
  188SLPC  H18S21718   5.068   6.909   7.751  1.2646 -0.5939  2.6188
  188SLPC  H18T21719   4.932   6.925   7.864  1.5869  0.0598  0.4179
  188SLPC   C3321720   5.003   5.721   7.097  0.7096 -0.3266  0.8719
  188SLPC   H3X21721   4.931   5.636   7.089  1.6656 -1.0886  0.1142
  188SLPC   H3Y21722   4.958   5.815   7.057 -2.4517 -2.4697 -1.0900
  188SLPC   C3421723   5.037   5.742   7.244 -0.0231 -0.2490 -0.1829
  188SLPC   H4X21724   5.101   5.833   7.251 -1.1053  0.5967 -0.9392
  188SLPC   H4Y21725   5.104   5.663   7.283 -0.2054  0.1672  1.0357
  188SLPC   C3521726   4.902   5.753   7.327 -0.1289  0.3722  0.2280
  188SLPC   H5X21727   4.866   5.649   7.343 -1.4910 -0.0687 -4.3582
  188SLPC   H5Y21728   4.832   5.807   7.260 -0.4769 -0.4767 -0.1165
  188SLPC   C3621729   4.935   5.819   7.463  0.3019  0.1845 -0.0104
  188SLPC   H6X21730   5.030   5.771   7.493 -0.2697  0.0345  1.7157
  188SLPC   H6Y21731   4.873   5.788   7.550  4.5484 -1.4397  2.7651
  188SLPC   C3721732   4.929   5.973   7.444  0.3826 -1.1273  0.0330
  188SLPC   H7X21733   4.822   5.999   7.458 -0.0150 -2.4808 -0.2689
  188SLPC   H7Y21734   4.958   6.005   7.342 -0.7348  4.0304  1.0275
  188SLPC   C3821735   5.008   6.061   7.549  0.2927  0.3625  0.1986
  188SLPC   H8X21736   4.983   6.169   7.540  0.6404  0.3962 -0.3576
  188SLPC   H8Y21737   5.117   6.047   7.534  0.7612  0.6982  2.7901
  188SLPC   C3921738   4.988   6.031   7.701  0.6579  0.1854  0.1478
  188SLPC   H9X21739   5.000   5.924   7.730  0.3260  0.7385  2.5923
  188SLPC   H9Y21740   4.880   6.051   7.717  0.7587  0.3153  0.6957
  188SLPC  C31021741   5.074   6.115   7.790 -0.3299  0.3411 -0.6676
  188SLPC  H10X21742   5.092   6.210   7.735 -1.8472  1.3616  0.5251
  188SLPC  H10Y21743   5.172   6.067   7.811  0.0895  1.7266  0.6740
  188SLPC  C31121744   5.005   6.147   7.929  0.0483 -0.2475  0.3510
  188SLPC  H11X21745   4.975   6.051   7.973  0.8295 -0.5105  0.3273
  188SLPC  H11Y21746   4.915   6.211   7.916  0.3916  0.0976 -0.4010
  188SLPC  C31221747   5.095   6.226   8.019 -0.3122 -0.7713 -0.2191
  188SLPC  H12X21748   5.121   6.328   7.985 -0.2587 -0.1497  1.5657
  188SLPC  H12Y21749   5.186   6.167   8.040 -2.0071 -2.9840  1.4627
  188SLPC  C31321750   5.018   6.248   8.155 -0.5294  0.0364 -0.0234
  188SLPC  H13X21751   4.984   6.154   8.204  0.6188 -0.5768 -0.3772
  188SLPC  H13Y21752   4.922   6.290   8.119 -1.7823 -1.9843  0.8102
  188SLPC  C31421753   5.093   6.341   8.255 -0.8039 -0.4551  0.0505
  188SLPC  H14X21754   5.196   6.301   8.269 -0.0608  1.6990  1.0611
  188SLPC  H14Y21755   5.042   6.319   8.352  1.7937  0.5080  1.7267
  188SLPC  C31521756   5.082   6.491   8.224 -0.4452 -1.2188 -0.5224
  188SLPC  H15X21757   4.984   6.508   8.175 -0.5328  0.8680  0.2924
  188SLPC  H15Y21758   5.149   6.509   8.137 -0.5317  1.5922 -0.0994
  188SLPC  C31621759   5.122   6.581   8.344  0.1228 -0.0590 -0.7448
  188SLPC  H16X21760   5.220   6.542   8.382 -0.3480 -0.2603  0.3016
  188SLPC  H16Y21761   5.048   6.567   8.426  1.3096 -1.6343  0.1340
  188SLPC  C31721762   5.123   6.732   8.311  0.0014  0.1744 -0.2311
  188SLPC  H17X21763   5.017   6.763   8.295 -0.9862 -2.2108  1.1184
  188SLPC  H17Y21764   5.173   6.749   8.213  2.1510 -0.7376  0.6542
  188SLPC  C31821765   5.186   6.826   8.416 -0.0627  0.1988  0.3604
  188SLPC  H18X21766   5.144   6.808   8.517 -0.2039 -1.1427  0.0856
  188SLPC  H18Y21767   5.193   6.926   8.369  0.2145 -0.4137 -0.9668
  188SLPC  H18Z21768   5.289   6.784   8.422  2.2532  5.1514  0.2929
  189SLPC     N21769   6.127   0.436   6.014  0.2119 -1.0109 -0.7297
  189SLPC   C1321770   6.025   0.496   5.922  0.4353  0.2037 -0.2588
  189SLPC  H13A21771   5.970   0.561   5.988  1.5721 -0.1167  1.0488
  189SLPC  H13B21772   6.071   0.563   5.850  0.3391  1.4833  0.8330
  189SLPC  H13C21773   5.961   0.418   5.886  0.2226 -1.7314  3.7756
  189SLPC   C1421774   6.210   0.540   6.071  0.1334 -0.5251 -0.3132
  189SLPC  H14A21775   6.295   0.498   6.123  0.7726  0.3473 -0.6346
  189SLPC  H14B21776   6.251   0.605   5.995 -1.1297  2.5637  1.4381
  189SLPC  H14C21777   6.166   0.607   6.144 -0.0011 -0.2215 -0.6697
  189SLPC   C1521778   6.214   0.346   5.930  0.5756  0.4379  0.3330
  189SLPC  H15A21779   6.152   0.272   5.881  0.9559 -0.1881  0.7869
  189SLPC  H15B21780   6.278   0.395   5.858  1.6880  1.6955  2.1148
  189SLPC  H15C21781   6.283   0.290   5.991  0.4061  0.3681  0.4624
  189SLPC   C1221782   6.059   0.364   6.129  0.5620  0.1082  0.3464
  189SLPC  H12A21783   6.112   0.318   6.211 -0.7733 -0.8407  0.7024
  189SLPC  H12B21784   5.994   0.285   6.095  0.1882  0.2366  0.7474
  189SLPC   C1121785   5.957   0.450   6.216 -0.4158  0.4083 -0.5248
  189SLPC  H11A21786   6.002   0.547   6.244  0.2509 -0.2331  0.7039
  189SLPC  H11B21787   5.955   0.386   6.307  1.9454 -0.5344 -1.0607
  189SLPC     P21788   5.719   0.362   6.167  0.1544 -0.3031 -0.2292
  189SLPC   O1321789   5.608   0.397   6.077  0.6520  0.5617 -0.1467
  189SLPC   O1421790   5.771   0.225   6.141 -0.2781  0.2524 -0.1293
  189SLPC   O1221791   5.838   0.472   6.146 -0.0580 -0.2316 -0.0330
  189SLPC   O1121792   5.666   0.378   6.317  0.1964  0.5402  0.3648
  189SLPC    C121793   5.645   0.510   6.369 -0.4399  0.4909  0.0064
  189SLPC    HA21794   5.675   0.599   6.311 -2.0994 -0.5884 -2.6677
  189SLPC    HB21795   5.537   0.515   6.394 -0.6139 -0.0773 -0.5987
  189SLPC    C221796   5.721   0.526   6.503 -0.7602  0.0565 -0.8127
  189SLPC    HS21797   5.830   0.508   6.489 -0.6482 -0.1781  0.3182
  189SLPC   O2121798   5.665   0.448   6.608 -0.1624  0.7307 -0.8351
  189SLPC   C2121799   5.691   0.316   6.610  0.7775 -0.6290  0.0721
  189SLPC   O2221800   5.771   0.257   6.544  0.1438 -0.1005  0.3405
  189SLPC   C2221801   5.598   0.253   6.710  0.3496 -0.2146  0.1163
  189SLPC   H2R21802   5.494   0.254   6.671  0.5658 -0.8875 -0.4957
  189SLPC   H2S21803   5.631   0.146   6.714  1.2916  0.0938  1.0935
  189SLPC    C321804   5.708   0.674   6.549  0.1379 -0.3327  0.2673
  189SLPC    HX21805   5.604   0.710   6.532 -0.9597 -2.2944  2.2567
  189SLPC    HY21806   5.770   0.738   6.484 -0.2121 -0.3290 -0.0707
  189SLPC   O3121807   5.741   0.697   6.685 -0.2413  0.3834  0.1976
  189SLPC   C3121808   5.868   0.686   6.719  0.3187 -0.6068  0.4343
  189SLPC   O3221809   5.959   0.666   6.637 -0.3685  0.2989 -0.0791
  189SLPC   C3221810   5.887   0.699   6.871  0.1256  0.2471 -0.1501
  189SLPC   H2X21811   5.877   0.807   6.894 -1.7054  0.2355 -0.7916
  189SLPC   H2Y21812   5.989   0.662   6.895  1.3073  3.1730 -0.2370
  189SLPC   C2321813   5.603   0.309   6.854 -0.1471 -0.0993 -0.4324
  189SLPC   H3R21814   5.569   0.414   6.867 -2.7937 -1.1754  2.6838
  189SLPC   H3S21815   5.704   0.283   6.893 -1.0498 -2.0081  0.8034
  189SLPC   C2421816   5.513   0.232   6.956  0.3226  0.2311 -0.8136
  189SLPC   H4R21817   5.540   0.126   6.972 -1.9156 -0.1489  0.8741
  189SLPC   H4S21818   5.413   0.224   6.909 -0.7643 -0.4784  1.4566
  189SLPC   C2521819   5.491   0.292   7.095  0.0849 -0.1031  0.2292
  189SLPC   H5R21820   5.434   0.387   7.083 -1.1484 -0.6848  1.2169
  189SLPC   H5S21821   5.590   0.323   7.134  0.2313  2.5072 -1.9266
  189SLPC   C2621822   5.423   0.206   7.194  0.0747 -0.0667 -0.0446
  189SLPC   H6R21823   5.475   0.110   7.214  1.2620  0.0861 -2.1783
  189SLPC   H6S21824   5.326   0.184   7.144  0.7674 -0.0249 -1.4282
  189SLPC   C2721825   5.406   0.265   7.339 -0.2894  0.2941  0.2019
  189SLPC   H7R21826   5.339   0.354   7.341 -2.2805 -1.1159  3.1704
  189SLPC   H7S21827   5.502   0.315   7.364 -0.3121  2.1359 -2.8069
  189SLPC   C2821828   5.384   0.176   7.463  0.2548  0.4182 -0.5882
  189SLPC   H8R21829   5.452   0.088   7.457  1.4113  1.3144 -1.1519
  189SLPC   H8S21830   5.282   0.135   7.446  1.2019 -2.3571 -0.0966
  189SLPC   C2921831   5.390   0.237   7.600  0.7530 -0.1935  0.0174
  189SLPC   H9R21832   5.348   0.338   7.592 -1.8908 -1.1750  0.4176
  189SLPC  C21021833   5.455   0.196   7.715 -0.0949  0.1195  0.0910
  189SLPC  H10R21834   5.444   0.260   7.804 -0.0212  0.3539 -0.0678
  189SLPC  C21121835   5.530   0.067   7.730  0.2930 -0.0220 -0.4927
  189SLPC  H11R21836   5.604   0.080   7.812  0.3732 -1.4261 -0.3235
  189SLPC  H11S21837   5.577   0.054   7.630 -3.4889 -0.4679 -2.4095
  189SLPC  C21221838   5.431  -0.047   7.754 -0.0713  0.2371 -0.3025
  189SLPC  H12R21839   5.361  -0.065   7.671  1.0813  1.8680 -1.6989
  189SLPC  C21321840   5.431  -0.131   7.860  0.5145  0.3910 -0.0118
  189SLPC  H13R21841   5.364  -0.218   7.853  1.0254 -0.1688  1.6489
  189SLPC  C21421842   5.528  -0.131   7.977 -0.0071 -0.3879 -0.6734
  189SLPC  H14R21843   5.609  -0.056   7.983 -0.5547  0.1031  1.2591
  189SLPC  H14S21844   5.582  -0.227   7.980  0.6220 -0.0708 -1.4684
  189SLPC  C21521845   5.441  -0.106   8.105  0.0727  0.3466 -0.9155
  189SLPC  H15R21846   5.356  -0.177   8.109  1.9143 -1.9525  2.1369
  189SLPC  H15S21847   5.407   0.000   8.103  0.3982  0.4442 -1.5165
  189SLPC  C21621848   5.523  -0.130   8.228 -0.0539  0.5171 -0.3865
  189SLPC  H16R21849   5.492  -0.059   8.307  1.6428  1.3610 -0.4381
  189SLPC  H16S21850   5.627  -0.101   8.202  0.7482  0.3899  2.3842
  189SLPC  C21721851   5.522  -0.279   8.276 -0.2566 -0.0505 -0.1748
  189SLPC  H17R21852   5.602  -0.335   8.224 -0.9220 -0.8189 -0.3964
  189SLPC  H17S21853   5.420  -0.317   8.251  0.3462 -0.7923 -1.6318
  189SLPC  C21821854   5.526  -0.294   8.428 -0.0716  0.6339  0.1805
  189SLPC  H18R21855   5.520  -0.398   8.466 -0.0201  0.0037 -1.4507
  189SLPC  H18S21856   5.438  -0.239   8.468  0.1041 -0.3031  1.9033
  189SLPC  H18T21857   5.603  -0.231   8.478  1.0078 -0.3647 -0.1893
  189SLPC   C3321858   5.787   0.612   6.955 -0.1815  0.1214 -0.5733
  189SLPC   H3X21859   5.785   0.506   6.922  1.9125 -0.1194 -0.0982
  189SLPC   H3Y21860   5.684   0.645   6.934 -0.4195 -1.0788 -1.4013
  189SLPC   C3421861   5.815   0.622   7.107  0.4444  1.1771 -0.1987
  189SLPC   H4X21862   5.925   0.606   7.116  0.4246 -0.2664 -1.9769
  189SLPC   H4Y21863   5.768   0.537   7.160  0.0171  2.1603  1.0543
  189SLPC   C3521864   5.768   0.753   7.164  0.3288 -0.1473 -0.5930
  189SLPC   H5X21865   5.660   0.760   7.141 -0.1681 -0.1469  1.5308
  189SLPC   H5Y21866   5.823   0.836   7.114 -0.2717  1.4783  1.3367
  189SLPC   C3621867   5.793   0.776   7.312  0.0988 -0.7180 -0.7535
  189SLPC   H6X21868   5.732   0.863   7.345 -2.9057 -3.2884  1.0558
  189SLPC   H6Y21869   5.900   0.792   7.334 -0.3004 -0.1287  0.9466
  189SLPC   C3721870   5.754   0.659   7.405 -0.0869  0.0206  0.3270
  189SLPC   H7X21871   5.831   0.579   7.392 -1.0530 -0.8239 -0.3755
  189SLPC   H7Y21872   5.663   0.599   7.385  1.4316 -2.2061 -0.2621
  189SLPC   C3821873   5.752   0.682   7.557 -0.2316 -0.6401  0.4189
  189SLPC   H8X21874   5.690   0.773   7.577  1.7488  1.0726 -0.7992
  189SLPC   H8Y21875   5.856   0.702   7.589  0.0868 -0.3956 -0.7243
  189SLPC   C3921876   5.698   0.570   7.639  0.4027 -0.0616 -0.4751
  189SLPC   H9X21877   5.765   0.481   7.635 -1.5003 -1.5883 -0.1566
  189SLPC   H9Y21878   5.605   0.534   7.590  0.9382 -1.4813 -0.5222
  189SLPC  C31021879   5.665   0.616   7.783 -0.1287 -0.2325 -0.7523
  189SLPC  H10X21880   5.591   0.698   7.780 -0.0607  0.1211  2.9245
  189SLPC  H10Y21881   5.755   0.635   7.845  0.6870  3.1525 -2.7287
  189SLPC  C31121882   5.590   0.497   7.856  0.0992 -0.2575 -0.0109
  189SLPC  H11X21883   5.620   0.394   7.827  1.7324 -1.0163  3.8240
  189SLPC  H11Y21884   5.483   0.500   7.826  0.4525  0.0354 -1.3305
  189SLPC  C31221885   5.601   0.517   8.005 -0.1604  0.4741 -0.0074
  189SLPC  H12X21886   5.558   0.616   8.031 -0.9349  0.6467 -1.8040
  189SLPC  H12Y21887   5.710   0.514   8.029 -0.4286 -0.6338  1.2438
  189SLPC  C31321888   5.533   0.408   8.084  0.3659  0.2153 -1.2519
  189SLPC  H13X21889   5.539   0.313   8.028 -0.4448 -1.0897  0.7764
  189SLPC  H13Y21890   5.425   0.431   8.078 -0.0800 -2.0263 -2.7765
  189SLPC  C31421891   5.570   0.389   8.233  0.1012 -0.7953 -1.1659
  189SLPC  H14X21892   5.680   0.385   8.243  0.2596 -1.1925 -2.8844
  189SLPC  H14Y21893   5.530   0.287   8.253  0.6820 -1.1355 -1.7154
  189SLPC  C31521894   5.513   0.499   8.325  0.1078 -0.6030 -0.2306
  189SLPC  H15X21895   5.402   0.491   8.317 -0.2335  2.5280  0.0776
  189SLPC  H15Y21896   5.543   0.597   8.282 -0.4043 -1.4499 -2.6504
  189SLPC  C31621897   5.556   0.487   8.472 -0.7252  0.8304  0.7261
  189SLPC  H16X21898   5.666   0.505   8.477 -0.8069  1.1514  1.4480
  189SLPC  H16Y21899   5.529   0.385   8.508  1.0635 -0.4465 -1.2207
  189SLPC  C31721900   5.490   0.599   8.551  0.1266  0.1371  0.4603
  189SLPC  H17X21901   5.381   0.579   8.554 -0.3622  2.0410 -1.6319
  189SLPC  H17Y21902   5.503   0.696   8.498 -1.3869 -1.2316 -2.6793
  189SLPC  C31821903   5.537   0.614   8.697 -0.1495 -0.4272  0.1828
  189SLPC  H18X21904   5.509   0.517   8.744  2.1292 -2.2495 -1.9652
  189SLPC  H18Y21905   5.484   0.702   8.740 -1.5299 -0.7520 -0.7905
  189SLPC  H18Z21906   5.645   0.627   8.721 -0.1862 -0.1878  0.2214
  190SLPC     N21907   5.130   1.497   6.149  0.0036  0.9466  0.0701
  190SLPC   C1321908   5.061   1.613   6.211 -0.2571 -0.1149 -0.1402
  190SLPC  H13A21909   5.115   1.651   6.296  2.0456  0.3576 -1.7289
  190SLPC  H13B21910   5.035   1.695   6.146 -2.5235  1.7924  2.8807
  190SLPC  H13C21911   4.959   1.582   6.229 -0.6013  1.2251  0.3703
  190SLPC   C1421912   5.158   1.399   6.260  0.3427 -0.5610 -0.2565
  190SLPC  H14A21913   5.067   1.374   6.312 -0.3560 -0.8105 -1.5451
  190SLPC  H14B21914   5.202   1.309   6.220 -0.6635 -0.4767 -1.6654
  190SLPC  H14C21915   5.212   1.450   6.338 -0.9315 -0.5589  0.6559
  190SLPC   C1521916   5.257   1.533   6.075 -0.6096 -0.2351  0.5702
  190SLPC  H15A21917   5.327   1.578   6.144  1.1055  0.9823 -1.7931
  190SLPC  H15B21918   5.309   1.447   6.035 -0.9839 -0.8984  1.4985
  190SLPC  H15C21919   5.241   1.615   6.006  0.6084  0.1929  0.7747
  190SLPC   C1221920   5.034   1.426   6.052 -0.4972 -0.4336 -0.9172
  190SLPC  H12A21921   5.082   1.338   6.011 -2.2971 -2.0830  0.3245
  190SLPC  H12B21922   5.016   1.493   5.969  3.6924  0.1240 -1.5903
  190SLPC   C1121923   4.896   1.377   6.103  0.0669  0.1409 -0.4570
  190SLPC  H11A21924   4.908   1.314   6.194 -0.7586  0.7473  0.0843
  190SLPC  H11B21925   4.852   1.323   6.017  1.0678  0.4999 -1.2220
  190SLPC     P21926   4.670   1.516   6.109  0.0967  0.4214  0.3889
  190SLPC   O1321927   4.651   1.582   5.975  0.0372  0.6599  0.6619
  190SLPC   O1421928   4.608   1.382   6.128 -0.4602 -0.1351 -0.2937
  190SLPC   O1221929   4.823   1.498   6.132  0.0375  0.0169 -0.4394
  190SLPC   O1121930   4.619   1.603   6.222  0.3501 -0.6411 -0.3856
  190SLPC    C121931   4.694   1.631   6.343  0.0761  0.5639  0.7297
  190SLPC    HA21932   4.793   1.677   6.321 -1.6393  4.7940  0.9964
  190SLPC    HB21933   4.645   1.716   6.396  0.5610 -0.0787  2.2896
  190SLPC    C221934   4.699   1.521   6.445 -0.3011 -0.2711  0.0293
  190SLPC    HS21935   4.733   1.429   6.393 -0.1592  0.2014 -0.7257
  190SLPC   O2121936   4.568   1.504   6.500  0.3280  0.1712  0.3231
  190SLPC   C2121937   4.543   1.385   6.542  0.3153 -0.2787 -0.2874
  190SLPC   O2221938   4.611   1.285   6.520 -0.3093  0.2490 -0.0994
  190SLPC   C2221939   4.418   1.383   6.625 -0.5186 -0.3894 -0.1688
  190SLPC   H2R21940   4.393   1.484   6.664  2.1169 -1.1323  4.0216
  190SLPC   H2S21941   4.333   1.350   6.561  0.3465 -1.4570 -0.8065
  190SLPC    C321942   4.811   1.551   6.545  0.1165 -0.2488 -0.6205
  190SLPC    HX21943   4.790   1.646   6.599  0.8456 -1.3741  1.7669
  190SLPC    HY21944   4.904   1.582   6.491  0.9174  1.5470  1.5885
  190SLPC   O3121945   4.830   1.459   6.655 -0.5074 -0.0982  0.3027
  190SLPC   C3121946   4.900   1.351   6.612  0.3313  0.2955  0.4644
  190SLPC   O3221947   4.970   1.343   6.514  0.0309  0.6533  0.5557
  190SLPC   C3221948   4.881   1.246   6.721  0.4648  0.6377  0.8076
  190SLPC   H2X21949   4.919   1.159   6.664 -2.1190 -0.8938  1.2565
  190SLPC   H2Y21950   4.772   1.225   6.733  0.6087 -0.8357 -0.2890
  190SLPC   C2321951   4.417   1.291   6.747 -0.1605 -0.1666  0.0292
  190SLPC   H3R21952   4.507   1.315   6.807  0.1243 -0.3877 -0.3095
  190SLPC   H3S21953   4.404   1.186   6.713 -1.3014  0.5625 -1.9573
  190SLPC   C2421954   4.295   1.321   6.839 -0.0041 -0.8917  0.0361
  190SLPC   H4R21955   4.208   1.309   6.772 -0.0149 -0.7032  0.0163
  190SLPC   H4S21956   4.304   1.424   6.880  1.9027 -0.1971 -1.9715
  190SLPC   C2521957   4.290   1.229   6.961 -0.1786 -0.2905 -0.8315
  190SLPC   H5R21958   4.279   1.124   6.927  0.1594 -0.6270  0.0609
  190SLPC   H5S21959   4.199   1.252   7.020 -0.0017 -0.8749 -0.3219
  190SLPC   C2621960   4.412   1.238   7.050  0.6058  0.0392 -0.9990
  190SLPC   H6R21961   4.450   1.342   7.057  1.8651 -0.2191 -3.1979
  190SLPC   H6S21962   4.492   1.180   6.999  0.8891  0.0176 -0.5311
  190SLPC   C2721963   4.382   1.187   7.191 -0.2657 -0.4633 -0.2721
  190SLPC   H7R21964   4.360   1.079   7.174  2.3954 -1.0577 -0.3475
  190SLPC   H7S21965   4.286   1.229   7.228  0.3245  3.0915 -2.3703
  190SLPC   C2821966   4.490   1.193   7.302 -0.3438  0.3249  0.2371
  190SLPC   H8R21967   4.574   1.138   7.256 -0.4125 -0.3523  0.9048
  190SLPC   H8S21968   4.461   1.132   7.390 -1.7526  1.9763  1.0015
  190SLPC   C2921969   4.531   1.334   7.340 -0.2783  0.2713  0.1467
  190SLPC   H9R21970   4.547   1.407   7.260 -0.1786  0.6422  0.5000
  190SLPC  C21021971   4.536   1.389   7.463  0.1569 -0.5768 -0.0075
  190SLPC  H10R21972   4.574   1.492   7.473  0.8726 -0.8660  0.2934
  190SLPC  C21121973   4.497   1.322   7.588  0.0536 -0.1532 -0.4104
  190SLPC  H11R21974   4.522   1.398   7.665  1.2283 -0.3756 -0.5528
  190SLPC  H11S21975   4.560   1.231   7.602  2.3920  1.2412 -1.4247
  190SLPC  C21221976   4.351   1.286   7.607  0.1972  0.2103  0.2540
  190SLPC  H12R21977   4.329   1.188   7.564  1.8848 -0.2394  0.3235
  190SLPC  C21321978   4.252   1.356   7.661 -0.2470  0.0614 -0.0972
  190SLPC  H13R21979   4.156   1.303   7.667 -0.8518  0.6593 -2.9608
  190SLPC  C21421980   4.262   1.491   7.718 -0.2413  0.4707 -0.7960
  190SLPC  H14R21981   4.179   1.550   7.673  2.1163  2.3663 -2.9774
  190SLPC  H14S21982   4.354   1.550   7.694  0.4408 -0.5939 -0.8614
  190SLPC  C21521983   4.229   1.484   7.870  1.3166  0.7040  0.3175
  190SLPC  H15R21984   4.296   1.414   7.925 -1.4330 -2.1018  0.3704
  190SLPC  H15S21985   4.132   1.432   7.883  2.1383 -0.6150  1.5310
  190SLPC  C21621986   4.234   1.624   7.936  0.1366  0.4644  0.5650
  190SLPC  H16R21987   4.180   1.694   7.869 -0.8947 -0.5868  0.2732
  190SLPC  H16S21988   4.335   1.668   7.922 -0.2235  1.2464  0.3272
  190SLPC  C21721989   4.201   1.622   8.082  0.2403 -0.1830 -0.5129
  190SLPC  H17R21990   4.209   1.717   8.138 -0.1237  0.0954 -0.9252
  190SLPC  H17S21991   4.276   1.554   8.127 -0.0997 -0.0347  0.2906
  190SLPC  C21821992   4.054   1.584   8.099  0.2447 -0.2112 -0.1014
  190SLPC  H18R21993   3.978   1.647   8.048  0.2672 -0.1012  0.0037
  190SLPC  H18S21994   4.041   1.580   8.209  0.8194  0.9515  0.0212
  190SLPC  H18T21995   4.035   1.481   8.060  1.8550 -1.1629  1.4696
  190SLPC   C3321996   4.957   1.275   6.854 -0.8145  0.3345 -0.5989
  190SLPC   H3X21997   4.960   1.381   6.889  0.7491  0.0368  0.2698
  190SLPC   H3Y21998   5.064   1.245   6.852 -1.2586 -1.7688  1.8810
  190SLPC   C3421999   4.873   1.221   6.973 -0.8563 -0.4322  0.1635
  190SLPC   H4X22000   4.905   1.116   6.988 -1.7737 -0.7763 -0.2463
  190SLPC   H4Y22001   4.766   1.216   6.943 -0.7575 -1.3588 -0.0537
  190SLPC   C3522002   4.899   1.299   7.104 -0.0522 -0.6315  0.3746
  190SLPC   H5X22003   4.830   1.386   7.112  0.1513 -0.5178  0.9383
  190SLPC   H5Y22004   5.001   1.342   7.108 -0.5225  0.4696  1.2965
  190SLPC   C3622005   4.885   1.215   7.241  0.2579 -0.3412  0.2707
  190SLPC   H6X22006   4.941   1.119   7.244  1.4853  0.3656  1.4596
  190SLPC   H6Y22007   4.777   1.190   7.238 -0.2971  1.4021 -5.5204
  190SLPC   C3722008   4.910   1.303   7.367  0.9527  0.3625 -0.3295
  190SLPC   H7X22009   4.822   1.372   7.375 -0.4182 -1.4078  0.4926
  190SLPC   H7Y22010   5.003   1.364   7.364  0.4358  1.1543 -0.6321
  190SLPC   C3822011   4.917   1.239   7.502  0.0073 -0.2972 -0.4344
  190SLPC   H8X22012   4.996   1.162   7.497 -2.3070 -2.7650 -1.9079
  190SLPC   H8Y22013   4.820   1.188   7.523 -1.6876  1.7945 -2.5849
  190SLPC   C3922014   4.945   1.348   7.609  1.0123  0.0521 -0.1926
  190SLPC   H9X22015   4.883   1.439   7.595  1.7298  0.8738  1.7229
  190SLPC   H9Y22016   5.054   1.366   7.597  0.9988  0.6660  0.5652
  190SLPC  C31022017   4.923   1.293   7.749  0.5078 -0.2769 -0.5061
  190SLPC  H10X22018   5.001   1.217   7.768 -0.2098 -0.4018  2.4040
  190SLPC  H10Y22019   4.823   1.244   7.747 -0.0827  0.9117 -1.1199
  190SLPC  C31122020   4.930   1.398   7.866 -0.6292 -0.0542 -0.2054
  190SLPC  H11X22021   5.005   1.478   7.852  0.2076 -0.7710  0.0332
  190SLPC  H11Y22022   4.944   1.343   7.962  1.8157  0.2521 -0.3186
  190SLPC  C31222023   4.800   1.478   7.878  0.6180 -1.2060  0.5226
  190SLPC  H12X22024   4.710   1.412   7.883 -1.6822  1.6515 -0.2940
  190SLPC  H12Y22025   4.791   1.535   7.783 -1.1229  1.5121  2.1823
  190SLPC  C31322026   4.799   1.581   7.999  0.1494  0.1905 -0.4252
  190SLPC  H13X22027   4.802   1.527   8.096  0.7956  2.1897  0.7049
  190SLPC  H13Y22028   4.706   1.642   7.993  0.9588  1.7560  1.7311
  190SLPC  C31422029   4.917   1.669   8.014 -0.7848  0.2325 -0.2583
  190SLPC  H14X22030   4.933   1.727   7.920  3.9290 -1.1304 -0.5355
  190SLPC  H14Y22031   5.003   1.601   8.027 -2.3706 -1.5519  1.3912
  190SLPC  C31522032   4.916   1.768   8.135  0.2539 -0.2606  1.1708
  190SLPC  H15X22033   4.816   1.818   8.140  1.3412  2.3868 -1.0343
  190SLPC  H15Y22034   4.987   1.851   8.114  1.4392 -1.4162  0.5192
  190SLPC  C31622035   4.948   1.714   8.279  0.0429  0.3841  0.1276
  190SLPC  H16X22036   5.042   1.657   8.267 -0.7173 -0.5928 -1.5576
  190SLPC  H16Y22037   4.875   1.636   8.310 -0.4018 -0.2236 -2.2231
  190SLPC  C31722038   4.966   1.832   8.378 -0.2504 -0.1650 -0.2925
  190SLPC  H17X22039   4.869   1.884   8.386 -0.6735 -1.0870  0.8165
  190SLPC  H17Y22040   5.043   1.900   8.337  0.3083  0.1213  1.1748
  190SLPC  C31822041   5.017   1.790   8.521  1.0468 -0.4617 -0.0379
  190SLPC  H18X22042   5.103   1.720   8.512  1.6689  0.4359 -1.6710
  190SLPC  H18Y22043   4.941   1.726   8.571  0.6538 -0.9072 -1.1829
  190SLPC  H18Z22044   5.041   1.877   8.586  2.2512 -0.4986 -0.3936
  191SLPC     N22045   4.026   6.341   6.338 -0.2243  0.0206 -0.1850
  191SLPC   C1322046   3.928   6.228   6.329  0.1776 -0.0003  0.8314
  191SLPC  H13A22047   3.901   6.217   6.225  1.7351  0.8496  0.3007
  191SLPC  H13B22048   3.977   6.137   6.358  1.1208  0.2689  0.1326
  191SLPC  H13C22049   3.838   6.246   6.386  0.7480  0.8282  1.4995
  191SLPC   C1422050   4.151   6.293   6.272  0.2788  0.2078 -0.5699
  191SLPC  H14A22051   4.224   6.369   6.294 -0.4323  1.1737 -1.4054
  191SLPC  H14B22052   4.170   6.194   6.310 -0.6866  0.7096  1.3556
  191SLPC  H14C22053   4.145   6.279   6.165  2.3189  0.2086 -0.7180
  191SLPC   C1522054   4.049   6.367   6.486 -0.2151 -0.6818 -0.4190
  191SLPC  H15A22055   3.961   6.409   6.532  1.1512  1.2373  0.5477
  191SLPC  H15B22056   4.075   6.274   6.534 -0.0211 -0.8620 -0.8675
  191SLPC  H15C22057   4.133   6.434   6.490 -1.0974  0.3890  0.5112
  191SLPC   C1222058   3.956   6.457   6.265 -0.4028 -0.4335 -0.3912
  191SLPC  H12A22059   4.019   6.543   6.281 -0.4386 -0.6630  1.1017
  191SLPC  H12B22060   3.862   6.469   6.318 -1.2627 -0.0542 -1.9249
  191SLPC   C1122061   3.932   6.460   6.107 -0.2259  0.5801  0.3202
  191SLPC  H11A22062   4.032   6.470   6.060  0.2008 -0.2754  1.0068
  191SLPC  H11B22063   3.874   6.552   6.086  0.5630  0.7578 -1.2403
  191SLPC     P22064   3.727   6.317   6.045  0.6609 -0.1257  0.3636
  191SLPC   O1322065   3.698   6.335   5.903 -0.7660  0.1056  0.1897
  191SLPC   O1422066   3.697   6.183   6.094  0.3633  0.1956 -0.7178
  191SLPC   O1222067   3.872   6.342   6.063 -0.1680  1.0674 -0.5549
  191SLPC   O1122068   3.659   6.428   6.130  0.7395 -0.3216 -0.1159
  191SLPC    C122069   3.517   6.418   6.159 -0.1534 -0.2818  0.1715
  191SLPC    HA22070   3.463   6.478   6.082  1.4667 -0.3671 -1.0822
  191SLPC    HB22071   3.480   6.313   6.161 -0.8619 -0.0933 -1.7077
  191SLPC    C222072   3.494   6.477   6.301 -0.0121 -0.5499  0.0958
  191SLPC    HS22073   3.387   6.466   6.326 -0.4205  2.4030 -0.0130
  191SLPC   O2122074   3.543   6.608   6.303  0.2935 -0.6239  0.1925
  191SLPC   C2122075   3.457   6.714   6.288  0.0309  0.1052  0.1140
  191SLPC   O2222076   3.339   6.692   6.270 -0.5796  0.0844  0.5681
  191SLPC   C2222077   3.523   6.847   6.304 -0.6882 -0.3228  0.5829
  191SLPC   H2R22078   3.626   6.817   6.332 -0.5598 -1.0755 -0.6241
  191SLPC   H2S22079   3.528   6.902   6.207  2.3395 -0.7490  0.3881
  191SLPC    C322080   3.561   6.389   6.416  0.3870  0.1194 -0.6634
  191SLPC    HX22081   3.662   6.367   6.377 -0.9610 -1.7820 -3.4003
  191SLPC    HY22082   3.511   6.291   6.430  0.8563  0.0612  0.7406
  191SLPC   O3122083   3.561   6.446   6.544  0.1687 -0.0001 -0.4841
  191SLPC   C3122084   3.676   6.452   6.610  0.2666  0.0155 -0.9939
  191SLPC   O3222085   3.780   6.401   6.573  0.1188  0.7702 -0.0666
  191SLPC   C3222086   3.653   6.524   6.743  0.3755 -0.2082 -0.4654
  191SLPC   H2X22087   3.568   6.470   6.790 -0.1610  1.6667  0.8207
  191SLPC   H2Y22088   3.615   6.626   6.719  2.0455  0.7260  0.6553
  191SLPC   C2322089   3.456   6.945   6.407  0.3904  0.2160 -0.1382
  191SLPC   H3R22090   3.355   6.986   6.385  0.3128  0.9663  1.5138
  191SLPC   H3S22091   3.528   7.029   6.421  3.1745 -1.7153 -1.6782
  191SLPC   C2422092   3.449   6.890   6.548  1.0441  0.0503  0.8351
  191SLPC   H4R22093   3.536   6.843   6.598 -0.9253 -0.9592  3.6231
  191SLPC   H4S22094   3.378   6.805   6.539  0.1074  0.9837 -1.1956
  191SLPC   C2522095   3.384   6.989   6.642 -0.4653  0.1083 -0.0509
  191SLPC   H5R22096   3.287   7.026   6.601 -1.2906 -2.0315 -0.1348
  191SLPC   H5S22097   3.452   7.077   6.645  1.8943 -1.5754 -1.2724
  191SLPC   C2622098   3.356   6.928   6.778  0.3784 -0.1566  0.8341
  191SLPC   H6R22099   3.311   6.828   6.756 -1.3190  1.0024 -1.2926
  191SLPC   H6S22100   3.291   6.996   6.837 -0.9605 -0.6611 -0.0073
  191SLPC   C2722101   3.469   6.903   6.874 -1.2025  0.3758 -0.3336
  191SLPC   H7R22102   3.524   6.998   6.896 -0.9444  0.2521 -0.4454
  191SLPC   H7S22103   3.546   6.837   6.830 -0.3800 -0.0004  1.5705
  191SLPC   C2822104   3.422   6.834   6.999 -0.5928  0.2535 -0.3398
  191SLPC   H8R22105   3.339   6.897   7.038 -0.2128  0.5365  0.0113
  191SLPC   H8S22106   3.507   6.829   7.069 -0.0764 -1.3124 -1.0327
  191SLPC   C2922107   3.367   6.695   6.992 -0.2982 -0.5965 -0.2554
  191SLPC   H9R22108   3.345   6.645   6.896 -0.6666 -2.1776  0.6104
  191SLPC  C21022109   3.331   6.623   7.106  0.1594 -0.6073  0.0390
  191SLPC  H10R22110   3.302   6.519   7.086  1.2280 -0.6250 -1.6509
  191SLPC  C21122111   3.334   6.667   7.251 -0.1975  0.0738  0.4377
  191SLPC  H11R22112   3.341   6.778   7.249  0.4288  0.0304 -1.3506
  191SLPC  H11S22113   3.424   6.620   7.296 -1.2375 -0.6759  1.8328
  191SLPC  C21222114   3.211   6.636   7.331  0.7371 -0.4605 -0.1213
  191SLPC  H12R22115   3.136   6.590   7.265 -0.7064  1.8358 -0.2320
  191SLPC  C21322116   3.186   6.659   7.462  0.5964 -0.9140 -0.5386
  191SLPC  H13R22117   3.082   6.647   7.497  0.0360  1.3642 -1.2077
  191SLPC  C21422118   3.281   6.720   7.563  0.7473 -0.7328 -0.0132
  191SLPC  H14R22119   3.372   6.748   7.505  2.0369 -2.6098  0.9647
  191SLPC  H14S22120   3.300   6.636   7.634 -0.4292 -0.1630  1.0020
  191SLPC  C21522121   3.211   6.817   7.663 -0.5080 -0.1797 -0.0995
  191SLPC  H15R22122   3.176   6.910   7.614  0.1089  0.6785  1.0515
  191SLPC  H15S22123   3.295   6.860   7.721 -1.5617 -0.2876  1.5798
  191SLPC  C21622124   3.101   6.762   7.746 -0.8675 -0.6219 -0.7596
  191SLPC  H16R22125   3.149   6.683   7.808  1.3402 -0.2969 -1.9678
  191SLPC  H16S22126   3.024   6.701   7.693 -3.0549 -0.8905  2.4317
  191SLPC  C21722127   3.020   6.873   7.825 -0.2971  0.0567 -0.4079
  191SLPC  H17R22128   2.996   6.962   7.763 -1.4828 -0.5679 -0.8839
  191SLPC  H17S22129   3.096   6.905   7.899 -0.0933 -1.4738  0.0830
  191SLPC  C21822130   2.897   6.823   7.900  0.0878 -0.3555  0.1739
  191SLPC  H18R22131   2.846   6.902   7.959 -1.0826 -0.5969 -0.4875
  191SLPC  H18S22132   2.917   6.732   7.959  0.5691 -0.4932 -0.1941
  191SLPC  H18T22133   2.823   6.792   7.822  0.4847 -0.4272 -0.1781
  191SLPC   C3322134   3.783   6.528   6.824 -0.7435  0.3519 -0.2440
  191SLPC   H3X22135   3.854   6.590   6.765  0.2531  1.8817  2.4181
  191SLPC   H3Y22136   3.830   6.428   6.837 -1.6544  0.0175  0.5866
  191SLPC   C3422137   3.774   6.593   6.958  0.3407 -0.7995  0.1942
  191SLPC   H4X22138   3.680   6.553   7.002  0.1437  0.8991  1.4281
  191SLPC   H4Y22139   3.752   6.702   6.962  2.2238 -0.4412  2.4924
  191SLPC   C3522140   3.896   6.571   7.056 -0.7780 -0.2719  0.4753
  191SLPC   H5X22141   3.990   6.583   6.998 -1.3354  0.5291 -0.2983
  191SLPC   H5Y22142   3.895   6.470   7.102  2.8096  0.0274  1.5248
  191SLPC   C3622143   3.874   6.667   7.175  0.3069  0.2031 -0.1613
  191SLPC   H6X22144   3.843   6.765   7.133  1.9866  0.5286 -0.7365
  191SLPC   H6Y22145   3.967   6.680   7.235  1.4647 -0.7676 -1.6365
  191SLPC   C3722146   3.763   6.617   7.271 -0.1360 -0.3806 -0.1262
  191SLPC   H7X22147   3.759   6.506   7.263 -0.0835 -0.3199 -1.2246
  191SLPC   H7Y22148   3.660   6.643   7.239 -0.6501 -1.1533  0.8692
  191SLPC   C3822149   3.774   6.676   7.413  0.2811 -0.9095  0.5288
  191SLPC   H8X22150   3.746   6.783   7.407 -1.1554 -1.3193 -1.1077
  191SLPC   H8Y22151   3.880   6.689   7.443  0.6468 -1.5157 -0.4482
  191SLPC   C3922152   3.694   6.594   7.522 -0.1167 -0.1193  0.0542
  191SLPC   H9X22153   3.739   6.493   7.512 -0.1437 -0.0118 -1.3646
  191SLPC   H9Y22154   3.589   6.601   7.489  0.1925  0.2508 -0.8810
  191SLPC  C31022155   3.705   6.652   7.664 -0.4855  0.2730  0.0269
  191SLPC  H10X22156   3.649   6.749   7.666  0.1905  0.6645  1.1089
  191SLPC  H10Y22157   3.812   6.661   7.691 -0.3663 -1.4110  0.2338
  191SLPC  C31122158   3.649   6.563   7.768  0.5845  0.2292 -0.5646
  191SLPC  H11X22159   3.716   6.476   7.784  1.0792  0.4490 -1.3709
  191SLPC  H11Y22160   3.563   6.507   7.725  0.1457  1.7464 -1.7648
  191SLPC  C31222161   3.589   6.629   7.894  0.0678 -0.1958 -0.7150
  191SLPC  H12X22162   3.509   6.700   7.863 -0.4892 -1.0206 -1.2094
  191SLPC  H12Y22163   3.674   6.678   7.945  1.1871 -1.0140 -1.7480
  191SLPC  C31322164   3.538   6.537   8.002  0.4815  0.3202 -0.5405
  191SLPC  H13X22165   3.572   6.578   8.100  1.4414 -1.7291  0.0303
  191SLPC  H13Y22166   3.586   6.437   7.998 -0.0337 -0.2539  3.5651
  191SLPC  C31422167   3.383   6.523   8.004 -0.3838  0.3349  0.2772
  191SLPC  H14X22168   3.352   6.435   7.943 -1.4725  1.7443 -1.3147
  191SLPC  H14Y22169   3.333   6.617   7.974  1.0542  1.3996  1.0793
  191SLPC  C31522170   3.340   6.493   8.146 -0.1165  0.1327  0.6285
  191SLPC  H15X22171   3.229   6.497   8.155 -0.3549 -1.6388 -0.8434
  191SLPC  H15Y22172   3.377   6.581   8.203  1.9213  0.7731 -1.4988
  191SLPC  C31622173   3.386   6.354   8.194  0.5495 -0.0499  0.0481
  191SLPC  H16X22174   3.457   6.316   8.117 -0.8175 -0.2785 -1.1358
  191SLPC  H16Y22175   3.292   6.295   8.188 -1.0025  2.3736 -1.1441
  191SLPC  C31722176   3.432   6.345   8.342  0.2274  0.0159  0.3464
  191SLPC  H17X22177   3.503   6.429   8.349  0.6110 -0.2587 -0.1860
  191SLPC  H17Y22178   3.484   6.249   8.363  1.6259  0.5702 -0.4432
  191SLPC  C31822179   3.326   6.360   8.447 -0.0742  0.2483 -0.1804
  191SLPC  H18X22180   3.279   6.259   8.439  0.3541 -0.0810  1.2210
  191SLPC  H18Y22181   3.241   6.429   8.431 -0.0249  0.2784 -0.3134
  191SLPC  H18Z22182   3.369   6.365   8.549 -0.9968 -1.0413  0.2942
  192SLPC     N22183   4.015   2.652   6.293 -0.4805  0.3887  0.0317
  192SLPC   C1322184   4.039   2.605   6.152 -0.4865  0.4193 -0.2575
  192SLPC  H13A22185   4.000   2.672   6.077  0.3294 -0.1603 -1.2302
  192SLPC  H13B22186   4.145   2.600   6.128 -0.4396 -0.7574  0.1573
  192SLPC  H13C22187   3.993   2.509   6.135 -0.8430  0.7102 -0.9902
  192SLPC   C1422188   3.870   2.676   6.314  0.6775  0.3130 -0.4110
  192SLPC  H14A22189   3.845   2.705   6.415 -0.5487 -1.4287 -0.1681
  192SLPC  H14B22190   3.844   2.765   6.258 -0.4441  0.6893  0.6556
  192SLPC  H14C22191   3.817   2.584   6.297 -1.9666  1.3894  1.3015
  192SLPC   C1522192   4.085   2.785   6.306 -0.3645 -0.7985 -0.4527
  192SLPC  H15A22193   4.062   2.844   6.219  0.4382 -0.0924 -0.1882
  192SLPC  H15B22194   4.054   2.842   6.392 -0.2350  0.8798 -1.4912
  192SLPC  H15C22195   4.190   2.764   6.312 -0.2389 -0.6190 -1.7929
  192SLPC   C1222196   4.064   2.555   6.399 -0.2249 -0.9068  0.1192
  192SLPC  H12A22197   4.086   2.613   6.487 -0.4662 -3.5358  2.0471
  192SLPC  H12B22198   4.159   2.517   6.364  0.1990  0.0891  0.1442
  192SLPC   C1122199   3.985   2.427   6.426  0.1268 -0.2078 -0.5705
  192SLPC  H11A22200   3.883   2.447   6.466  0.9581 -0.6617  1.9861
  192SLPC  H11B22201   4.031   2.377   6.514 -1.4320  0.0821  0.4509
  192SLPC     P22202   4.057   2.212   6.314  0.2465 -0.4030  0.1825
  192SLPC   O1322203   4.034   2.127   6.198  0.0633  0.3600  0.2206
  192SLPC   O1422204   4.199   2.245   6.337  0.4201  0.2769 -0.3073
  192SLPC   O1222205   3.975   2.345   6.309  0.1943  0.4134  0.3190
  192SLPC   O1122206   3.997   2.136   6.439  0.5151 -0.7037  1.2731
  192SLPC    C122207   3.862   2.080   6.437  0.2739  0.1367 -0.4905
  192SLPC    HA22208   3.826   2.057   6.334 -0.3285  1.3260 -0.5663
  192SLPC    HB22209   3.862   1.983   6.490 -2.3606  1.1699  1.6523
  192SLPC    C222210   3.760   2.173   6.505 -0.0296 -0.0052 -0.1184
  192SLPC    HS22211   3.779   2.270   6.454 -0.7938  0.3621  0.2714
  192SLPC   O2122212   3.799   2.176   6.647 -0.0137  0.2124  0.5175
  192SLPC   C2122213   3.736   2.283   6.699 -0.8255 -0.0248  0.6457
  192SLPC   O2222214   3.693   2.378   6.639 -0.0260  0.1444  0.0134
  192SLPC   C2222215   3.732   2.264   6.850 -0.4435 -0.0142  0.6445
  192SLPC   H2R22216   3.631   2.221   6.867  0.9023 -3.7141  0.1364
  192SLPC   H2S22217   3.793   2.178   6.885  0.4589  0.4065  0.1545
  192SLPC    C322218   3.610   2.135   6.465 -0.4209 -0.0475 -0.1508
  192SLPC    HX22219   3.604   2.135   6.355 -0.8562 -2.2973 -0.1684
  192SLPC    HY22220   3.540   2.210   6.509 -1.2137 -0.5414 -0.5432
  192SLPC   O3122221   3.583   2.000   6.513 -0.7335 -0.0668  0.3534
  192SLPC   C3122222   3.526   1.982   6.632  0.0384  0.3303 -0.0385
  192SLPC   O3222223   3.464   2.062   6.697  0.1655 -0.2884 -0.1104
  192SLPC   C3222224   3.542   1.825   6.649 -0.3315  0.2763  1.1269
  192SLPC   H2X22225   3.647   1.808   6.615 -0.1645  0.0707  1.7308
  192SLPC   H2Y22226   3.479   1.788   6.566  3.5321  1.5399 -2.7857
  192SLPC   C2322227   3.771   2.395   6.918  0.2231 -0.8307 -0.4731
  192SLPC   H3R22228   3.680   2.457   6.897  0.8647  0.6843  1.0145
  192SLPC   H3S22229   3.855   2.446   6.866 -0.1968  0.9112  0.4918
  192SLPC   C2422230   3.769   2.381   7.072 -0.2451  0.0490  0.7376
  192SLPC   H4R22231   3.670   2.336   7.093 -0.0284 -1.7903 -1.7238
  192SLPC   H4S22232   3.771   2.479   7.124  0.5298  0.3057  0.2521
  192SLPC   C2522233   3.884   2.292   7.135  0.1699 -0.2514 -0.1260
  192SLPC   H5R22234   3.980   2.339   7.104 -0.3705  0.4546 -0.7847
  192SLPC   H5S22235   3.878   2.193   7.086  2.1663  0.5356 -2.1650
  192SLPC   C2622236   3.872   2.276   7.283  0.2517  0.1427  0.0142
  192SLPC   H6R22237   3.956   2.210   7.313 -0.3280 -0.8249 -0.4270
  192SLPC   H6S22238   3.774   2.229   7.304 -0.5361  2.1991  1.2473
  192SLPC   C2722239   3.882   2.411   7.356  0.1226 -1.5019 -0.0373
  192SLPC   H7R22240   3.785   2.466   7.347  0.4896 -1.0830 -1.8676
  192SLPC   H7S22241   3.967   2.461   7.306 -0.3119  1.8225  2.2565
  192SLPC   C2822242   3.937   2.399   7.500  0.2444  0.5236 -0.5118
  192SLPC   H8R22243   3.960   2.501   7.537 -0.4403  0.5277 -0.0851
  192SLPC   H8S22244   4.033   2.344   7.507  0.4771  0.9277 -0.5150
  192SLPC   C2922245   3.839   2.331   7.587 -1.0096 -0.7709 -0.8817
  192SLPC   H9R22246   3.830   2.223   7.569  1.9114 -0.7979 -2.9205
  192SLPC  C21022247   3.754   2.399   7.665 -0.5407 -0.3465 -0.4790
  192SLPC  H10R22248   3.681   2.339   7.720 -1.4506 -0.0598 -1.3380
  192SLPC  C21122249   3.759   2.549   7.684  0.7658 -0.6424 -0.3766
  192SLPC  H11R22250   3.713   2.596   7.594  0.2050 -3.0195 -1.4022
  192SLPC  H11S22251   3.866   2.577   7.696  1.3063 -3.1947  1.5119
  192SLPC  C21222252   3.679   2.586   7.807  0.1048 -0.0119 -0.1271
  192SLPC  H12R22253   3.571   2.588   7.787  0.4042 -0.0676 -1.9489
  192SLPC  C21322254   3.717   2.609   7.934  0.1450  0.1025  0.3259
  192SLPC  H13R22255   3.644   2.647   8.007  0.3212 -1.2766  1.2569
  192SLPC  C21422256   3.852   2.607   8.002 -0.0104 -0.4146  0.0283
  192SLPC  H14R22257   3.933   2.644   7.935 -1.1903 -1.2136 -1.9228
  192SLPC  H14S22258   3.884   2.503   8.025 -0.6473 -0.1943  2.0384
  192SLPC  C21522259   3.855   2.693   8.131 -0.8335  0.3451  0.9759
  192SLPC  H15R22260   3.815   2.796   8.119  2.7046  1.7552  0.1141
  192SLPC  H15S22261   3.959   2.706   8.166 -0.1905 -1.9520  0.1302
  192SLPC  C21622262   3.796   2.626   8.259 -0.4274 -0.4834 -0.6384
  192SLPC  H16R22263   3.847   2.528   8.267  1.2457  0.3615 -0.4505
  192SLPC  H16S22264   3.688   2.612   8.238  0.0360 -2.1798 -2.1842
  192SLPC  C21722265   3.825   2.711   8.384 -0.2352  0.4539 -0.4499
  192SLPC  H17R22266   3.933   2.731   8.402 -0.4655 -0.4413  2.4490
  192SLPC  H17S22267   3.782   2.810   8.357  0.3416  0.9037  0.2241
  192SLPC  C21822268   3.765   2.654   8.516 -0.3430 -0.1948 -0.4217
  192SLPC  H18R22269   3.818   2.565   8.555  2.0386  1.6444  0.8961
  192SLPC  H18S22270   3.660   2.624   8.502 -0.8280  1.2788 -0.1583
  192SLPC  H18T22271   3.779   2.723   8.603  2.4040  1.9267 -2.3477
  192SLPC   C3322272   3.527   1.764   6.786 -0.5511 -0.6306  0.3746
  192SLPC   H3X22273   3.478   1.664   6.782 -2.7906  0.4410 -1.3944
  192SLPC   H3Y22274   3.445   1.816   6.840  1.2307  2.1481  0.5723
  192SLPC   C3422275   3.662   1.766   6.860  0.2361 -0.0145 -0.1218
  192SLPC   H4X22276   3.744   1.732   6.793  1.1989  1.0006  0.5191
  192SLPC   H4Y22277   3.647   1.696   6.945 -3.6212  1.4385  0.6159
  192SLPC   C3522278   3.697   1.905   6.922 -0.6152  0.0575 -0.3671
  192SLPC   H5X22279   3.612   1.970   6.951  1.1524  1.1863  2.8392
  192SLPC   H5Y22280   3.758   1.962   6.849  0.7421 -0.3473  0.4255
  192SLPC   C3622281   3.778   1.892   7.055 -0.3000 -0.2444  0.6485
  192SLPC   H6X22282   3.818   1.994   7.073 -1.0725 -0.2310  2.6225
  192SLPC   H6Y22283   3.861   1.821   7.033 -1.6576 -1.4269 -0.8783
  192SLPC   C3722284   3.695   1.867   7.185 -0.3397 -0.4810  0.2473
  192SLPC   H7X22285   3.763   1.837   7.268 -1.3779  1.4760  1.8934
  192SLPC   H7Y22286   3.628   1.779   7.171 -0.1381 -0.3448 -1.7428
  192SLPC   C3822287   3.598   1.981   7.228  0.4022 -0.1340 -0.4637
  192SLPC   H8X22288   3.503   1.962   7.173 -1.1024  1.2682  1.5031
  192SLPC   H8Y22289   3.639   2.082   7.207 -0.1483  0.1488 -0.2068
  192SLPC   C3922290   3.557   1.972   7.379  0.2694  0.1735  0.6184
  192SLPC   H9X22291   3.645   1.960   7.446 -0.2234 -0.1295  1.2257
  192SLPC   H9Y22292   3.494   1.882   7.396  1.9342 -1.2816 -0.5466
  192SLPC  C31022293   3.489   2.104   7.423  0.1125 -0.0102  0.1986
  192SLPC  H10X22294   3.440   2.132   7.327  2.3870  0.9931 -0.7628
  192SLPC  H10Y22295   3.561   2.187   7.443 -0.8953  0.7445  0.7795
  192SLPC  C31122296   3.414   2.078   7.549 -0.0426  0.2884 -0.2617
  192SLPC  H11X22297   3.391   1.970   7.561  0.6555  0.0719 -0.7929
  192SLPC  H11Y22298   3.316   2.128   7.548  1.3038  3.1775  1.1662
  192SLPC  C31222299   3.489   2.135   7.670 -0.8457  0.7008  0.5628
  192SLPC  H12X22300   3.523   2.235   7.636  0.0033 -0.0811 -0.9901
  192SLPC  H12Y22301   3.573   2.064   7.683 -2.2068 -1.1106 -0.2018
  192SLPC  C31322302   3.421   2.137   7.803 -0.0277 -0.1719  0.7119
  192SLPC  H13X22303   3.391   2.031   7.820  1.9073 -1.1492 -1.3519
  192SLPC  H13Y22304   3.324   2.189   7.788 -0.6774 -1.8485 -1.6786
  192SLPC  C31422305   3.515   2.194   7.914  0.8368 -0.2577 -0.3936
  192SLPC  H14X22306   3.550   2.296   7.888 -2.1805  1.5196  1.8181
  192SLPC  H14Y22307   3.597   2.121   7.931 -0.2025 -1.2068  0.7645
  192SLPC  C31522308   3.444   2.216   8.053  0.1662 -0.1490 -0.3432
  192SLPC  H15X22309   3.382   2.131   8.087  1.9180 -1.4736 -0.3715
  192SLPC  H15Y22310   3.376   2.303   8.036 -1.2472 -1.2060 -0.2047
  192SLPC  C31622311   3.548   2.256   8.161 -0.1701 -0.5772 -0.3814
  192SLPC  H16X22312   3.584   2.355   8.127 -2.1887 -0.2254 -1.7019
  192SLPC  H16Y22313   3.632   2.183   8.168  0.2528  0.0155  1.0527
  192SLPC  C31722314   3.485   2.277   8.299  0.5250 -0.6087  0.2221
  192SLPC  H17X22315   3.429   2.192   8.342 -2.2343  0.0741 -1.7663
  192SLPC  H17Y22316   3.401   2.349   8.294 -0.1904 -1.4385  0.0787
  192SLPC  C31822317   3.575   2.332   8.411  0.4770 -0.1857 -0.0480
  192SLPC  H18X22318   3.619   2.430   8.381  0.5524 -1.0716 -3.1093
  192SLPC  H18Y22319   3.668   2.271   8.418  0.2373 -0.6057 -0.4726
  192SLPC  H18Z22320   3.506   2.345   8.497 -0.7656  0.0500 -1.0576
  193SOD    SOD22321   6.720   1.183  11.083 -0.3223 -0.1811 -0.6126
  194SOD    SOD22322   4.801   0.911   4.636  0.2024 -0.1023  0.3046
  195SOD    SOD22323   1.494   5.524   3.128  0.0993 -0.3549  0.1026
  196SOD    SOD22324   2.184   0.970   2.971 -0.2315  0.3079  1.0347
  197SOD    SOD22325   5.674   3.903   3.353  0.0321  0.4136  0.3003
  198SOD    SOD22326   6.385   6.332   3.906  0.1516 -0.2374 -0.1657
  199SOD    SOD22327   1.058   2.573  15.648  0.9001 -0.1921 -0.0749
  200SOD    SOD22328   1.559   3.082  16.554  0.1727  0.2855  0.5475
  201SOD    SOD22329   2.700   6.548  11.239  0.0342 -0.1239  0.4590
  202SOD    SOD22330   1.332   5.359  10.814 -0.1772  0.2872 -0.0768
  203SOD    SOD22331   4.431   1.688   0.918 -0.2208 -0.2561 -0.3756
  204SOD    SOD22332   6.149   6.736  13.127 -0.1583  0.1918 -0.0417
  205SOD    SOD22333   2.303   0.581   3.445  0.2766 -0.5867  0.3868
  206SOD    SOD22334   2.654   2.621   3.791 -0.5314  0.7848 -0.0758
  207SOD    SOD22335   5.263   4.553   2.870 -0.2895 -0.1811 -0.2975
  208SOD    SOD22336   3.065   3.609   4.813  1.0746  0.5143 -0.0557
  209SOD    SOD22337   0.858   0.271   1.817 -0.2318 -0.1437  0.2039
  210SOD    SOD22338   1.102   5.836  11.121 -0.2713  0.0639 -0.5177
  211SOD    SOD22339   4.433   5.548  15.036 -0.3657 -0.2026  0.1313
  212SOD    SOD22340   0.649   0.618  14.123 -0.6479  0.1222 -0.0796
  213SOD    SOD22341   2.593   4.533  11.099  0.0672 -0.2802 -0.4922
  214SOD    SOD22342   5.594   4.421   4.813 -0.0491  0.3070  0.3684
  215SOD    SOD22343   5.735   0.076  12.942  0.1345  0.2192 -0.3077
  216SOD    SOD22344   5.077   4.144   6.234 -0.1721  0.2762 -0.2522
  217SOD    SOD22345   3.288   2.694   2.441 -0.8926  0.0263 -0.0048
  218SOD    SOD22346   5.862   5.821   6.132  0.0344  0.2326 -0.0210
  219SOD    SOD22347   2.437   1.057   5.399 -0.0141 -0.1988  0.2156
  220SOD    SOD22348   4.446   1.479  13.361 -0.2690  0.2403 -0.7074
  221SOD    SOD22349   4.563   1.201  14.032 -0.1774  0.2092 -0.3728
  222SOD    SOD22350   3.580   6.552   4.603 -0.1697  0.5090 -0.3220
  223SOD    SOD22351   2.673   0.311  10.696  0.3163  0.1437  0.5405
  224SOD    SOD22352   5.394   0.984   6.132  0.5105 -0.2244  0.1457
  225SOD    SOD22353   2.090   1.508   5.595  0.5724  0.1333 -0.3211
  226SOD    SOD22354   2.874   1.786   0.456  0.4345 -0.0616  0.0246
  227SOD    SOD22355   2.554   5.864  12.122  0.6354  0.2709  0.0671
  228SOD    SOD22356   0.964   3.750   1.702  0.3414 -0.0353  0.0948
  229SOD    SOD22357   4.947   3.017  17.027  0.9747  0.2930  0.1073
  230SOD    SOD22358   1.824   4.044   0.579  0.4837 -0.5442 -0.2266
  231SOD    SOD22359   2.339   0.096  12.333  0.2583 -0.3408  0.0983
  232SOD    SOD22360   5.101   4.712   1.464  0.3369  0.1223 -0.0591
  233SOD    SOD22361   4.236   3.818  16.447 -0.0953 -0.2830  0.1290
  234SOD    SOD22362   5.854   0.115   5.158 -0.3221  0.1713  0.7401
  235SOD    SOD22363   5.337   5.866   3.864  0.4892 -0.1110 -0.2351
  236SOD    SOD22364   5.197   2.988  15.866  0.4031  0.0391  0.0123
  237SOD    SOD22365   0.213   1.224  13.638  0.3447 -0.1078  0.0161
  238SOD    SOD22366   6.808   1.596  16.282 -0.1667 -0.1944  0.3979
  239SOD    SOD22367   4.104   1.270   4.323  0.3431 -0.0626 -0.5724
  240SOD    SOD22368   5.163   3.946  15.066 -0.0899  0.2536  0.1573
  241SOD    SOD22369   6.563   6.462   0.757  0.4761 -0.2168  0.2179
  242SOD    SOD22370   2.976   3.796  12.483 -0.7478  0.3773 -0.0074
  243SOD    SOD22371   0.762   0.592  12.409 -0.3303 -0.4391 -0.5742
  244SOD    SOD22372   0.633   2.075  11.096 -0.1506 -0.6698  1.0527
  245SOD    SOD22373   1.503   2.336   6.286 -0.1415  0.1823  0.4580
  246SOD    SOD22374   3.933   0.097   5.837  0.1392  0.0408  0.3671
  247SOD    SOD22375   1.816   4.968  16.286 -0.3677  0.1485 -0.7613
  248SOD    SOD22376   0.961   1.977  14.333 -0.0229  0.1436 -0.0281
  249SOD    SOD22377   4.999   2.802  13.652 -0.1603  0.3591 -0.1865
  250SOD    SOD22378   6.685   0.712   3.325 -0.3142  0.1599  0.2860
  251SOD    SOD22379   1.398   3.775  10.857  0.3807  0.4466 -0.1630
  252SOD    SOD22380   5.517   4.753  12.724  0.0453  0.2293 -0.1444
  253SOD    SOD22381   4.746   6.462   5.206 -0.1076  0.2097 -0.2901
  254SOD    SOD22382   2.990   2.144   2.305 -0.3986 -0.2188  0.0470
  255SOD    SOD22383   3.681   3.479   3.202 -0.1136 -0.1950  0.1691
  256SOD    SOD22384   2.887   4.662   2.358 -0.2644 -0.1239 -0.6041
  257SOD    SOD22385   4.292   2.057  10.509  0.0465 -0.2771 -0.3068
  258SOD    SOD22386   0.557   4.747  14.823 -0.4913  0.1704 -0.2197
  259SOD    SOD22387   0.540   5.236  16.458  0.0735  0.4451 -0.2039
  260SOD    SOD22388   5.397   1.377  16.217  0.4252  0.1803 -0.2244
  261SOD    SOD22389   0.991   6.030   5.002 -0.4375  0.1384  0.0213
  262SOD    SOD22390   6.565   4.555  14.179 -0.6985 -0.0588 -0.1140
  263SOD    SOD22391   2.812   4.540  10.495 -0.4641  0.3601 -0.2144
  264SOD    SOD22392   5.558   4.059   1.088 -0.1772 -0.3057  0.1596
  265SOD    SOD22393   6.317   4.846   6.368 -0.1417  0.0991  0.2292
  266CLA    CLA22394   5.165   1.811  11.680  0.1530  0.1485 -0.1235
  267CLA    CLA22395   2.954   3.110   4.180  0.0667 -0.6552  0.1047
  268CLA    CLA22396   1.912   4.014   0.167  0.0775  0.3842 -0.1391
  269CLA    CLA22397   2.800   3.262  13.154  0.0271 -0.0538  0.1717
  270CLA    CLA22398   5.376   4.577   3.408 -0.2533 -0.3473 -0.4443
  271CLA    CLA22399   5.652   6.827   5.281  0.1715 -0.2544  0.3775
  272CLA    CLA22400   2.557   1.373   5.004 -0.0791  0.0195 -0.4135
  273CLA    CLA22401   1.744   0.162  11.664 -0.0035 -0.0774 -0.3481
  274CLA    CLA22402   2.115   0.261   3.122 -0.2071 -0.3245  0.2284
  275CLA    CLA22403   2.771   4.852   1.302 -0.2660 -0.2419 -0.0412
  276CLA    CLA22404   3.002   6.445  11.842 -0.1208  0.0912 -0.0736
  277CLA    CLA22405   4.251   1.321   0.581  0.6174 -0.1603 -0.5338
  278CLA    CLA22406   5.605   4.165   3.249  0.3112 -0.2445 -0.1282
  279CLA    CLA22407   3.132   3.734   1.299  0.0456 -0.0960  0.0935
  280CLA    CLA22408   6.761   2.038  15.968 -0.2215 -0.2277 -0.0817
  281CLA    CLA22409   4.512   4.971  14.554  0.1416  0.2048  0.1147
  282CLA    CLA22410   6.262   1.584   4.334 -0.0832 -0.1119 -0.4628
  283CLA    CLA22411   3.809   1.689   3.080  0.6706  0.0812  0.1608
  284CLA    CLA22412   3.976   1.193   4.770 -0.2395  0.6191 -0.2895
  285CLA    CLA22413   4.732   1.962  12.914  0.3379 -0.0292 -0.0261
  286CLA    CLA22414   2.816   5.525   2.184  0.1470  0.1046  0.1465
  287CLA    CLA22415   5.192   4.867   5.477  0.0735 -0.0587  0.0296
  288CLA    CLA22416   1.119   6.849   0.632  0.2585  0.4362  0.3243
  289CLA    CLA22417   0.241   6.529   4.818 -0.0299  0.0823  0.0654
  290CLA    CLA22418   1.346   2.879  11.377 -0.0403  0.1010  0.3706
  291CLA    CLA22419   6.348   5.127   2.228  0.0677 -0.0499  0.1637
  292CLA    CLA22420   4.820   2.859   2.086  0.2578  0.0805  0.1509
  293CLA    CLA22421   6.696   1.349  13.057 -0.2686  0.0667 -0.0100
  294CLA    CLA22422   5.953   5.222   2.496  0.1481  0.0640  0.0593
  295CLA    CLA22423   4.082   5.547  16.394  0.0795  0.0026  0.0469
  296CLA    CLA22424   6.299   3.535  14.685 -0.4447 -0.3069 -0.1949
  297CLA    CLA22425   3.436   1.385  12.806 -0.3282  0.2578  0.1928
  298CLA    CLA22426   2.681   1.857   2.553  0.1972 -0.1354 -0.2289
  299CLA    CLA22427   1.477   3.664   2.025  0.0807  0.1183 -0.0158
  300CLA    CLA22428   0.628   0.731   1.710 -0.1150  0.4126 -0.1677
  301CLA    CLA22429   2.261   1.831   0.350 -0.0160 -0.2103  0.3890
  302CLA    CLA22430   4.872   6.456   3.565 -0.1523 -0.1830  0.3094
  303CLA    CLA22431   0.881   2.956  15.375  0.2046  0.1398 -0.0982
  304CLA    CLA22432   1.972   5.436   0.466  0.4100  0.1392 -0.3948
  305CLA    CLA22433   4.054   0.827  13.380  0.0842 -0.0693 -0.1916
  306CLA    CLA22434   6.551   3.152   1.509  0.0524 -0.5550  0.0371
  307CLA    CLA22435   0.615   4.420   0.629 -0.1910 -0.1912  0.2713
  308CLA    CLA22436   1.592   4.081  15.152  0.0025  0.1078 -0.2377
  309CLA    CLA22437   5.149   0.157   4.769 -0.0804 -0.3595  0.4036
  310CLA    CLA22438   0.174   3.323   1.347 -0.1782 -0.0136 -0.0550
  311CLA    CLA22439   1.010   3.840   0.241 -0.1146  0.1439 -0.1151
  312CLA    CLA22440   5.276   4.061  15.279  0.3418  0.1192  0.0584
  313CLA    CLA22441   1.381   1.179  13.881  0.3163 -0.7462 -0.2101
  314CLA    CLA22442   1.266   3.589  13.619  0.2099  0.0782 -0.1752
  315CLA    CLA22443   3.074   5.683  12.929 -0.4480  0.0194 -0.0335
  316CLA    CLA22444   4.919   1.105  12.830 -0.1093 -0.0834  0.1295
  317CLA    CLA22445   4.061   2.378   5.846  0.2044 -0.0830 -0.4735
  318CLA    CLA22446   3.331   2.761  16.146 -0.0575  0.2656  0.1876
  319TIP3   OH222447   0.615   3.959  13.033  0.1871  0.0747  0.3296
  319TIP3    H122448   0.684   4.024  13.015 -0.1098  0.2301 -0.2505
  319TIP3    H222449   0.536   4.012  13.044 -0.1985 -0.2402 -0.8758
  320TIP3   OH222450   0.462   4.686  11.577 -0.1320 -0.1842 -0.0589
  320TIP3    H122451   0.517   4.613  11.548  0.7509  0.8697 -1.1329
  320TIP3    H222452   0.472   4.687  11.672  3.1132  0.9969 -0.3012
  321TIP3   OH222453   4.034   0.690  16.854  0.1006  0.1069  0.2090
  321TIP3    H122454   4.081   0.710  16.935 -2.2063  0.8627  1.4469
  321TIP3    H222455   4.094   0.715  16.784  1.2659  1.6549  1.7015
  322TIP3   OH222456   4.814   1.882   2.842  0.3940 -0.1966  0.3241
  322TIP3    H122457   4.802   1.789   2.827 -0.9573  0.1432 -0.8449
  322TIP3    H222458   4.729   1.913   2.875  0.8656  0.6040  0.8368
  323TIP3   OH222459   6.245   0.715   1.730  0.1041 -0.5366  0.1537
  323TIP3    H122460   6.174   0.735   1.791  0.6939  0.1996  0.6402
  323TIP3    H222461   6.214   0.641   1.678 -0.3248 -1.3489  1.5237
  324TIP3   OH222462   1.630   6.070  14.541  0.0027 -0.0291  0.8117
  324TIP3    H122463   1.599   6.029  14.461  0.5560  0.0857  0.5327
  324TIP3    H222464   1.684   6.003  14.584  0.6922  0.3151  0.4857
  325TIP3   OH222465   5.911   3.791   0.220  0.1187 -0.1566 -1.0350
  325TIP3    H122466   5.968   3.788   0.297 -2.0330  0.8891  0.7317
  325TIP3    H222467   5.945   3.863   0.167 -0.3423  1.4332  0.7154
  326TIP3   OH222468   1.604   2.430  15.133  0.3653  0.0042 -0.0366
  326TIP3    H122469   1.565   2.361  15.186  1.5131 -0.8914 -0.3107
  326TIP3    H222470   1.531   2.467  15.083 -0.3137 -0.8228  0.3241
  327TIP3   OH222471   1.926   4.287   3.781 -0.1004  0.5075  0.5395
  327TIP3    H122472   2.015   4.255   3.773 -0.2878  0.4067 -2.1968
  327TIP3    H222473   1.876   4.212   3.814  0.4502 -0.2199 -0.2453
  328TIP3   OH222474   0.118   2.312   4.983 -0.1092 -0.2408 -0.7464
  328TIP3    H122475   0.150   2.251   4.917  0.0037 -0.1969 -0.7328
  328TIP3    H222476   0.061   2.260   5.040  0.5135 -0.4874 -0.3373
  329TIP3   OH222477   4.563   0.174  10.894  0.0630 -0.4852  0.5258
  329TIP3    H122478   4.507   0.190  10.818 -0.3018 -3.3069  0.0715
  329TIP3    H222479   4.648   0.209  10.870 -0.2245 -0.7124 -0.9387
  330TIP3   OH222480   5.511   2.170   3.488  0.2298  0.3435 -0.5082
  330TIP3    H122481   5.546   2.192   3.402  1.3919 -0.1073 -0.1725
  330TIP3    H222482   5.583   2.126   3.533 -1.2115 -1.9479 -0.2774
  331TIP3   OH222483   2.466   4.676   5.291 -0.1698  0.1731 -0.0247
  331TIP3    H122484   2.554   4.645   5.269  0.8385  2.2391  0.7954
  331TIP3    H222485   2.412   4.651   5.216  1.2899 -0.4483 -0.9085
  332TIP3   OH222486   6.549   4.408  16.321  0.1581 -0.2774  0.8830
  332TIP3    H122487   6.503   4.324  16.331 -1.8642  0.6907  0.3012
  332TIP3    H222488   6.603   4.396  16.243 -1.3616 -0.5763 -0.1859
  333TIP3   OH222489   4.265   2.905  15.513 -0.0250 -0.1933 -0.0420
  333TIP3    H122490   4.359   2.917  15.500 -0.2261  0.4976 -0.9704
  333TIP3    H222491   4.249   2.940  15.601  0.5877 -0.3878  0.1574
  334TIP3   OH222492   0.525   4.007   0.168  0.1728 -0.3063  0.4372
  334TIP3    H122493   0.585   4.045   0.232  0.7284  0.0956 -0.3071
  334TIP3    H222494   0.480   3.937   0.215  0.4405  0.1003  1.3119
  335TIP3   OH222495   3.299   3.856   2.526 -0.2347 -1.1922  0.3461
  335TIP3    H122496   3.390   3.881   2.516 -1.1530  2.1559 -0.9372
  335TIP3    H222497   3.275   3.819   2.441 -0.2887 -1.2543  0.3885
  336TIP3   OH222498   5.066   5.668  11.192 -0.4340  0.2098  0.5272
  336TIP3    H122499   5.068   5.642  11.284  0.8286  1.5259  0.9142
  336TIP3    H222500   5.149   5.714  11.179 -0.9208  0.6799 -1.0785
  337TIP3   OH222501   3.474   5.692  11.101 -0.7012 -0.2129 -0.7885
  337TIP3    H122502   3.524   5.615  11.072  0.0578  0.4093 -1.1778
  337TIP3    H222503   3.465   5.681  11.195  1.1451  0.1708 -0.5134
  338TIP3   OH222504   5.343   6.513  11.442  0.2113 -0.3815  0.9496
  338TIP3    H122505   5.340   6.423  11.410  1.9779  0.0099 -0.4609
  338TIP3    H222506   5.434   6.526  11.471 -0.1296  0.8200  1.5667
  339TIP3   OH222507   6.080   6.863   4.549  0.8750  0.3553 -0.3472
  339TIP3    H122508   6.108   6.895   4.635  2.1125  1.6705 -1.2048
  339TIP3    H222509   6.156   6.875   4.493 -0.3450  0.8352 -1.9627
  340TIP3   OH222510   0.498   4.435   5.370 -0.0681  0.4433  0.6231
  340TIP3    H122511   0.408   4.431   5.402 -0.8385 -0.3128 -1.4791
  340TIP3    H222512   0.493   4.405   5.280  2.8235 -3.2434  1.4362
  341TIP3   OH222513   6.545   4.632   2.005 -0.0139  0.7128  0.1465
  341TIP3    H122514   6.471   4.616   1.946 -2.4626  0.4709  3.0483
  341TIP3    H222515   6.524   4.714   2.049 -0.1847 -0.7940  3.1473
  342TIP3   OH222516   5.192   2.553  14.725 -0.9330  0.4855 -1.0704
  342TIP3    H122517   5.250   2.477  14.732  0.8638  1.7536 -1.4307
  342TIP3    H222518   5.145   2.555  14.808 -0.2220 -0.4263 -0.6256
  343TIP3   OH222519   5.193   5.120   0.447 -0.2687 -0.3115  0.0631
  343TIP3    H122520   5.200   5.045   0.506 -1.7586  0.7435  1.6821
  343TIP3    H222521   5.248   5.187   0.487 -1.5897  0.5393  0.4930
  344TIP3   OH222522   2.259   1.180  15.525  0.2401 -0.2207 -0.2118
  344TIP3    H122523   2.297   1.219  15.446  1.5156  1.2699  1.0762
  344TIP3    H222524   2.334   1.159  15.580 -0.5760 -2.2241  0.2071
  345TIP3   OH222525   5.591   4.177   1.725 -0.4749 -0.1521  0.3041
  345TIP3    H122526   5.599   4.107   1.790 -2.4165 -0.1581  0.6054
  345TIP3    H222527   5.535   4.243   1.767 -0.8209  0.3797 -0.9297
  346TIP3   OH222528   3.907   0.751  16.541  0.0975 -0.3414 -0.7024
  346TIP3    H122529   3.849   0.708  16.604  0.2679  1.3754  0.7225
  346TIP3    H222530   3.995   0.731  16.572  0.2182 -0.7162 -1.2803
  347TIP3   OH222531   0.840   0.274  16.323 -0.2274 -0.4148 -0.4939
  347TIP3    H122532   0.772   0.314  16.376  1.2182  0.1735  1.0329
  347TIP3    H222533   0.872   0.345  16.267  1.0067  0.1321  0.8251
  348TIP3   OH222534   5.985   4.477  15.974 -0.3649 -0.4065 -0.7988
  348TIP3    H122535   6.013   4.497  15.885 -2.5452 -0.1439 -1.4885
  348TIP3    H222536   5.925   4.549  15.997  0.2493 -0.4094  0.9312
  349TIP3   OH222537   3.128   5.099   0.842 -0.0481  0.3167 -0.5322
  349TIP3    H122538   3.068   5.173   0.855 -1.6747 -1.1455  0.9042
  349TIP3    H222539   3.208   5.123   0.888 -0.4858  1.2411 -0.2416
  350TIP3   OH222540   3.666   2.775   3.665 -1.1858 -0.6210  0.0412
  350TIP3    H122541   3.705   2.853   3.705 -1.6059  0.0445 -0.8020
  350TIP3    H222542   3.590   2.809   3.617 -2.5883 -1.8221  1.3236
  351TIP3   OH222543   3.236   6.264   2.973  0.0649  0.1326  0.2110
  351TIP3    H122544   3.176   6.336   2.993  0.7270  0.6389  0.4158
  351TIP3    H222545   3.214   6.238   2.883 -0.7327  0.0310  0.4293
  352TIP3   OH222546   5.876   5.392   3.864 -0.1227 -0.1292 -0.2320
  352TIP3    H122547   5.842   5.379   3.775 -1.5388 -1.2655  0.4399
  352TIP3    H222548   5.803   5.431   3.912  0.7916  0.9299  0.3420
  353TIP3   OH222549   4.945   1.075  10.244 -1.0477  0.2763  0.4604
  353TIP3    H122550   5.012   1.028  10.194 -1.3604  0.8216 -0.4930
  353TIP3    H222551   4.863   1.050  10.202 -1.3642  0.3535  1.0286
  354TIP3   OH222552   5.048   5.388   5.541  0.1620  0.3533 -0.3540
  354TIP3    H122553   5.114   5.320   5.551  1.6041  1.6113 -0.7772
  354TIP3    H222554   4.987   5.374   5.614  0.4513 -1.3063 -0.3925
  355TIP3   OH222555   1.173   2.189   1.895  0.0235  0.1481 -0.1548
  355TIP3    H122556   1.148   2.099   1.873 -2.3305  1.2575 -2.5981
  355TIP3    H222557   1.097   2.223   1.943 -0.4059  1.6247 -1.7736
  356TIP3   OH222558   4.090   6.787  12.444  0.2696  0.0805 -0.0980
  356TIP3    H122559   4.146   6.833  12.506  0.6905 -1.2854  0.5685
  356TIP3    H222560   4.016   6.757  12.496 -1.3018  2.1295 -1.0320
  357TIP3   OH222561   4.880   3.639  16.878  0.4491 -0.3768  0.6144
  357TIP3    H122562   4.847   3.727  16.893  1.9954  0.2887  0.3129
  357TIP3    H222563   4.972   3.643  16.905  0.6577 -1.7753  0.1882
  358TIP3   OH222564   6.656   6.219  16.725 -0.2876  0.6573  0.5298
  358TIP3    H122565   6.563   6.231  16.746 -0.1747 -0.3096  1.6774
  358TIP3    H222566   6.699   6.298  16.758 -0.4563  0.2516  1.7449
  359TIP3   OH222567   6.010   5.208  10.938  0.1870 -0.1414 -0.4046
  359TIP3    H122568   6.029   5.120  10.906  1.3922 -0.3752  0.8437
  359TIP3    H222569   6.024   5.265  10.862 -2.3923 -1.1182 -1.7560
  360TIP3   OH222570   0.234   4.383   1.574 -0.7734 -0.1599 -0.2855
  360TIP3    H122571   0.181   4.379   1.494 -1.3229  0.2598  0.0514
  360TIP3    H222572   0.175   4.418   1.641 -0.5938 -1.3796  0.5412
  361TIP3   OH222573   4.841   1.426  15.580  0.3338 -0.1936  0.0215
  361TIP3    H122574   4.801   1.426  15.666  0.6710 -1.3866  0.1921
  361TIP3    H222575   4.769   1.448  15.520  0.0382  0.3563  0.5625
  362TIP3   OH222576   1.665   4.526   3.558  0.1501 -0.3764 -0.3300
  362TIP3    H122577   1.670   4.514   3.463  2.1721 -0.9335 -0.1903
  362TIP3    H222578   1.694   4.616   3.572 -1.1874  0.0791 -0.2758
  363TIP3   OH222579   5.218   4.478   2.063  0.1855 -0.1226 -0.0362
  363TIP3    H122580   5.181   4.505   1.980 -0.1468 -1.2768 -0.2869
  363TIP3    H222581   5.200   4.384   2.068 -0.6422  0.0941  1.7601
  364TIP3   OH222582   2.080   4.267  16.580  0.1009  0.1874  0.3537
  364TIP3    H122583   2.138   4.221  16.641  1.8994 -0.6061 -1.8165
  364TIP3    H222584   2.105   4.359  16.587  1.8557 -0.1714 -0.7097
  365TIP3   OH222585   5.526   0.346  16.631  0.3546  0.1428 -0.1731
  365TIP3    H122586   5.616   0.318  16.646  0.1852 -0.7139 -0.7056
  365TIP3    H222587   5.531   0.442  16.628  1.5658  0.0830 -2.1311
  366TIP3   OH222588   6.817   5.158   3.752 -0.3530 -0.0435 -0.1600
  366TIP3    H122589   6.841   5.244   3.787 -0.1477 -0.3420  0.4432
  366TIP3    H222590   6.874   5.147   3.676  1.2320 -0.5816  1.0395
  367TIP3   OH222591   4.940   5.789  14.859  0.0275 -0.8112 -0.6931
  367TIP3    H122592   4.967   5.871  14.817  1.4325 -1.8472 -1.9261
  367TIP3    H222593   4.907   5.816  14.945  0.0556  1.0774 -1.2241
  368TIP3   OH222594   4.116   2.384   0.953  0.2090  0.1585 -0.5729
  368TIP3    H122595   4.064   2.303   0.953  0.4773 -0.1508  2.8105
  368TIP3    H222596   4.062   2.447   1.000  1.2011  1.1017 -0.6602
  369TIP3   OH222597   3.295   1.532  14.576 -0.8791 -0.2436 -0.2154
  369TIP3    H122598   3.225   1.596  14.560  0.2491  0.5904 -2.0966
  369TIP3    H222599   3.355   1.577  14.635  0.4761  0.9399 -2.4015
  370TIP3   OH222600   3.741   5.825  16.612 -0.1121 -0.1486 -0.2314
  370TIP3    H122601   3.699   5.891  16.667  1.8119 -0.8674  2.3104
  370TIP3    H222602   3.797   5.874  16.553 -0.6496  0.5684 -0.1533
  371TIP3   OH222603   2.873   0.059   5.265 -0.0212  0.2800  0.4262
  371TIP3    H122604   2.815   0.112   5.319 -1.5468 -0.9840  0.1104
  371TIP3    H222605   2.883  -0.023   5.313 -0.7620 -0.5624 -0.7858
  372TIP3   OH222606   1.149   6.695   4.651 -0.4573 -0.1452 -0.1515
  372TIP3    H122607   1.164   6.767   4.712 -0.1186  0.2404 -0.6922
  372TIP3    H222608   1.191   6.619   4.692  0.1702  0.2159 -0.1315
  373TIP3   OH222609   5.323   6.247  11.326 -0.0250  0.5489 -0.2534
  373TIP3    H122610   5.418   6.253  11.314  0.0765  0.8170  0.5816
  373TIP3    H222611   5.312   6.188  11.401 -0.4549  1.4551  0.4188
  374TIP3   OH222612   0.473   2.823  16.137 -0.0360  0.1080  0.5274
  374TIP3    H122613   0.551   2.846  16.087 -0.7082  0.1682 -0.5411
  374TIP3    H222614   0.408   2.889  16.111 -1.4220 -1.7807 -1.0941
  375TIP3   OH222615   0.132   3.483  12.133  0.4555  0.4829 -0.2523
  375TIP3    H122616   0.125   3.515  12.043  0.8440  0.5197 -0.2691
  375TIP3    H222617   0.069   3.411  12.137  2.3913 -1.3755 -1.3731
  376TIP3   OH222618   4.201   6.271  13.238  0.1331  0.0314 -0.4715
  376TIP3    H122619   4.115   6.289  13.275  0.1506 -0.8948  0.0527
  376TIP3    H222620   4.183   6.239  13.150 -0.0036  0.6948 -0.6885
  377TIP3   OH222621   1.307   4.358  11.839 -0.5997 -0.4075 -0.2930
  377TIP3    H122622   1.348   4.288  11.787  0.7126  0.7842 -0.9544
  377TIP3    H222623   1.220   4.368  11.801 -0.4918 -1.1189 -0.7452
  378TIP3   OH222624   1.692   5.723  14.888 -0.0100 -0.1559  0.5521
  378TIP3    H122625   1.598   5.722  14.869  0.1192  0.8025 -0.1726
  378TIP3    H222626   1.716   5.630  14.890 -0.7123 -0.3876 -0.5934
  379TIP3   OH222627   2.724   4.027  15.024  0.4380 -0.0453 -0.1121
  379TIP3    H122628   2.792   4.016  15.091 -1.8258  0.7830  2.5334
  379TIP3    H222629   2.649   3.980  15.059 -1.3481  1.8002 -1.2656
  380TIP3   OH222630   1.278   4.642   2.036 -0.3350 -0.1124 -0.1656
  380TIP3    H122631   1.234   4.727   2.046  0.4618  0.0911  2.2182
  380TIP3    H222632   1.222   4.581   2.084 -0.2523 -0.7289 -0.8313
  381TIP3   OH222633   4.224   5.026  14.649 -0.2777 -0.3625  0.5481
  381TIP3    H122634   4.193   4.980  14.727 -0.4054 -0.6980  0.3013
  381TIP3    H222635   4.314   4.996  14.638 -0.4952 -0.8825  0.1447
  382TIP3   OH222636   3.110   3.605  13.370  0.1750  0.2592 -0.1994
  382TIP3    H122637   3.029   3.592  13.419 -0.5286  3.0635 -0.4032
  382TIP3    H222638   3.093   3.565  13.284 -0.2491 -0.8174  0.3670
  383TIP3   OH222639   6.453   1.297   3.428  0.6726 -0.5025  0.0868
  383TIP3    H122640   6.434   1.387   3.403 -0.4321 -0.7437 -0.0009
  383TIP3    H222641   6.375   1.248   3.403  0.2437 -1.0818  2.3582
  384TIP3   OH222642   2.144   3.716   0.553  0.0327  0.0331 -0.0348
  384TIP3    H122643   2.188   3.735   0.470  1.9400 -2.2986  0.3343
  384TIP3    H222644   2.179   3.781   0.614  0.9844 -0.1384 -0.3776
  385TIP3   OH222645   1.450   2.070  14.388 -0.0986  0.1355 -0.7466
  385TIP3    H122646   1.502   2.035  14.460  0.5856  1.5364 -0.5294
  385TIP3    H222647   1.484   2.158  14.373 -0.6589  0.1250 -2.3665
  386TIP3   OH222648   0.043   6.211  14.379  0.0206  0.7569 -0.0715
  386TIP3    H122649   0.130   6.235  14.346 -0.3119  1.3850 -0.5223
  386TIP3    H222650   0.036   6.254  14.464  0.7879 -0.6691  0.7488
  387TIP3   OH222651   4.143   2.081  15.147  0.5222 -0.1511  0.2083
  387TIP3    H122652   4.152   1.986  15.134 -0.3740 -0.1822 -0.3086
  387TIP3    H222653   4.231   2.115  15.130  0.9820 -0.9293  0.9053
  388TIP3   OH222654   0.494   0.830  10.302  0.1128 -0.6541 -0.4777
  388TIP3    H122655   0.486   0.895  10.372  2.3215  0.4527 -1.1553
  388TIP3    H222656   0.492   0.746  10.347  0.4434 -0.0015  0.8093
  389TIP3   OH222657   3.618   2.032  15.972 -0.1553 -0.3697 -0.1069
  389TIP3    H122658   3.574   2.056  15.891 -0.0724  0.4622  0.0780
  389TIP3    H222659   3.685   1.969  15.946 -0.7948 -0.8832 -0.5279
  390TIP3   OH222660   4.315   0.707  15.326  0.5280  0.2443  0.3703
  390TIP3    H122661   4.343   0.788  15.368 -0.1447  0.3719  0.5936
  390TIP3    H222662   4.354   0.710  15.238 -1.6117  2.1160 -0.6216
  391TIP3   OH222663   2.677   4.260   1.997  0.2140  0.5340 -0.3970
  391TIP3    H122664   2.682   4.316   2.075 -1.5413  0.5817 -0.2794
  391TIP3    H222665   2.739   4.299   1.936 -1.6655  3.3141 -0.7361
  392TIP3   OH222666   1.829   3.239  16.878 -0.3598  0.5583 -0.1557
  392TIP3    H122667   1.847   3.267  16.967  0.1444 -1.0113  0.2757
  392TIP3    H222668   1.915   3.216  16.842 -0.7524 -0.7985 -0.3025
  393TIP3   OH222669   6.329   1.223   6.262 -0.3084 -0.2622 -0.0574
  393TIP3    H122670   6.366   1.309   6.279  0.8526 -0.5653 -1.0011
  393TIP3    H222671   6.388   1.162   6.306 -0.7919 -0.6202  0.1048
  394TIP3   OH222672   3.583   6.402  13.373  0.3625  0.3454 -0.5244
  394TIP3    H122673   3.515   6.342  13.342 -1.2946  2.8612 -2.1587
  394TIP3    H222674   3.538   6.460  13.435  1.6443  0.5669  0.2315
  395TIP3   OH222675   6.240   0.244  15.490  0.4509  0.0688  0.4904
  395TIP3    H122676   6.226   0.233  15.584 -0.2671  0.1220  0.3908
  395TIP3    H222677   6.178   0.311  15.463  0.8428  0.2555  0.0215
  396TIP3   OH222678   6.804   1.406   3.104  0.0659  0.2453 -0.1104
  396TIP3    H122679   6.869   1.353   3.059 -1.3543 -0.9341 -0.8513
  396TIP3    H222680   6.853   1.448   3.175  1.7518 -0.0850 -1.0150
  397TIP3   OH222681   6.256   5.006  12.469 -0.2457  0.2846 -0.4006
  397TIP3    H122682   6.320   5.062  12.514 -0.7893  2.1060 -1.7792
  397TIP3    H222683   6.307   4.933  12.436  0.9517  1.1975 -0.6179
  398TIP3   OH222684   0.403   5.534  14.704  0.0443  0.3989  0.2740
  398TIP3    H122685   0.489   5.574  14.717 -0.3943  0.8450  2.0375
  398TIP3    H222686   0.348   5.605  14.670  0.9130 -0.4962 -3.4478
  399TIP3   OH222687   3.843   6.219  15.611  0.1458  0.2078  0.0601
  399TIP3    H122688   3.837   6.309  15.578 -0.1236 -0.0501 -0.6002
  399TIP3    H222689   3.766   6.175  15.575 -0.0618 -0.1272  0.8935
  400TIP3   OH222690   0.069   1.192  12.179 -0.2681 -0.4938  1.0339
  400TIP3    H122691   0.099   1.110  12.140  1.8031  0.6522  0.0766
  400TIP3    H222692  -0.027   1.189  12.170 -0.3540 -3.2082  1.9555
  401TIP3   OH222693   0.226   5.484  13.068  0.1217 -0.1736 -0.0210
  401TIP3    H122694   0.237   5.393  13.041 -1.8013 -0.7629  0.9995
  401TIP3    H222695   0.149   5.483  13.126  2.0303  1.5478  2.7863
  402TIP3   OH222696   2.240   0.417   4.893 -0.5165 -0.4715  0.0256
  402TIP3    H122697   2.215   0.414   4.986 -2.0762  0.7982 -0.3008
  402TIP3    H222698   2.207   0.502   4.863  1.2364 -0.2257 -1.3598
  403TIP3   OH222699   3.867   0.704  12.625 -0.3023 -0.1946  0.4208
  403TIP3    H122700   3.873   0.785  12.574  0.0038  0.4315  1.4294
  403TIP3    H222701   3.958   0.676  12.636 -0.3160  0.0642  1.2311
  404TIP3   OH222702   0.345   4.903   2.371 -0.3030  0.1725 -0.3047
  404TIP3    H122703   0.340   4.959   2.293 -0.9822  0.1583 -0.2732
  404TIP3    H222704   0.270   4.929   2.424  0.8367  1.0683  0.9539
  405TIP3   OH222705   2.288   0.623  15.690  0.3288 -0.2352  0.4453
  405TIP3    H122706   2.257   0.705  15.729  1.9246  0.7960 -0.3402
  405TIP3    H222707   2.259   0.628  15.598 -2.9697 -2.4153  1.1865
  406TIP3   OH222708   0.421   1.952  12.664  0.5365 -0.0569  0.6646
  406TIP3    H122709   0.364   1.877  12.647  0.8304 -0.2053  0.3168
  406TIP3    H222710   0.510   1.916  12.662  0.7370  0.4692 -0.4728
  407TIP3   OH222711   3.448   1.499  11.247  0.0004 -0.7425  0.1436
  407TIP3    H122712   3.409   1.412  11.253 -1.7362  0.0117  0.1589
  407TIP3    H222713   3.377   1.556  11.218  0.2438  1.2466  3.0290
  408TIP3   OH222714   1.149   1.310  12.793 -0.4363 -0.0603 -0.6854
  408TIP3    H122715   1.164   1.290  12.885 -0.2161  1.0303 -0.4652
  408TIP3    H222716   1.235   1.334  12.759 -0.8070  1.3539 -0.6880
  409TIP3   OH222717   1.317   1.463  11.981 -0.0538 -0.1700 -0.3773
  409TIP3    H122718   1.402   1.479  12.021  1.2191 -2.5148 -1.8677
  409TIP3    H222719   1.307   1.533  11.917  0.1678  0.8083  0.6327
  410TIP3   OH222720   6.028   5.142   0.193  0.4926  0.2678 -0.6491
  410TIP3    H122721   6.112   5.103   0.217 -0.3334 -0.0150  2.1299
  410TIP3    H222722   5.963   5.083   0.230 -0.8690  1.8547 -0.3967
  411TIP3   OH222723   1.155   4.173   3.946  0.5644  0.3406  0.2904
  411TIP3    H122724   1.223   4.214   3.893  1.9190  1.2386  2.5322
  411TIP3    H222725   1.199   4.100   3.990 -0.4528 -0.2864  0.2991
  412TIP3   OH222726   6.551   1.566   3.739  0.4699  0.0625  0.3919
  412TIP3    H122727   6.496   1.487   3.745  1.4702 -0.9287 -2.0621
  412TIP3    H222728   6.640   1.532   3.745  0.9123  1.0265 -0.5813
  413TIP3   OH222729   1.479   6.096  13.282 -0.0888 -0.2850 -0.1353
  413TIP3    H122730   1.483   6.191  13.291  0.6686 -0.3794  0.7358
  413TIP3    H222731   1.413   6.081  13.215 -0.6646  0.8311  0.1510
  414TIP3   OH222732   5.444   3.215  12.229 -0.6847 -0.0025 -0.4916
  414TIP3    H122733   5.367   3.219  12.285 -1.6694  1.0007 -1.8369
  414TIP3    H222734   5.452   3.304  12.193  1.1664 -0.0559 -0.3121
  415TIP3   OH222735   1.738   1.032  14.049  0.4733 -0.0457 -0.0594
  415TIP3    H122736   1.678   1.104  14.067 -0.1720 -0.8428  1.1189
  415TIP3    H222737   1.819   1.058  14.093  0.9971  0.9742 -1.5471
  416TIP3   OH222738   5.468   5.810   5.594 -0.1276 -0.4940  0.4354
  416TIP3    H122739   5.398   5.751   5.623 -1.4881 -0.1275 -1.8295
  416TIP3    H222740   5.422   5.880   5.546  1.8142 -1.2272 -2.7925
  417TIP3   OH222741   2.118   0.333   4.566 -0.8026 -0.2479 -0.5542
  417TIP3    H122742   2.079   0.287   4.491 -0.5108 -0.6654 -0.4557
  417TIP3    H222743   2.109   0.426   4.545  0.1779 -0.3579 -1.6033
  418TIP3   OH222744   3.382   1.811  11.489  0.1801 -0.5469 -0.6301
  418TIP3    H122745   3.381   1.892  11.540 -0.2188 -0.8527 -0.1486
  418TIP3    H222746   3.475   1.792  11.476  0.3645  1.5648 -3.3138
  419TIP3   OH222747   5.825   3.518   5.649  0.6517  0.3019 -0.4758
  419TIP3    H122748   5.750   3.463   5.671  1.9054 -0.8567  1.0960
  419TIP3    H222749   5.868   3.472   5.577  0.7229  0.1488 -0.3354
  420TIP3   OH222750   0.559   3.809   3.096  0.1122 -0.1783  0.1107
  420TIP3    H122751   0.650   3.781   3.108  0.7890  1.8097 -0.0568
  420TIP3    H222752   0.552   3.827   3.003 -1.3127 -2.8899 -0.4282
  421TIP3   OH222753   4.818   3.990  15.373 -0.5510  0.4491 -0.1491
  421TIP3    H122754   4.820   4.071  15.424  3.4753  0.7861 -0.5135
  421TIP3    H222755   4.783   4.017  15.288 -1.0096  1.3591  0.3037
  422TIP3   OH222756   6.157   6.272   4.661 -0.0631 -0.4775  0.0118
  422TIP3    H122757   6.106   6.330   4.606 -0.6024 -2.0283 -1.2038
  422TIP3    H222758   6.164   6.317   4.745 -2.4105  0.3098 -0.1615
  423TIP3   OH222759   4.530   6.756  13.286 -0.5809 -0.7380 -0.0413
  423TIP3    H122760   4.502   6.784  13.198 -1.1613 -0.9834  0.0568
  423TIP3    H222761   4.589   6.683  13.271  0.9551  0.5168 -0.3020
  424TIP3   OH222762   5.769   5.311   2.852  0.0768 -0.7058 -0.5625
  424TIP3    H122763   5.773   5.292   2.758  1.6901 -0.9119 -0.4834
  424TIP3    H222764   5.690   5.363   2.863 -0.2497 -0.8646 -2.0060
  425TIP3   OH222765   3.908   6.848  13.945  0.3167 -0.1464  0.0111
  425TIP3    H122766   3.973   6.908  13.910  0.7268 -1.1487 -0.9792
  425TIP3    H222767   3.958   6.775  13.980 -0.2278 -0.4009  0.2828
  426TIP3   OH222768   4.504   3.416  15.650 -0.3917 -0.0436 -0.0342
  426TIP3    H122769   4.441   3.401  15.579  0.0130  0.0280 -0.4133
  426TIP3    H222770   4.538   3.329  15.670 -1.1782 -0.1928  0.7132
  427TIP3   OH222771   0.094   1.298   5.202 -0.2997  0.3583 -0.4094
  427TIP3    H122772   0.066   1.253   5.282 -1.2096 -0.9457 -1.4191
  427TIP3    H222773   0.041   1.259   5.133  0.5351  1.3916 -1.6743
  428TIP3   OH222774   3.714   3.844   2.249  0.7853 -0.7966  0.0775
  428TIP3    H122775   3.771   3.917   2.224  0.6301 -1.1403 -1.4259
  428TIP3    H222776   3.746   3.817   2.335 -0.0048  1.8393  1.3121
  429TIP3   OH222777   0.442   1.734   1.888 -0.0986 -0.0084 -0.6172
  429TIP3    H122778   0.448   1.640   1.906 -0.7921 -0.0249 -0.4608
  429TIP3    H222779   0.370   1.743   1.826  1.8031  0.1297 -2.9685
  430TIP3   OH222780   3.230   2.998   5.490 -0.1897 -0.0463  0.4621
  430TIP3    H122781   3.273   3.071   5.446  0.0904 -1.3144 -1.5258
  430TIP3    H222782   3.301   2.937   5.512 -0.6862 -1.3005 -1.1628
  431TIP3   OH222783   3.185   3.694   1.605  0.2549  0.5072  0.1878
  431TIP3    H122784   3.232   3.612   1.617 -1.5074 -0.7990 -1.1423
  431TIP3    H222785   3.185   3.708   1.510  0.4001  2.0047  0.3772
  432TIP3   OH222786   0.672   2.433  11.277  0.1579  0.2863  0.3577
  432TIP3    H122787   0.692   2.519  11.238 -0.0512 -0.1020 -0.6298
  432TIP3    H222788   0.680   2.371  11.204 -2.0445 -0.2311  0.4976
  433TIP3   OH222789   1.957   4.437   0.482  0.6794 -0.2317  0.2047
  433TIP3    H122790   2.006   4.501   0.535  0.9306  1.1810 -1.6097
  433TIP3    H222791   1.875   4.482   0.461  0.6457 -0.7036 -0.7041
  434TIP3   OH222792   4.707   2.348  15.132 -0.1378  0.2658 -0.1373
  434TIP3    H122793   4.724   2.425  15.078  0.9992  2.7256  3.3961
  434TIP3    H222794   4.615   2.354  15.155 -0.6015 -0.7366 -1.6256
  435TIP3   OH222795   4.758   5.001  11.283 -0.0525 -0.7416  0.6161
  435TIP3    H122796   4.791   5.088  11.305 -0.4707 -0.4065 -0.0379
  435TIP3    H222797   4.671   5.016  11.246 -0.1669 -1.4454  0.5721
  436TIP3   OH222798   1.147   1.796  16.046  0.4395  0.4413  0.4708
  436TIP3    H122799   1.205   1.861  16.009 -0.6205  0.8866 -0.4793
  436TIP3    H222800   1.102   1.842  16.118 -0.2017  0.7415 -0.1062
  437TIP3   OH222801   2.874   3.758   4.858  0.0570  0.3880  0.4246
  437TIP3    H122802   2.935   3.816   4.813 -0.8866  0.4899 -0.7688
  437TIP3    H222803   2.798   3.813   4.877 -0.2176 -0.0721  0.6805
  438TIP3   OH222804   2.040   0.146   0.106  0.0748  0.1965 -0.0373
  438TIP3    H122805   2.122   0.185   0.076 -0.1519  0.8266  0.1424
  438TIP3    H222806   2.065   0.083   0.173  0.5920 -1.1917 -1.4809
  439TIP3   OH222807   6.678   4.669   0.619 -0.0194  0.1460  0.0513
  439TIP3    H122808   6.711   4.581   0.599  0.1606  0.4426 -1.0109
  439TIP3    H222809   6.590   4.654   0.655  0.3978 -0.5187  0.8222
  440TIP3   OH222810   6.406   5.285   1.503  0.5187  0.3487 -0.0473
  440TIP3    H122811   6.346   5.211   1.498  1.1889 -0.1620 -0.7395
  440TIP3    H222812   6.389   5.336   1.424  0.3863  0.6809  0.1926
  441TIP3   OH222813   6.066   1.156  16.981 -0.5386 -0.1798 -0.3117
  441TIP3    H122814   6.123   1.182  17.053 -1.4627  0.7177  0.1428
  441TIP3    H222815   6.124   1.148  16.905  0.3104 -0.2141  0.3310
  442TIP3   OH222816   5.366   0.291  11.666  1.1498 -0.0892 -0.4356
  442TIP3    H122817   5.328   0.355  11.726  3.7304  0.6239  0.5551
  442TIP3    H222818   5.317   0.303  11.584  0.0510  1.5178  0.4093
  443TIP3   OH222819   5.510   1.608   4.001 -0.2090 -0.3560 -0.6143
  443TIP3    H122820   5.531   1.667   3.929  0.7318  0.9019  0.6445
  443TIP3    H222821   5.563   1.530   3.984  2.3721  1.0876  0.2314
  444TIP3   OH222822   6.023   4.756  16.632 -0.7707 -0.4935 -0.2457
  444TIP3    H122823   6.004   4.689  16.697  1.1714 -0.3244  0.5624
  444TIP3    H222824   6.112   4.737  16.603 -0.4307  1.3114 -0.5026
  445TIP3   OH222825   2.828   1.668  14.576 -0.1350 -0.3918  0.1042
  445TIP3    H122826   2.853   1.729  14.645  2.4751  1.6147 -2.3745
  445TIP3    H222827   2.899   1.603  14.575  0.7319  0.5241 -1.6421
  446TIP3   OH222828   4.141   4.662   5.051  0.2990 -0.2639  0.6641
  446TIP3    H122829   4.132   4.720   5.126 -0.1476  0.4902  0.0358
  446TIP3    H222830   4.226   4.685   5.013  0.1101 -0.0113  0.3991
  447TIP3   OH222831   1.202   1.854   3.629  0.1262 -0.1039 -0.3742
  447TIP3    H122832   1.107   1.862   3.626  0.1846  0.5880 -0.5192
  447TIP3    H222833   1.233   1.943   3.640  0.7352 -0.3899  0.3263
  448TIP3   OH222834   1.773   4.775  15.811  0.7072 -0.5272  0.3368
  448TIP3    H122835   1.856   4.733  15.791  0.7809  0.0834 -0.7023
  448TIP3    H222836   1.772   4.853  15.756 -1.1552 -1.2268 -0.7089
  449TIP3   OH222837   5.628   5.595  14.654 -0.4295 -0.6353  0.0245
  449TIP3    H122838   5.588   5.556  14.731 -0.0201  0.2876  0.7319
  449TIP3    H222839   5.715   5.556  14.649 -0.3278 -0.4416  0.2428
  450TIP3   OH222840   3.613   1.616  16.789  0.5364  0.1834 -0.2725
  450TIP3    H122841   3.640   1.533  16.750 -0.5946 -0.0179 -0.6653
  450TIP3    H222842   3.554   1.655  16.724  1.8906  1.8182 -0.5756
  451TIP3   OH222843   2.051   6.837  16.048  0.6182 -0.2117 -0.0666
  451TIP3    H122844   2.049   6.884  16.131 -0.3771  1.8366 -1.1775
  451TIP3    H222845   2.120   6.880  15.998  0.1264 -0.3518 -0.8830
  452TIP3   OH222846   2.609   0.915   4.960  0.1069  0.4902  0.1756
  452TIP3    H122847   2.695   0.943   4.991  0.2307  0.3347 -0.0250
  452TIP3    H222848   2.627   0.841   4.903 -0.1303  0.6879 -0.1586
  453TIP3   OH222849   0.142   5.166   4.638  0.0166  0.0223 -0.5814
  453TIP3    H122850   0.054   5.146   4.605  0.3044 -1.7249 -0.3706
  453TIP3    H222851   0.168   5.087   4.685  1.1668  1.0226  0.5314
  454TIP3   OH222852   5.081   5.151  12.245  0.5098  0.3231 -0.1931
  454TIP3    H122853   5.155   5.102  12.280 -0.0940 -0.2794  0.2386
  454TIP3    H222854   5.106   5.169  12.154  1.0790 -0.0853 -0.1256
  455TIP3   OH222855   0.388   3.455  13.287  0.0480 -0.2084  0.2961
  455TIP3    H122856   0.325   3.383  13.294 -0.3559 -0.0743 -1.5312
  455TIP3    H222857   0.452   3.426  13.223  0.2332  0.8003 -0.0046
  456TIP3   OH222858   2.736   1.765   4.130  0.8665 -0.3552  0.3753
  456TIP3    H122859   2.827   1.752   4.155  0.4772 -0.8257  1.6146
  456TIP3    H222860   2.730   1.729   4.041  1.5065 -1.8680  0.9133
  457TIP3   OH222861   4.447   1.522  10.330 -0.2455  0.1487 -0.7267
  457TIP3    H122862   4.420   1.447  10.279 -0.7586 -1.0280  1.1715
  457TIP3    H222863   4.543   1.515  10.334 -0.2148  0.1818 -1.4038
  458TIP3   OH222864   3.931   2.793   5.282  0.0236  0.3093  0.5556
  458TIP3    H122865   3.969   2.794   5.370  1.3133 -1.0948  0.0549
  458TIP3    H222866   3.900   2.703   5.271  0.0685  0.4152 -0.5000
  459TIP3   OH222867   3.877   6.646  15.303  0.0911 -0.2524  0.5039
  459TIP3    H122868   3.818   6.696  15.247 -1.2860  0.5607  2.5757
  459TIP3    H222869   3.964   6.664  15.268 -0.7333 -0.6885 -2.0125
  460TIP3   OH222870   1.832   4.136  10.807  0.0551  0.3239 -0.0777
  460TIP3    H122871   1.909   4.159  10.859 -0.2629 -1.2166  1.1602
  460TIP3    H222872   1.758   4.152  10.865 -0.6284  2.0864 -1.3616
  461TIP3   OH222873   4.183   0.744  16.603 -0.2453  0.5553  0.2639
  461TIP3    H122874   4.238   0.801  16.657 -0.5860  1.6595 -0.5160
  461TIP3    H222875   4.243   0.709  16.537 -0.3674  1.3655 -0.2855
  462TIP3   OH222876   3.103   4.620   5.178  0.5109 -0.3747  0.1596
  462TIP3    H122877   3.154   4.642   5.256 -0.3027 -2.0850  1.2486
  462TIP3    H222878   3.129   4.530   5.157  0.3101 -0.1339 -1.2308
  463TIP3   OH222879   4.191   3.820  12.536  0.6742 -0.3298  0.6445
  463TIP3    H122880   4.116   3.788  12.586 -0.7293  0.3181 -0.9142
  463TIP3    H222881   4.155   3.837  12.449  2.2700  1.5962  0.2989
  464TIP3   OH222882   3.230   4.025   0.849 -0.2011  0.3115 -0.0263
  464TIP3    H122883   3.309   4.063   0.811  0.4321  0.2851  1.2161
  464TIP3    H222884   3.194   4.094   0.904 -1.3403  0.4961 -0.9630
  465TIP3   OH222885   5.975   4.808  15.821 -0.1372  0.0483 -0.1938
  465TIP3    H122886   5.902   4.811  15.759  0.9680  0.7861 -1.4826
  465TIP3    H222887   5.941   4.754  15.893 -1.9592  0.3781 -0.7359
  466TIP3   OH222888   0.862   2.190   3.594  0.3094 -0.2671  0.2075
  466TIP3    H122889   0.915   2.129   3.543  3.1455  0.7355  1.7506
  466TIP3    H222890   0.772   2.171   3.568  1.3933 -1.5498 -3.1851
  467TIP3   OH222891   0.497   6.679  12.039 -0.1002 -0.0900  0.1980
  467TIP3    H122892   0.576   6.692  11.986 -1.9931 -2.4455 -3.6007
  467TIP3    H222893   0.505   6.591  12.074 -0.2065  0.3927  1.4969
  468TIP3   OH222894   5.915   2.744  13.020 -0.0220 -0.0375 -0.0817
  468TIP3    H122895   5.937   2.799  12.945  0.2318 -0.9488 -0.6890
  468TIP3    H222896   5.995   2.693  13.036  0.5344  1.3153  1.8806
  469TIP3   OH222897   3.583   1.035  12.555  0.1554 -0.3547  0.6463
  469TIP3    H122898   3.558   1.056  12.645 -1.5634 -2.6190  0.7800
  469TIP3    H222899   3.588   1.120  12.511  0.6954  0.7748  2.7699
  470TIP3   OH222900   0.091   5.798   4.653  0.9226  0.1911 -0.3651
  470TIP3    H122901   0.161   5.783   4.717  2.2302  1.9188 -1.3155
  470TIP3    H222902   0.116   5.879   4.608 -0.3826 -0.4927 -2.4728
  471TIP3   OH222903   3.816   2.186   4.908  0.4507 -0.3346  0.3064
  471TIP3    H122904   3.772   2.181   4.993 -0.9797 -0.4511 -0.4030
  471TIP3    H222905   3.757   2.138   4.849  2.4212 -2.0633 -0.3730
  472TIP3   OH222906   2.892   3.926   1.291 -0.6056 -0.2367  0.0348
  472TIP3    H122907   2.875   3.965   1.206 -2.6695 -0.6572  0.1787
  472TIP3    H222908   2.958   3.859   1.274 -0.2456  0.3688 -1.0375
  473TIP3   OH222909   2.332   5.635  13.102 -0.1022  0.4733 -0.0691
  473TIP3    H122910   2.354   5.699  13.170 -0.0689  0.5177 -0.1228
  473TIP3    H222911   2.300   5.687  13.029 -0.2735  0.4162 -0.0360
  474TIP3   OH222912   1.347   4.289  13.905  0.3277  0.5557 -0.3119
  474TIP3    H122913   1.391   4.301  13.821 -0.1659 -0.7695 -0.7800
  474TIP3    H222914   1.417   4.300  13.970  0.4674  2.8924 -0.7900
  475TIP3   OH222915   1.385   3.964  10.737 -0.4651  0.5594 -0.1638
  475TIP3    H122916   1.457   3.980  10.676 -0.4845  0.5290 -0.1951
  475TIP3    H222917   1.308   3.951  10.681  0.0154 -2.3407 -0.3355
  476TIP3   OH222918   6.455   2.508  11.856 -0.0248 -0.5052 -0.0499
  476TIP3    H122919   6.416   2.494  11.942 -1.8550 -1.6900 -0.9930
  476TIP3    H222920   6.381   2.500  11.795  1.3125 -0.3349 -1.7794
  477TIP3   OH222921   3.161   0.218  13.449 -0.5321 -0.1752 -0.0079
  477TIP3    H122922   3.109   0.212  13.369 -1.4514 -0.2179  0.5769
  477TIP3    H222923   3.202   0.132  13.458 -0.7453 -0.2990 -0.2233
  478TIP3   OH222924   0.944   5.701  11.272  0.3253  0.0218 -0.6712
  478TIP3    H122925   0.940   5.768  11.340 -1.8140 -1.4509  0.7867
  478TIP3    H222926   0.868   5.718  11.216  0.6843 -0.2371 -1.2484
  479TIP3   OH222927   6.673   4.685  16.136  0.4046 -0.4923 -0.4786
  479TIP3    H122928   6.578   4.673  16.130 -0.0227  2.1693 -0.1268
  479TIP3    H222929   6.687   4.718  16.225  1.5999 -0.2786 -0.7311
  480TIP3   OH222930   1.392   0.909   3.861  0.4713 -0.7004 -0.0967
  480TIP3    H122931   1.401   0.989   3.810  2.1384 -0.3541  0.6899
  480TIP3    H222932   1.309   0.919   3.907 -0.6874 -0.6688 -2.0477
  481TIP3   OH222933   0.858   5.756   0.466 -0.0849 -0.0090  0.4478
  481TIP3    H122934   0.891   5.746   0.377 -0.6378 -0.3441  0.2746
  481TIP3    H222935   0.903   5.688   0.516  1.2436  1.0476  0.7246
  482TIP3   OH222936   0.849   2.089   0.153 -0.3789  0.3006 -0.0355
  482TIP3    H122937   0.939   2.108   0.179  0.3719  0.3166 -2.3971
  482TIP3    H222938   0.796   2.153   0.200  1.2006  2.5374 -1.1178
  483TIP3   OH222939   1.672   4.321   2.033 -0.4679  0.7928  0.0134
  483TIP3    H122940   1.650   4.338   1.941  0.8536 -2.0586 -0.9590
  483TIP3    H222941   1.764   4.345   2.041  0.2183 -1.5415 -0.2490
  484TIP3   OH222942   2.796   5.050   2.742  0.1919 -0.4848  0.3285
  484TIP3    H122943   2.795   5.142   2.715  1.5776 -0.2329  1.0112
  484TIP3    H222944   2.715   5.013   2.706  0.2660  0.6641 -1.1231
  485TIP3   OH222945   5.051   1.875   1.302 -0.2468  0.4661  0.5279
  485TIP3    H122946   4.984   1.916   1.248 -0.9516  1.9816  2.4577
  485TIP3    H222947   5.133   1.915   1.272 -0.6497  1.4394  0.6808
  486TIP3   OH222948   6.180   6.250  14.415  0.0777  0.4574 -0.2329
  486TIP3    H122949   6.177   6.183  14.347 -0.3310  0.1570  0.0745
  486TIP3    H222950   6.096   6.295  14.407 -0.4908 -0.3526  0.8334
  487TIP3   OH222951   3.421   1.872   4.970  0.3373  0.5586  0.1241
  487TIP3    H122952   3.387   1.898   5.056 -1.9121 -1.5836 -0.0152
  487TIP3    H222953   3.493   1.812   4.991 -0.8286 -0.7364  0.6114
  488TIP3   OH222954   5.001   3.862  15.236  0.1536  0.7105 -0.4203
  488TIP3    H122955   5.016   3.777  15.277 -1.3602 -0.9228 -2.9810
  488TIP3    H222956   4.955   3.913  15.303  0.9307 -0.5007  1.1164
  489TIP3   OH222957   3.455   1.501   0.051 -0.2898  0.5528 -0.3107
  489TIP3    H122958   3.463   1.406   0.052  1.2990  0.6493  0.1339
  489TIP3    H222959   3.415   1.521  -0.034 -1.0262 -0.5149 -0.2396
  490TIP3   OH222960   6.383   6.729  11.515 -0.3072  0.2135  0.3151
  490TIP3    H122961   6.427   6.719  11.431 -0.3625  3.1059 -0.1638
  490TIP3    H222962   6.352   6.641  11.537 -0.7134 -0.5553 -2.8886
  491TIP3   OH222963   3.022   4.490  10.393 -0.2981 -0.1657  0.1075
  491TIP3    H122964   3.046   4.581  10.379  0.5523 -0.2483  0.9618
  491TIP3    H222965   2.991   4.460  10.307  0.5900  0.5773 -0.4857
  492TIP3   OH222966   6.757   4.060   4.203 -0.3790 -0.0659  0.3378
  492TIP3    H122967   6.786   4.058   4.294 -0.3676  0.1000  0.3388
  492TIP3    H222968   6.668   4.095   4.208  0.7323  3.1703  0.0276
  493TIP3   OH222969   4.850   2.779  11.512  0.6365 -0.1247  0.2817
  493TIP3    H122970   4.849   2.874  11.528  1.6496  0.2113 -1.3817
  493TIP3    H222971   4.830   2.771  11.419 -2.5313 -1.7719  1.0001
  494TIP3   OH222972   6.696   1.457   0.976 -0.3127  0.2450  0.3688
  494TIP3    H122973   6.643   1.537   0.976  1.2983  1.4074 -1.1478
  494TIP3    H222974   6.768   1.477   1.037  0.8597  0.5743 -1.0561
  495TIP3   OH222975   5.810   1.425  12.348  0.1540 -0.4036  0.1918
  495TIP3    H122976   5.739   1.411  12.286  0.0274  0.0378  0.2362
  495TIP3    H222977   5.823   1.339  12.389 -0.2019 -0.5386  0.0278
  496TIP3   OH222978   3.232   2.781   2.910 -0.2605  0.3665  0.4575
  496TIP3    H122979   3.217   2.871   2.938 -0.3677  0.3283  0.5244
  496TIP3    H222980   3.260   2.735   2.989  0.6602  0.5352  0.2451
  497TIP3   OH222981   0.866   6.622   0.642  0.2271 -0.0333 -0.3223
  497TIP3    H122982   0.897   6.548   0.695  0.3552 -0.0543 -0.4263
  497TIP3    H222983   0.942   6.679   0.635 -0.2358  0.7930  0.9290
  498TIP3   OH222984   3.800   0.972   3.871 -0.0340 -0.6846  0.7956
  498TIP3    H122985   3.870   0.907   3.867  1.0986  0.4238  1.4992
  498TIP3    H222986   3.773   0.972   3.963 -1.6081 -1.7147  0.3660
  499TIP3   OH222987   4.017   3.721  11.173 -0.6656  0.1503  0.4761
  499TIP3    H122988   4.083   3.753  11.235  0.5664  0.7115 -1.0473
  499TIP3    H222989   3.962   3.797  11.155 -0.1992  0.3634 -0.0992
  500TIP3   OH222990   6.285   2.668   1.339  0.3954 -0.2291  0.1273
  500TIP3    H122991   6.273   2.637   1.429 -1.0480 -0.7494 -0.2196
  500TIP3    H222992   6.256   2.759   1.341 -1.7933 -0.8638 -0.2409
  501TIP3   OH222993   1.518   1.569  15.531 -0.1905 -0.2487  0.2373
  501TIP3    H122994   1.563   1.506  15.475 -2.1328 -0.6424 -0.9866
  501TIP3    H222995   1.584   1.635  15.551  1.2129 -1.3727 -0.5028
  502TIP3   OH222996   3.060   1.823  13.229 -0.0767 -0.3476  0.0456
  502TIP3    H122997   3.045   1.799  13.321  0.3934  0.6845  0.4095
  502TIP3    H222998   3.151   1.796  13.212 -0.4872 -1.4811 -0.4464
  503TIP3   OH222999   6.607   3.513   4.483 -0.3263  0.4519 -0.5414
  503TIP3    H123000   6.521   3.472   4.486 -0.0125 -0.2745 -1.1267
  503TIP3    H223001   6.645   3.484   4.400  0.9481 -0.2014  0.2247
  504TIP3   OH223002   1.208   0.694  14.001 -0.2401 -0.2339 -0.0553
  504TIP3    H123003   1.280   0.706  13.939  2.0612 -1.9489  2.1264
  504TIP3    H223004   1.197   0.780  14.041 -1.5342  0.8191 -2.4220
  505TIP3   OH223005   4.547   1.290   3.371 -0.4226 -0.0521 -0.3308
  505TIP3    H123006   4.463   1.323   3.340 -0.8555  0.6236  1.4264
  505TIP3    H223007   4.533   1.196   3.384 -0.3041 -0.2992 -1.8508
  506TIP3   OH223008   3.369   5.322  16.469 -0.7000  0.3779 -0.0375
  506TIP3    H123009   3.345   5.230  16.459 -0.9062  0.5372 -1.0521
  506TIP3    H223010   3.388   5.332  16.563 -0.2126 -0.8027  0.0017
  507TIP3   OH223011   6.490   6.739   4.612  0.1857  0.0899  0.0138
  507TIP3    H123012   6.584   6.751   4.626  0.2553 -1.5763  1.3133
  507TIP3    H223013   6.480   6.645   4.598 -1.3565  0.1524  0.5518
  508TIP3   OH223014   3.155   0.286  11.918 -0.3649 -0.0975  0.2879
  508TIP3    H123015   3.097   0.278  11.994 -0.6328  1.8847  0.3345
  508TIP3    H223016   3.197   0.371  11.929  1.5757 -0.9061 -0.4605
  509TIP3   OH223017   1.952   6.473   0.911  0.3686  0.3974  0.7133
  509TIP3    H123018   1.894   6.532   0.864 -0.0425 -0.9273 -0.5293
  509TIP3    H223019   1.992   6.527   0.979  0.0819  2.1108 -0.4116
  510TIP3   OH223020   6.286   6.846   3.016 -0.7317 -0.4513 -0.4713
  510TIP3    H123021   6.211   6.854   3.075 -0.3518  2.5817 -0.2371
  510TIP3    H223022   6.250   6.864   2.929 -0.1286  2.7731 -0.1635
  511TIP3   OH223023   0.284   3.294   4.063 -0.2851  0.3318 -0.3815
  511TIP3    H123024   0.215   3.360   4.058 -0.2741  0.7435  2.8379
  511TIP3    H223025   0.259   3.238   4.137  2.1315 -0.3200  0.0493
  512TIP3   OH223026   1.290   4.735  14.006  0.3030  0.4038  0.5507
  512TIP3    H123027   1.375   4.691  14.002 -0.9535 -2.0883 -0.6217
  512TIP3    H223028   1.292   4.797  13.933  0.3186 -1.2441 -0.8949
  513TIP3   OH223029   2.483   4.765   3.500  0.1239  0.2344 -0.3058
  513TIP3    H123030   2.465   4.859   3.498 -3.2696 -0.2156  1.9324
  513TIP3    H223031   2.448   4.736   3.583 -1.6703 -3.4876 -2.1419
  514TIP3   OH223032   6.222   2.984  11.730  0.8813 -0.0653 -0.6074
  514TIP3    H123033   6.206   3.078  11.721  2.2794  0.5848  2.4742
  514TIP3    H223034   6.306   2.970  11.688  1.3834  0.3824  0.2297
  515TIP3   OH223035   2.306   3.360   6.040  0.8785 -0.1571  0.3539
  515TIP3    H123036   2.211   3.355   6.024  0.7382 -0.5568  1.2272
  515TIP3    H223037   2.313   3.395   6.128  1.5716  0.4160  0.0755
  516TIP3   OH223038   6.491   5.286   2.887 -0.0103 -0.4670  0.4662
  516TIP3    H123039   6.515   5.312   2.976  0.7986 -1.1211  0.4468
  516TIP3    H223040   6.437   5.207   2.899  0.1460 -0.5871  0.3696
  517TIP3   OH223041   3.088   2.697  10.552 -0.4777  0.5379  0.2339
  517TIP3    H123042   2.996   2.681  10.533 -0.1458 -0.8389 -0.3236
  517TIP3    H223043   3.115   2.764  10.489 -0.3968 -1.0986 -1.5316
  518TIP3   OH223044   6.738   6.353   2.449  0.3209 -0.0370 -0.3746
  518TIP3    H123045   6.785   6.305   2.518  0.7507  0.4682 -0.3152
  518TIP3    H223046   6.798   6.422   2.422 -0.6846  1.1328  0.2826
  519TIP3   OH223047   2.664   4.347   4.135  0.8698  0.4927 -0.1449
  519TIP3    H123048   2.736   4.389   4.182 -0.3479  2.3260  0.1947
  519TIP3    H223049   2.693   4.344   4.044  1.2990  1.4199 -0.0513
  520TIP3   OH223050   0.594   5.088  14.666 -0.3584  0.1164 -0.1006
  520TIP3    H123051   0.517   5.031  14.659  0.7176 -1.4447  0.3458
  520TIP3    H223052   0.615   5.111  14.575  0.2275 -1.6575 -0.4406
  521TIP3   OH223053   5.527   4.756  12.962  0.3111 -0.8707 -0.5255
  521TIP3    H123054   5.589   4.788  13.028  1.8834 -1.9225 -1.4462
  521TIP3    H223055   5.462   4.706  13.012  0.7512 -0.5933  0.3457
  522TIP3   OH223056   5.092   4.264   4.099 -0.0500 -0.3615  0.0049
  522TIP3    H123057   5.182   4.232   4.092  0.1516 -0.4829  2.4722
  522TIP3    H223058   5.095   4.351   4.060  1.9001  0.8664  2.5850
  523TIP3   OH223059   2.816   5.304   3.982 -0.2127  0.0247 -0.3636
  523TIP3    H123060   2.728   5.268   3.967  0.6275 -2.5549  0.4510
  523TIP3    H223061   2.816   5.331   4.073 -0.2326  0.2972 -0.4426
  524TIP3   OH223062   3.160   5.946   0.516 -0.5506 -0.2282  0.8084
  524TIP3    H123063   3.118   6.032   0.506 -0.4144 -0.1827  0.6249
  524TIP3    H223064   3.086   5.885   0.527 -0.6214  0.0064  1.6909
  525TIP3   OH223065   2.512   2.714   1.274  0.1156 -0.6177 -0.0373
  525TIP3    H123066   2.546   2.797   1.242 -0.0507 -0.9090 -0.9924
  525TIP3    H223067   2.418   2.729   1.284 -0.0109 -0.8813 -0.8237
  526TIP3   OH223068   1.958   4.105   4.161 -0.2788 -0.4257  0.0460
  526TIP3    H123069   1.998   4.097   4.074  0.0747  0.3907  0.1272
  526TIP3    H223070   1.877   4.053   4.154 -1.8302  1.9717 -1.7558
  527TIP3   OH223071   4.402   1.909  14.289 -0.1030  0.3008 -0.1611
  527TIP3    H123072   4.378   1.921  14.381  0.4916  2.3478 -0.2200
  527TIP3    H223073   4.321   1.926  14.241 -1.0731 -3.1770 -0.0147
  528TIP3   OH223074   6.355   2.373   5.506  0.8490 -0.0104  0.2400
  528TIP3    H123075   6.289   2.373   5.575  0.7030  0.3946  0.1042
  528TIP3    H223076   6.318   2.317   5.437 -0.1778  1.6176 -0.5995
  529TIP3   OH223077   0.709   6.253  16.772  0.0557 -0.0098 -0.0593
  529TIP3    H123078   0.762   6.173  16.778 -1.8033 -1.2984  0.2440
  529TIP3    H223079   0.658   6.242  16.691 -1.6451 -0.1119  0.9714
  530TIP3   OH223080   0.681   2.932   1.634 -0.3837  0.2709 -0.0439
  530TIP3    H123081   0.770   2.905   1.610  0.1167  1.1394  0.7515
  530TIP3    H223082   0.642   2.854   1.674  0.7436  0.4424  1.4677
  531TIP3   OH223083   0.321   0.492   4.133  0.5844 -0.6935  0.1761
  531TIP3    H123084   0.416   0.483   4.133  0.5242 -3.3662  3.3119
  531TIP3    H223085   0.298   0.506   4.225 -2.0995 -1.1958 -0.3267
  532TIP3   OH223086   2.729   4.492  16.713 -0.1842  0.3202 -0.2429
  532TIP3    H123087   2.735   4.520  16.804  0.6847  0.4849 -0.3411
  532TIP3    H223088   2.820   4.493  16.682 -0.3705 -0.6638 -0.8354
  533TIP3   OH223089   3.067   4.075   6.450 -0.0759 -0.4773  0.1624
  533TIP3    H123090   3.147   4.124   6.430 -0.1172 -0.7108 -0.6050
  533TIP3    H223091   3.038   4.041   6.365 -1.3551  0.1440  0.3259
  534TIP3   OH223092   4.223   5.900  13.910 -0.0192  0.0284  0.4271
  534TIP3    H123093   4.288   5.923  13.844 -1.1419 -0.7160 -1.0098
  534TIP3    H223094   4.176   5.981  13.927 -0.0470  0.1185 -0.0702
  535TIP3   OH223095   4.878   1.890   4.420 -0.4579 -0.1566  0.2227
  535TIP3    H123096   4.940   1.850   4.360 -0.2758  0.0419  0.2812
  535TIP3    H223097   4.792   1.867   4.384 -0.3585 -0.7566  0.3539
  536TIP3   OH223098   5.933   0.283  12.400 -0.0231 -0.1563  0.7731
  536TIP3    H123099   5.858   0.302  12.456 -1.1000 -0.3194 -0.5461
  536TIP3    H223100   5.972   0.368  12.381 -0.8533  0.1105  0.1993
  537TIP3   OH223101   2.610   1.547   2.605 -0.3952  0.1399 -0.4745
  537TIP3    H123102   2.535   1.571   2.661 -1.3700 -2.4737 -0.5476
  537TIP3    H223103   2.627   1.626   2.554 -1.7764  1.4714  1.0025
  538TIP3   OH223104   5.146   2.676  14.409  0.3706 -0.2722  0.2300
  538TIP3    H123105   5.218   2.614  14.418  1.4463  0.6963 -1.2191
  538TIP3    H223106   5.120   2.696  14.499 -0.7886 -3.6043  0.7855
  539TIP3   OH223107   2.046   6.820  13.182  0.4682 -0.0619  0.3354
  539TIP3    H123108   2.132   6.820  13.225  2.6395  0.3655 -3.5583
  539TIP3    H223109   2.018   6.912  13.185  1.7323  0.4073 -1.0604
  540TIP3   OH223110   1.803   0.227  15.556 -0.9565  0.2063  0.2189
  540TIP3    H123111   1.783   0.162  15.624 -0.2254  0.4228  0.6472
  540TIP3    H223112   1.837   0.175  15.483  4.9189  0.2584  2.3781
  541TIP3   OH223113   1.172   3.962   3.214 -0.4252 -0.1808  0.7938
  541TIP3    H123114   1.249   3.936   3.266  0.0140  2.0553  1.3660
  541TIP3    H223115   1.209   3.990   3.130 -0.7684 -0.3843  0.5752
  542TIP3   OH223116   4.848   6.782  12.713 -0.4336 -0.2906 -0.3906
  542TIP3    H123117   4.821   6.864  12.754  0.9472  0.1255 -0.2500
  542TIP3    H223118   4.864   6.806  12.621  0.5123 -0.2558 -0.2271
  543TIP3   OH223119   5.982   4.155   3.581  0.4292  0.0389  0.6939
  543TIP3    H123120   6.004   4.231   3.528 -1.5841 -0.3963 -0.8416
  543TIP3    H223121   5.963   4.191   3.668  2.0915  0.9323  0.7444
  544TIP3   OH223122   0.604   5.028  13.497 -0.0087 -0.2517  0.2403
  544TIP3    H123123   0.537   4.962  13.480 -2.3428  1.7515  1.1022
  544TIP3    H223124   0.617   5.071  13.413  0.7836 -1.1071 -0.0937
  545TIP3   OH223125   0.165   5.745   5.075  0.9724 -0.3905 -0.4426
  545TIP3    H123126   0.120   5.813   5.024 -1.8673 -1.7608  0.0201
  545TIP3    H223127   0.192   5.681   5.009 -1.2592 -1.3751 -0.5028
  546TIP3   OH223128   4.999   5.938   0.078  0.3243  0.2318 -0.1251
  546TIP3    H123129   4.917   5.891   0.097  1.4873 -1.1715  1.7936
  546TIP3    H223130   5.047   5.936   0.161  0.7929  4.2723 -0.1078
  547TIP3   OH223131   6.634   3.751  14.849 -0.1166  0.2104 -0.0219
  547TIP3    H123132   6.589   3.673  14.880 -0.7261  0.8376  0.6944
  547TIP3    H223133   6.717   3.751  14.897  0.6133 -0.8526 -1.2189
  548TIP3   OH223134   2.134   3.474   3.884  0.3249  0.4320 -0.0049
  548TIP3    H123135   2.180   3.399   3.847  1.2972  0.4106  1.1697
  548TIP3    H223136   2.204   3.535   3.909 -0.4114  1.4341 -0.3007
  549TIP3   OH223137   2.370   3.227   0.230  0.3054 -0.0575  0.6106
  549TIP3    H123138   2.458   3.190   0.218  0.1725 -0.0035 -0.7414
  549TIP3    H223139   2.313   3.151   0.242  0.4168 -0.1474  0.5730
  550TIP3   OH223140   3.921   1.339   0.121 -0.3039 -0.0849  0.2883
  550TIP3    H123141   3.846   1.398   0.114 -0.6521 -0.3583  1.5453
  550TIP3    H223142   3.928   1.299   0.034 -1.0132  0.6613 -0.1261
  551TIP3   OH223143   2.882   2.752  14.314  0.3552  0.4299  0.0717
  551TIP3    H123144   2.972   2.780  14.293  0.6161 -0.6063 -0.2764
  551TIP3    H223145   2.871   2.671  14.264 -0.6756  0.3915  0.3547
  552TIP3   OH223146   3.398   4.741   3.993 -0.1218 -0.3758  0.1270
  552TIP3    H123147   3.439   4.822   3.962  0.6271 -0.6690  0.3280
  552TIP3    H223148   3.467   4.676   3.986 -1.4173 -1.6195 -2.5452
  553TIP3   OH223149   3.232   6.081   1.833  0.5858 -0.1006 -0.0692
  553TIP3    H123150   3.311   6.041   1.797  0.6470  1.3332 -1.6917
  553TIP3    H223151   3.251   6.094   1.926  1.8513 -0.7190 -0.2231
  554TIP3   OH223152   4.325   2.833   1.933  0.0269  0.2297  0.0930
  554TIP3    H123153   4.336   2.768   1.863 -1.1143 -0.0721  0.1783
  554TIP3    H223154   4.404   2.887   1.927 -1.3907  2.2436 -3.5443
  555TIP3   OH223155   4.825   0.824   2.596  0.3968 -0.6586  0.6380
  555TIP3    H123156   4.835   0.773   2.515 -1.9761 -0.2300  0.0123
  555TIP3    H223157   4.900   0.885   2.595  0.3595 -0.5799 -1.3024
  556TIP3   OH223158   5.905   1.841  14.574  0.2927 -0.5927 -0.2327
  556TIP3    H123159   5.818   1.801  14.581  0.2756 -0.7827 -1.4260
  556TIP3    H223160   5.965   1.768  14.588  0.2593 -0.7956 -1.1271
  557TIP3   OH223161   6.301   6.077   0.543 -0.3539  0.1132  0.3462
  557TIP3    H123162   6.384   6.030   0.533 -0.1747  0.5048 -0.0217
  557TIP3    H223163   6.244   6.041   0.475  0.5366  2.0537 -1.5395
  558TIP3   OH223164   4.108   0.138   5.994 -0.1273  0.0801 -0.5457
  558TIP3    H123165   4.132   0.225   6.025  1.7723  0.2287 -2.2097
  558TIP3    H223166   4.191   0.092   5.984 -1.0225 -1.5588 -0.7165
  559TIP3   OH223167   5.007   2.145  11.869  0.3818 -0.2714  0.1253
  559TIP3    H123168   5.081   2.084  11.878 -0.0427 -0.7602  0.3775
  559TIP3    H223169   4.944   2.098  11.815  1.1598  1.0223 -2.0191
  560TIP3   OH223170   4.997   3.177   0.681 -0.0826  0.6632  0.2386
  560TIP3    H123171   5.031   3.220   0.760  0.4410 -1.6480  1.3682
  560TIP3    H223172   5.053   3.210   0.611 -0.5448  2.7572  0.7738
  561TIP3   OH223173   0.103   2.165   2.666  0.3792 -0.1024 -0.3413
  561TIP3    H123174   0.008   2.162   2.654  0.2410 -0.8757  0.8344
  561TIP3    H223175   0.133   2.230   2.602 -0.9979  0.5699 -0.3422
  562TIP3   OH223176   6.516   3.238  16.157  0.1420 -0.8295 -0.5535
  562TIP3    H123177   6.488   3.328  16.178 -0.5543 -0.9343 -0.9789
  562TIP3    H223178   6.458   3.183  16.210  1.5160 -1.0241  0.8057
  563TIP3   OH223179   4.994   6.645   0.165  0.0301  0.2090  0.2241
  563TIP3    H123180   5.083   6.612   0.174  0.6724  1.1990 -1.8842
  563TIP3    H223181   4.997   6.702   0.088 -2.4683  0.1064 -0.0333
  564TIP3   OH223182   3.473   4.229  14.743 -0.2024  0.0955 -0.0372
  564TIP3    H123183   3.522   4.269  14.815  0.6546 -0.7718 -0.1099
  564TIP3    H223184   3.426   4.302  14.702  1.7173  1.1335 -0.4965
  565TIP3   OH223185   3.480   0.880   3.436 -0.0552  0.3142  0.2464
  565TIP3    H123186   3.435   0.901   3.354  0.5390  0.4533 -0.0524
  565TIP3    H223187   3.552   0.942   3.441  0.2147 -0.0195  0.6239
  566TIP3   OH223188   4.366   6.418   5.081  0.2161 -0.3571 -0.0676
  566TIP3    H123189   4.397   6.493   5.030 -1.3448  0.4726  0.1391
  566TIP3    H223190   4.279   6.398   5.044 -2.1800  1.8821  3.6934
  567TIP3   OH223191   6.133   0.466   3.722 -0.2024  0.2404 -0.7548
  567TIP3    H123192   6.073   0.397   3.692  2.2095 -2.1212 -0.4862
  567TIP3    H223193   6.201   0.470   3.655  1.6147 -0.2421  0.9651
  568TIP3   OH223194   0.408   4.917   3.012  0.4818  0.1508 -0.4336
  568TIP3    H123195   0.410   4.966   3.094 -0.9864 -0.7361  0.1660
  568TIP3    H223196   0.430   4.827   3.037 -1.9645 -0.5676 -0.6209
  569TIP3   OH223197   2.254   4.479  11.924  0.2678 -0.1341  0.5237
  569TIP3    H123198   2.323   4.413  11.927  0.1686 -0.1954  3.0894
  569TIP3    H223199   2.173   4.431  11.939  0.0146  0.3620  0.7948
  570TIP3   OH223200   2.275   1.599   5.737 -0.0922  0.6014 -0.3328
  570TIP3    H123201   2.322   1.676   5.708  1.5393  0.4801  1.7783
  570TIP3    H223202   2.255   1.616   5.829  1.0116 -1.7614  0.4299
  571TIP3   OH223203   1.752   4.371   1.682  0.2968 -0.4733 -0.5905
  571TIP3    H123204   1.738   4.446   1.624  0.5741 -0.1936 -0.2975
  571TIP3    H223205   1.784   4.409   1.764  1.9745 -1.0066 -0.9595
  572TIP3   OH223206   0.681   2.875  12.085 -0.0305 -0.4221 -0.0175
  572TIP3    H123207   0.645   2.815  12.150 -0.4545  1.0200  1.1271
  572TIP3    H223208   0.729   2.941  12.136  0.0974  0.4303 -1.1919
  573TIP3   OH223209   3.330   4.648  11.696  0.1771  0.2094 -0.1799
  573TIP3    H123210   3.314   4.597  11.617  2.9710  0.2744 -0.8971
  573TIP3    H223211   3.307   4.589  11.768 -3.9150  0.6815 -0.8791
  574TIP3   OH223212   0.143   6.665   4.354 -0.3355  0.9064  0.1339
  574TIP3    H123213   0.124   6.625   4.439  1.2548  0.8435  0.4930
  574TIP3    H223214   0.177   6.752   4.376  0.0722  0.8964 -0.4519
  575TIP3   OH223215   6.222   0.368  13.482  0.6878 -0.3807  0.1321
  575TIP3    H123216   6.300   0.349  13.535  2.2357  1.2127 -1.4330
  575TIP3    H223217   6.203   0.460  13.499  0.9198  0.0332 -1.6327
  576TIP3   OH223218   2.027   4.826  16.880  0.3763 -0.6820 -0.0700
  576TIP3    H123219   1.958   4.824  16.945  1.5173  2.6612  1.4474
  576TIP3    H223220   2.102   4.783  16.923 -0.0033 -2.2235 -0.8536
  577TIP3   OH223221   0.101   4.436  14.717  0.3284  0.1596 -0.5626
  577TIP3    H123222   0.041   4.412  14.647 -0.5947  0.6208  0.0519
  577TIP3    H223223   0.183   4.391  14.696 -0.2506 -0.5242 -1.3805
  578TIP3   OH223224   6.281   4.179   3.073 -0.2477 -0.0879 -0.2115
  578TIP3    H123225   6.318   4.131   2.999  1.0881 -0.3448  0.5866
  578TIP3    H223226   6.248   4.260   3.035  0.8272 -0.0075 -1.0403
  579TIP3   OH223227   3.330   2.103  14.306  0.9741 -0.2695 -0.6630
  579TIP3    H123228   3.415   2.062  14.319  1.6494  1.7136  1.5850
  579TIP3    H223229   3.345   2.197  14.315 -1.7163  0.0691  1.7893
  580TIP3   OH223230   2.978   0.771   3.751  0.0192 -0.3828 -0.0510
  580TIP3    H123231   3.073   0.786   3.750 -0.0384  0.2416 -2.7991
  580TIP3    H223232   2.940   0.850   3.714 -1.4309 -1.3121 -0.6597
  581TIP3   OH223233   0.217   5.385  11.387 -0.4229 -0.3556 -0.3220
  581TIP3    H123234   0.230   5.295  11.417 -0.3257 -1.6203 -3.6849
  581TIP3    H223235   0.127   5.389  11.357 -0.6431  0.9270  0.4136
  582TIP3   OH223236   2.539   5.933   4.808  0.0906  0.2527 -0.2964
  582TIP3    H123237   2.446   5.920   4.789  0.0506  0.5031 -0.2754
  582TIP3    H223238   2.541   6.008   4.867  0.0166 -1.7648  2.4771
  583TIP3   OH223239   4.304   1.244  16.643 -0.1399  0.1428  0.3013
  583TIP3    H123240   4.306   1.292  16.560 -1.3211  0.3250  0.3615
  583TIP3    H223241   4.217   1.204  16.645  0.3758 -0.9917  0.8322
  584TIP3   OH223242   4.403   4.130  16.138  0.7126 -0.6684  0.3339
  584TIP3    H123243   4.451   4.181  16.203  1.8384 -0.9664 -0.2411
  584TIP3    H223244   4.470   4.102  16.075 -0.3870 -0.0892 -1.1471
  585TIP3   OH223245   6.185   4.560  12.566  0.2525  0.0535 -0.2711
  585TIP3    H123246   6.246   4.577  12.638  0.9997 -1.2969 -0.5539
  585TIP3    H223247   6.197   4.467  12.546 -0.7533  0.1456 -1.4099
  586TIP3   OH223248   0.642   2.432   1.097  0.7616  0.2035  0.4483
  586TIP3    H123249   0.655   2.435   1.002  1.3597 -0.4170  0.5062
  586TIP3    H223250   0.691   2.355   1.125 -0.2668 -0.2195  1.1285
  587TIP3   OH223251   0.589   4.368   2.129  0.0809  0.2131 -0.3420
  587TIP3    H123252   0.660   4.432   2.117  0.6284 -0.3409 -0.1374
  587TIP3    H223253   0.574   4.333   2.041 -2.4738  2.8851 -1.1344
  588TIP3   OH223254   1.496   2.563   6.331  0.4558 -0.0949  0.1122
  588TIP3    H123255   1.564   2.623   6.363  1.3848 -1.2727  0.4200
  588TIP3    H223256   1.421   2.620   6.314  1.1521  1.0981  0.8155
  589TIP3   OH223257   3.878   0.130   5.217 -0.3192 -0.4582  0.6198
  589TIP3    H123258   3.960   0.107   5.260 -0.0131 -1.2494 -0.3286
  589TIP3    H223259   3.863   0.222   5.239  0.9843 -0.2172  0.5472
  590TIP3   OH223260   6.879   0.853  14.510 -0.0761 -0.0074  0.1432
  590TIP3    H123261   6.842   0.782  14.457  2.5098 -0.2415 -1.5287
  590TIP3    H223262   6.840   0.933  14.473  1.5607 -0.1737 -2.1917
  591TIP3   OH223263   5.584   4.346   1.398  0.1469 -0.2477  0.0120
  591TIP3    H123264   5.502   4.390   1.376  0.4181  0.0929 -0.3331
  591TIP3    H223265   5.652   4.400   1.356  0.5773 -0.2690  0.6601
  592TIP3   OH223266   6.384   6.555   3.811 -0.3849  0.1092  0.3543
  592TIP3    H123267   6.426   6.618   3.752  3.3188 -0.4303  2.1623
  592TIP3    H223268   6.341   6.610   3.877  1.4930  0.8487  1.0412
  593TIP3   OH223269   3.344   0.338   4.876  0.1074  0.2172  0.1756
  593TIP3    H123270   3.292   0.310   4.800 -1.4129  1.8646  0.5516
  593TIP3    H223271   3.350   0.259   4.930  0.6409 -0.8019 -1.3043
  594TIP3   OH223272   6.850   2.963  12.265 -0.0248 -0.2299  0.4652
  594TIP3    H123273   6.840   2.938  12.173  1.0528  1.7365 -0.2683
  594TIP3    H223274   6.760   2.970  12.298 -0.4366 -0.7202 -0.5126
  595TIP3   OH223275   3.466   1.144   5.555  0.7907 -0.1833 -0.2608
  595TIP3    H123276   3.394   1.204   5.534  0.4364 -1.1256 -1.8458
  595TIP3    H223277   3.545   1.197   5.545  0.4015  0.5578  0.4022
  596TIP3   OH223278   6.866   2.293  14.929  0.1716 -0.3594 -0.1017
  596TIP3    H123279   6.870   2.295  14.833 -0.6741 -1.0751 -0.1583
  596TIP3    H223280   6.773   2.284  14.949  0.4656 -1.9974  0.7252
  597TIP3   OH223281   3.383   3.804   5.511 -0.6936  0.4015  0.4952
  597TIP3    H123282   3.288   3.802   5.501 -1.0291  0.8848  2.9913
  597TIP3    H223283   3.402   3.740   5.579  0.9880 -0.8497 -1.0734
  598TIP3   OH223284   0.199   3.071  15.579 -0.2085 -0.0878 -0.4308
  598TIP3    H123285   0.204   2.976  15.592  1.2492 -0.2648 -1.9021
  598TIP3    H223286   0.248   3.107  15.653 -1.8682 -0.3664  0.8590
  599TIP3   OH223287   5.259   3.457   5.602 -0.3191  0.1505 -0.2406
  599TIP3    H123288   5.253   3.553   5.609 -1.2140  0.0126  1.7277
  599TIP3    H223289   5.209   3.436   5.523 -0.7605  1.2628 -0.2803
  600TIP3   OH223290   1.801   1.190  10.824  0.4854 -0.1760 -0.0333
  600TIP3    H123291   1.708   1.171  10.835  0.6824 -1.3453 -0.2381
  600TIP3    H223292   1.811   1.207  10.730  0.1999  1.6976  0.2388
  601TIP3   OH223293   1.685   2.148  13.275 -0.7136 -0.0084  0.5118
  601TIP3    H123294   1.763   2.093  13.277  0.2935  1.3272 -0.4474
  601TIP3    H223295   1.680   2.179  13.185 -1.3528  1.3188  0.9776
  602TIP3   OH223296   5.607   0.867  15.456 -0.0825 -0.4052  0.2495
  602TIP3    H123297   5.665   0.914  15.397  0.1109 -1.3186 -0.3060
  602TIP3    H223298   5.554   0.935  15.498  1.0543  0.4007  0.4079
  603TIP3   OH223299   1.167   2.674  11.659  0.0132  0.3779  0.3906
  603TIP3    H123300   1.191   2.741  11.724  0.0196  1.6800 -0.8893
  603TIP3    H223301   1.111   2.721  11.597  0.6372 -0.6121 -0.9621
  604TIP3   OH223302   5.442   3.041  15.043  0.1224  0.3301 -0.1200
  604TIP3    H123303   5.432   3.068  15.134 -0.3337 -0.1237 -0.0323
  604TIP3    H223304   5.460   2.947  15.047  0.2280  0.3324 -0.4878
  605TIP3   OH223305   1.666   2.026  16.465  0.0745  0.0925 -0.5587
  605TIP3    H123306   1.746   2.078  16.480  0.0007  0.1821 -0.4705
  605TIP3    H223307   1.599   2.092  16.445  0.2176 -0.0427 -1.5005
  606TIP3   OH223308   3.441   3.528  12.124 -0.3431 -0.2924 -0.1676
  606TIP3    H123309   3.362   3.495  12.168  0.4813 -0.9166  0.9058
  606TIP3    H223310   3.479   3.450  12.083  0.1276 -0.1421 -0.0183
  607TIP3   OH223311   4.753   5.100   5.683  0.9629  0.4316  0.3383
  607TIP3    H123312   4.751   5.045   5.761 -0.6055  0.0632  0.0508
  607TIP3    H223313   4.832   5.073   5.637  0.8586 -0.7209  0.8104
  608TIP3   OH223314   4.165   0.174   4.437 -0.2541 -0.2793 -0.3081
  608TIP3    H123315   4.158   0.111   4.509 -1.0238 -0.4696 -0.5402
  608TIP3    H223316   4.123   0.131   4.363  2.5313 -1.0495 -1.5727
  609TIP3   OH223317   0.838   4.197  12.935  0.3005  0.1527 -0.0348
  609TIP3    H123318   0.838   4.147  12.853  0.8747 -1.3982  0.8754
  609TIP3    H223319   0.928   4.226  12.946 -0.0134  1.4162 -0.5236
  610TIP3   OH223320   1.726   0.813   3.850  0.2238  0.5672 -0.1388
  610TIP3    H123321   1.707   0.905   3.827 -1.7642  0.7245  1.7672
  610TIP3    H223322   1.689   0.763   3.777 -0.0332  1.2403 -0.4846
  611TIP3   OH223323   1.605   0.940   1.628  0.7335 -0.3375 -0.5799
  611TIP3    H123324   1.621   1.021   1.676  0.8356 -1.1095  0.7169
  611TIP3    H223325   1.683   0.928   1.574  1.5395 -0.5169  0.5949
  612TIP3   OH223326   6.123   6.563   3.521  0.6432  0.0260 -0.2562
  612TIP3    H123327   6.157   6.494   3.577 -0.7185  0.9044  1.7812
  612TIP3    H223328   6.196   6.585   3.463  1.6728 -1.8543  0.2499
  613TIP3   OH223329   6.137   1.924  14.708  0.3110  0.0233  0.3415
  613TIP3    H123330   6.057   1.944  14.658  0.8297  0.5292 -0.3108
  613TIP3    H223331   6.208   1.959  14.654  0.8778  0.7658  1.5321
  614TIP3   OH223332   1.136   5.826  13.490  0.7518  0.2913  0.6614
  614TIP3    H123333   1.229   5.839  13.508  1.9315 -1.0171 -3.3601
  614TIP3    H223334   1.121   5.734  13.511 -0.3411  0.9933  3.3482
  615TIP3   OH223335   2.279   3.218  16.935  0.1465 -0.2373  0.1028
  615TIP3    H123336   2.258   3.242  17.025  1.2558 -0.4714  0.4425
  615TIP3    H223337   2.375   3.222  16.931  0.1890 -1.5350 -0.6940
  616TIP3   OH223338   3.468   4.069   3.430 -0.2029 -0.1745 -0.2068
  616TIP3    H123339   3.433   4.134   3.369 -1.0050 -1.1832 -0.8534
  616TIP3    H223340   3.488   4.119   3.510 -0.4359  0.9169 -0.8145
  617TIP3   OH223341   0.223   1.821  11.401 -0.4239  0.1478 -0.6495
  617TIP3    H123342   0.300   1.766  11.413 -1.9249 -1.4614  3.0080
  617TIP3    H223343   0.185   1.792  11.318  1.2034 -1.1936 -0.9777
  618TIP3   OH223344   4.227   1.943   0.645 -0.2692 -0.0948 -0.1086
  618TIP3    H123345   4.198   2.015   0.700  2.5642  0.1666  1.2652
  618TIP3    H223346   4.264   1.985   0.567  0.9737  0.0012  0.4922
  619TIP3   OH223347   3.563   4.594   0.024  0.2666  0.1438 -0.2475
  619TIP3    H123348   3.499   4.577  -0.045  1.5035 -1.4872 -1.0330
  619TIP3    H223349   3.568   4.512   0.073 -0.1435  1.0803  1.4587
  620TIP3   OH223350   4.960   3.577  10.752 -0.5683  0.1667 -0.4871
  620TIP3    H123351   4.923   3.526  10.680 -1.9348  1.5645 -0.8377
  620TIP3    H223352   4.900   3.651  10.762  1.4885  1.9062 -0.2459
  621TIP3   OH223353   3.172   0.080   0.116  0.0281  0.1934 -0.0791
  621TIP3    H123354   3.198   0.022   0.044 -2.5989 -0.8917 -0.2591
  621TIP3    H223355   3.077   0.069   0.123  0.1593  0.0939  3.6916
  622TIP3   OH223356   3.884   3.745  14.942  0.2095  0.5928  0.2285
  622TIP3    H123357   3.795   3.780  14.951  0.4877  2.4885 -2.9974
  622TIP3    H223358   3.936   3.796  15.004 -0.8558 -0.5852  2.2049
  623TIP3   OH223359   6.815   6.032   3.101  0.0272  0.4671  0.3258
  623TIP3    H123360   6.814   5.948   3.054  0.8390  0.0499  1.0243
  623TIP3    H223361   6.726   6.065   3.092 -0.2424 -0.3432 -0.1863
  624TIP3   OH223362   4.445   3.931   3.662  0.7485  0.1262 -0.2768
  624TIP3    H123363   4.431   3.945   3.756  1.1726  0.6173 -0.2783
  624TIP3    H223364   4.481   3.842   3.656 -3.8426 -1.9884 -0.4394
  625TIP3   OH223365   6.846   4.967  16.520 -0.1419 -0.6254 -0.0943
  625TIP3    H123366   6.814   5.010  16.598  0.5104 -3.0603  1.6305
  625TIP3    H223367   6.897   5.034  16.474  0.7075  0.5036  2.3360
  626TIP3   OH223368   0.588   6.553  15.796 -0.0823 -0.1034  0.3047
  626TIP3    H123369   0.626   6.518  15.716  0.9462  0.5773  0.4694
  626TIP3    H223370   0.635   6.509  15.867  1.5667  1.8423  0.5213
  627TIP3   OH223371   5.369   4.544  14.376 -0.3765  0.6549  0.1549
  627TIP3    H123372   5.355   4.478  14.308  0.2143 -1.0184  1.5778
  627TIP3    H223373   5.341   4.501  14.457 -0.6105  2.4178  1.0599
  628TIP3   OH223374   3.675   4.146  11.708 -0.0705 -0.4256  0.3474
  628TIP3    H123375   3.683   4.216  11.772  3.3428 -0.8151  0.5314
  628TIP3    H223376   3.708   4.068  11.753  0.5201 -1.1369 -1.2243
  629TIP3   OH223377   2.882   6.108   0.754 -0.4872  0.2877  0.0874
  629TIP3    H123378   2.895   6.175   0.821  0.4409  0.7521 -0.5398
  629TIP3    H223379   2.927   6.031   0.789  0.1247  0.5735 -0.0595
  630TIP3   OH223380   2.714   0.757  14.956 -0.1690 -0.2463 -0.0167
  630TIP3    H123381   2.716   0.829  15.020  1.9095 -1.8208  1.8527
  630TIP3    H223382   2.675   0.684  15.004  1.0075 -1.3388 -0.6870
  631TIP3   OH223383   5.792   3.778   2.566 -1.0072  0.0410 -0.2248
  631TIP3    H123384   5.880   3.814   2.550 -0.4953 -1.9208 -2.4666
  631TIP3    H223385   5.808   3.691   2.601 -1.8798 -1.3405 -2.9524
  632TIP3   OH223386   5.799   6.047   0.917 -0.2449  0.0051  0.7327
  632TIP3    H123387   5.717   6.030   0.963 -0.1898 -2.0830  0.2056
  632TIP3    H223388   5.774   6.049   0.824  0.1375  0.4714  0.6404
  633TIP3   OH223389   5.933   2.099   4.652 -0.3574 -0.0882 -0.3233
  633TIP3    H123390   5.854   2.153   4.654 -0.6028 -0.4617  1.1874
  633TIP3    H223391   5.965   2.101   4.743 -1.2459 -3.7241  0.2123
  634TIP3   OH223392   1.353   1.432   1.511 -0.2194 -0.3736 -0.1838
  634TIP3    H123393   1.352   1.506   1.571 -1.4980 -0.8849  0.4399
  634TIP3    H223394   1.437   1.389   1.528 -0.2300 -0.0717  0.6890
  635TIP3   OH223395   2.227   5.592   0.583  0.4058 -0.1734  0.4115
  635TIP3    H123396   2.281   5.548   0.516  1.7942  0.2320  1.2317
  635TIP3    H223397   2.141   5.550   0.575  1.0695 -1.4673 -0.3464
  636TIP3   OH223398   1.234   5.713   4.587  0.8280  0.4459  0.2380
  636TIP3    H123399   1.182   5.785   4.553  0.9908  0.7668  0.6594
  636TIP3    H223400   1.260   5.663   4.510 -0.0712  0.2976  0.0177
  637TIP3   OH223401   4.959   6.359   2.507 -0.1758  0.4147 -0.3358
  637TIP3    H123402   4.880   6.323   2.466  0.3047 -1.2120  0.0890
  637TIP3    H223403   4.930   6.391   2.592 -0.6496  1.2457 -0.7972
  638TIP3   OH223404   5.010   5.869   4.627  0.2278  0.5322 -0.1502
  638TIP3    H123405   5.071   5.939   4.648  0.7674  0.2873 -0.8312
  638TIP3    H223406   4.973   5.894   4.542 -0.3247  0.4762  0.0661
  639TIP3   OH223407   0.943   5.913  15.783 -0.5636  0.2570 -0.4135
  639TIP3    H123408   0.877   5.887  15.848  1.2247 -1.0640  0.9643
  639TIP3    H223409   1.020   5.860  15.803  0.6678  1.0823 -2.5385
  640TIP3   OH223410   4.745   2.898  15.675  0.8297 -0.6586  0.2818
  640TIP3    H123411   4.783   2.811  15.680  1.0766 -0.5625  0.1113
  640TIP3    H223412   4.664   2.886  15.624 -0.3409 -1.1800  2.1493
  641TIP3   OH223413   4.511   4.734  16.954 -0.2628 -0.0067 -0.7328
  641TIP3    H123414   4.589   4.730  16.900  1.7212  0.2093  1.9159
  641TIP3    H223415   4.454   4.797  16.910  2.1381  1.7347 -1.5083
  642TIP3   OH223416   5.205   0.911   4.785 -0.0676  0.0144 -0.1919
  642TIP3    H123417   5.168   0.834   4.742 -1.1169  0.1092  0.5181
  642TIP3    H223418   5.233   0.879   4.871  1.6369 -0.0804 -0.7496
  643TIP3   OH223419   6.674   1.274   0.411 -0.2110 -0.4941 -0.2786
  643TIP3    H123420   6.595   1.298   0.458 -0.9325 -4.6514  0.9716
  643TIP3    H223421   6.746   1.309   0.464 -0.9899  3.3444 -1.4471
  644TIP3   OH223422   3.085   5.645   0.346 -0.3974  0.3325  0.5203
  644TIP3    H123423   3.098   5.559   0.385  2.4814  0.6940  0.5773
  644TIP3    H223424   3.023   5.630   0.274 -0.5433 -1.6134  0.9962
  645TIP3   OH223425   1.450   2.503  13.965  0.0968  0.3932 -0.0191
  645TIP3    H123426   1.532   2.519  14.013 -0.4208 -0.1259  1.0775
  645TIP3    H223427   1.422   2.416  13.994  0.4972 -0.5921 -2.3771
  646TIP3   OH223428   4.552   3.222  12.627 -0.2717 -1.0504  0.7323
  646TIP3    H123429   4.471   3.272  12.640 -0.1025 -0.7768  0.7411
  646TIP3    H223430   4.573   3.234  12.534  0.8061  0.4909  1.1335
  647TIP3   OH223431   1.743   4.178  12.599 -0.4083 -0.5684  0.0237
  647TIP3    H123432   1.746   4.116  12.526 -1.6326  0.5113 -0.9813
  647TIP3    H223433   1.663   4.154  12.647 -0.7419  0.0528 -0.2139
  648TIP3   OH223434   5.781   2.496  16.369  0.5672 -0.2489 -0.3883
  648TIP3    H123435   5.775   2.464  16.459  0.3485  0.5419 -0.1053
  648TIP3    H223436   5.873   2.487  16.346  0.2967 -2.2767 -0.7978
  649TIP3   OH223437   3.344   4.886  13.241 -0.1648 -0.0553  0.5076
  649TIP3    H123438   3.360   4.917  13.330  0.6441  0.8748  0.0585
  649TIP3    H223439   3.315   4.795  13.252  2.3245 -0.8002  1.5832
  650TIP3   OH223440   2.247   2.376   0.806 -0.8137 -0.0030  0.9400
  650TIP3    H123441   2.183   2.348   0.871 -0.3518  0.2951  1.5224
  650TIP3    H223442   2.271   2.464   0.832 -1.5856  0.6335 -0.3731
  651TIP3   OH223443   5.535   4.721   5.574  0.4256 -0.1908  0.5172
  651TIP3    H123444   5.582   4.703   5.656 -0.5992  0.7014  1.3335
  651TIP3    H223445   5.527   4.816   5.572 -1.0659 -0.3007  0.2584
  652TIP3   OH223446   0.301   0.834   1.295  0.8946 -0.4163 -0.0203
  652TIP3    H123447   0.248   0.781   1.236 -0.3506  0.7894 -0.0297
  652TIP3    H223448   0.386   0.841   1.252  0.0291  0.3926 -1.6956
  653TIP3   OH223449   5.444   2.032  11.703 -0.3118 -0.0754 -0.2258
  653TIP3    H123450   5.448   2.100  11.770 -0.0551  0.8702 -1.1790
  653TIP3    H223451   5.376   1.972  11.734 -0.8892  0.8743  0.3941
  654TIP3   OH223452   4.883   5.955  15.757  0.5858  0.1058  0.2139
  654TIP3    H123453   4.788   5.968  15.765  0.3153  0.1531 -2.1612
  654TIP3    H223454   4.907   6.006  15.679  2.7932  1.0328  1.4114
  655TIP3   OH223455   2.026   2.062   4.812  0.3422  0.1911  0.6187
  655TIP3    H123456   1.997   1.971   4.802 -1.3912  0.8955 -1.5018
  655TIP3    H223457   2.023   2.078   4.906 -0.4680 -1.5901  0.9312
  656TIP3   OH223458   4.866   2.543   5.863  0.2809 -0.5085 -0.0353
  656TIP3    H123459   4.781   2.523   5.822  0.0773  0.6726 -0.2225
  656TIP3    H223460   4.874   2.478   5.933 -0.3889 -1.1593 -0.5363
  657TIP3   OH223461   0.169   1.384  10.680  0.3288 -0.8249  0.5171
  657TIP3    H123462   0.220   1.320  10.630 -0.5745 -1.8698  0.8934
  657TIP3    H223463   0.078   1.359  10.666 -0.1082  0.8775  0.0409
  658TIP3   OH223464   5.569   1.783   3.789  0.2569  0.5079 -0.1540
  658TIP3    H123465   5.530   1.754   3.706 -1.3469  1.5273  0.2072
  658TIP3    H223466   5.611   1.866   3.768 -1.2016  1.3884  0.2687
  659TIP3   OH223467   6.340   4.910   2.649 -0.3684 -0.1320 -0.4584
  659TIP3    H123468   6.394   4.944   2.577 -1.9247  1.5274 -0.9230
  659TIP3    H223469   6.268   4.863   2.606  0.6833 -2.4413  0.1532
  660TIP3   OH223470   0.475   1.304   2.396  0.5730  0.4053 -0.3290
  660TIP3    H123471   0.526   1.283   2.474 -1.6549  1.0472  1.4103
  660TIP3    H223472   0.480   1.399   2.390 -1.9703  0.7403  1.1547
  661TIP3   OH223473   4.416   3.475   6.173  0.1168 -0.1044  0.5554
  661TIP3    H123474   4.459   3.547   6.126  0.8615 -0.9511 -0.0917
  661TIP3    H223475   4.450   3.396   6.131 -0.8772 -0.8312  1.0964
  662TIP3   OH223476   2.754   5.298   2.672 -0.4687  0.0218  0.1676
  662TIP3    H123477   2.804   5.372   2.706  1.7098 -0.8857 -0.8482
  662TIP3    H223478   2.730   5.324   2.583 -0.6621 -0.0544  0.1971
  663TIP3   OH223479   4.100   1.088   0.127  0.3826 -0.4788 -0.2885
  663TIP3    H123480   4.177   1.135   0.096  0.4979 -1.5765 -1.7782
  663TIP3    H223481   4.099   1.103   0.221  1.6138  0.7085 -0.4398
  664TIP3   OH223482   0.610   1.141  11.657  0.2833 -0.5690 -0.0569
  664TIP3    H123483   0.686   1.084  11.663  0.7783  0.0777  0.0013
  664TIP3    H223484   0.634   1.206  11.591  1.5694  2.2118  2.8740
  665TIP3   OH223485   5.727   1.278  11.714  0.4712 -0.1582  0.0366
  665TIP3    H123486   5.758   1.330  11.788  0.6849 -0.2173 -0.0103
  665TIP3    H223487   5.796   1.286  11.649  0.7404 -0.9096  0.2184
  666TIP3   OH223488   6.634   0.418  11.445 -0.3671 -0.3288 -0.1924
  666TIP3    H123489   6.634   0.398  11.539 -0.7190 -3.1020 -0.7127
  666TIP3    H223490   6.587   0.502  11.439 -0.6380 -0.2425  2.0564
  667TIP3   OH223491   0.454   0.480  11.550  0.0485  0.3587  0.2091
  667TIP3    H123492   0.486   0.422  11.619  0.4603 -1.4250 -1.3692
  667TIP3    H223493   0.519   0.471  11.480 -1.8400 -0.3329 -1.5765
  668TIP3   OH223494   4.610   1.144  11.189  0.4174  0.3074 -0.2650
  668TIP3    H123495   4.665   1.112  11.261 -0.3029  0.1547  0.2258
  668TIP3    H223496   4.549   1.072  11.172  1.0823  0.0234 -1.5701
  669TIP3   OH223497   1.077   0.949  11.575 -0.6105 -0.3043 -0.6537
  669TIP3    H123498   1.097   0.856  11.560 -0.0982 -0.7457  2.1986
  669TIP3    H223499   0.990   0.949  11.614 -0.5691  0.4057 -0.5540
  670TIP3   OH223500   6.685   6.566   0.965  0.3434  0.2063 -0.0091
  670TIP3    H123501   6.772   6.604   0.978  1.9868 -2.5218 -1.9576
  670TIP3    H223502   6.680   6.495   1.030  0.9378 -1.5843 -1.8124
  671TIP3   OH223503   0.891   5.040  16.365  0.3901  0.0152  0.1201
  671TIP3    H123504   0.824   5.065  16.301  0.8049  0.9160  0.0225
  671TIP3    H223505   0.847   5.046  16.450  0.1891  0.0535  0.0141
  672TIP3   OH223506   3.879   6.125  10.197 -0.2218 -0.4653 -0.0768
  672TIP3    H123507   3.883   6.205  10.144  0.9603 -1.7390 -2.0631
  672TIP3    H223508   3.969   6.112  10.228  0.5781 -2.8990 -2.9370
  673TIP3   OH223509   1.100   2.129   0.247  0.1123 -0.0805  0.3838
  673TIP3    H123510   1.157   2.180   0.189 -1.9732  1.1022 -0.7584
  673TIP3    H223511   1.153   2.113   0.325  1.0144  3.6632  0.7247
  674TIP3   OH223512   0.738   2.767  12.935  0.3225 -0.9092 -0.0369
  674TIP3    H123513   0.649   2.790  12.909  0.3397 -1.2239 -0.3758
  674TIP3    H223514   0.777   2.850  12.962 -0.1097 -0.7881  0.2346
  675TIP3   OH223515   1.139   0.771   3.513 -0.6119 -0.0840  0.0018
  675TIP3    H123516   1.198   0.735   3.579  0.9443 -0.2015 -1.3718
  675TIP3    H223517   1.195   0.784   3.436 -2.4060 -0.2240 -1.3851
  676TIP3   OH223518   5.690   2.956   3.683 -0.6161 -0.3862  0.0482
  676TIP3    H123519   5.720   2.967   3.774 -0.8539  1.2580 -0.0508
  676TIP3    H223520   5.724   2.870   3.658  0.3387 -0.4314  1.3558
  677TIP3   OH223521   3.088   4.300   1.952  0.2391  0.1052  0.2690
  677TIP3    H123522   3.098   4.371   1.889 -0.3448  0.5799  0.6918
  677TIP3    H223523   3.174   4.258   1.955  0.5049  0.5987 -0.2161
  678TIP3   OH223524   0.340   4.394  16.655  0.0080  0.4359  0.5286
  678TIP3    H123525   0.402   4.364  16.588  1.4241  1.7510  1.1667
  678TIP3    H223526   0.265   4.426  16.606  0.9829  1.3024 -0.4700
  679TIP3   OH223527   2.601   1.419   0.245  0.1594  0.0735  0.2452
  679TIP3    H123528   2.540   1.456   0.309 -2.3455 -1.5521 -1.0295
  679TIP3    H223529   2.645   1.348   0.292 -2.4934 -1.8662  0.0013
  680TIP3   OH223530   0.681   5.139   6.158 -0.1329  0.1857  0.1109
  680TIP3    H123531   0.776   5.135   6.146 -0.1073  0.1114  0.3394
  680TIP3    H223532   0.664   5.227   6.192  0.0673 -0.4461  1.9422
  681TIP3   OH223533   2.127   5.761   2.456  0.3851  0.4499 -0.3180
  681TIP3    H123534   2.148   5.696   2.389 -0.0963 -0.3984  0.3492
  681TIP3    H223535   2.170   5.730   2.535 -1.0266  0.1537  0.3679
  682TIP3   OH223536   3.797   1.101   0.710  0.0977 -0.2656  0.1528
  682TIP3    H123537   3.791   1.033   0.643  0.6473  0.7792 -1.0073
  682TIP3    H223538   3.707   1.128   0.727 -0.0309 -0.4278 -0.2848
  683TIP3   OH223539   2.163   1.330  15.934  0.1531 -0.0490 -0.7668
  683TIP3    H123540   2.186   1.254  15.988 -1.6363 -0.7438 -0.9050
  683TIP3    H223541   2.159   1.296  15.845 -0.7890  0.1633 -0.8129
  684TIP3   OH223542   2.982   2.363   2.239 -0.2956 -0.1561  0.1586
  684TIP3    H123543   2.970   2.385   2.147  0.5748 -2.0760 -0.4670
  684TIP3    H223544   3.073   2.387   2.258  0.0412 -1.2630  0.0218
  685TIP3   OH223545   0.316   1.829  10.942 -0.0479  0.8360  0.4425
  685TIP3    H123546   0.401   1.873  10.931 -0.4886  1.6229  0.0730
  685TIP3    H223547   0.267   1.852  10.863 -0.3894 -0.1312  0.3651
  686TIP3   OH223548   2.007   1.394   2.467  0.0787 -0.0023 -0.0010
  686TIP3    H123549   1.934   1.403   2.527  1.3016  0.1581  1.5326
  686TIP3    H223550   2.012   1.300   2.449 -1.0230  0.0854 -0.8293
  687TIP3   OH223551   4.783   5.262  11.389 -0.0381  0.2403  0.2581
  687TIP3    H123552   4.741   5.248  11.475  2.4291  3.4468  2.1991
  687TIP3    H223553   4.730   5.330  11.348  1.3865  2.1200  1.4023
  688TIP3   OH223554   6.510   0.118  11.967 -0.2813  0.2057  0.1622
  688TIP3    H123555   6.539   0.062  11.895  3.6386 -0.3366  1.9279
  688TIP3    H223556   6.506   0.206  11.929  0.8843 -0.1783 -0.9267
  689TIP3   OH223557   1.254   1.712  14.003 -0.6011 -0.2288  0.4193
  689TIP3    H123558   1.232   1.775  13.934 -1.8115 -1.3363 -0.2359
  689TIP3    H223559   1.326   1.661  13.966 -0.0386  0.3341  0.7077
  690TIP3   OH223560   1.748   2.775   0.781 -0.8666 -0.3781  0.4248
  690TIP3    H123561   1.841   2.790   0.765 -1.1013  1.8275  0.8318
  690TIP3    H223562   1.746   2.720   0.860  0.0740 -2.8666 -1.1565
  691TIP3   OH223563   6.155   6.726  16.163  0.0165 -0.7341  0.0347
  691TIP3    H123564   6.129   6.634  16.160 -0.4328 -0.5981 -0.3960
  691TIP3    H223565   6.080   6.771  16.202  0.3382 -0.5817  0.4854
  692TIP3   OH223566   1.499   0.571   4.979 -0.2816 -0.5317 -0.2743
  692TIP3    H123567   1.576   0.569   4.923  0.0785 -2.1169  0.2240
  692TIP3    H223568   1.470   0.663   4.978  2.2357  0.3394  0.3863
  693TIP3   OH223569   4.860   3.946   3.400  0.1674 -0.1793  0.2754
  693TIP3    H123570   4.868   3.857   3.363  1.7516 -0.7472  1.8912
  693TIP3    H223571   4.944   3.988   3.381  0.1860  0.2645  1.2959
  694TIP3   OH223572   2.789   6.424  12.516 -0.5115 -0.9275  0.5542
  694TIP3    H123573   2.742   6.385  12.443  0.1818  0.2324 -0.5543
  694TIP3    H223574   2.854   6.358  12.541  0.6928 -0.5180 -1.3314
  695TIP3   OH223575   4.110   2.674   1.158 -0.4057 -0.1558 -0.3217
  695TIP3    H123576   4.166   2.747   1.186  0.0604  0.8251 -3.4040
  695TIP3    H223577   4.159   2.595   1.183  1.1672  0.6613 -0.7060
  696TIP3   OH223578   5.960   2.438   4.422  0.1210 -0.2861  0.2933
  696TIP3    H123579   5.977   2.526   4.454  0.9610 -0.6351  0.8467
  696TIP3    H223580   5.865   2.432   4.418  0.0498  0.5372  0.5469
  697TIP3   OH223581   2.366   1.236  13.365 -0.3683 -0.3097  0.8064
  697TIP3    H123582   2.304   1.228  13.437 -0.6415 -1.9181  0.4377
  697TIP3    H223583   2.397   1.147  13.350  1.5759  0.3490  0.5613
  698TIP3   OH223584   5.180   1.865  12.180 -0.1434 -0.2750  0.3494
  698TIP3    H123585   5.146   1.776  12.188 -0.0667 -0.2547  1.0114
  698TIP3    H223586   5.244   1.872  12.251  0.8205 -0.1192 -0.5127
  699TIP3   OH223587   2.273   4.786  17.027  0.7380  0.7617  0.5998
  699TIP3    H123588   2.294   4.730  17.102  0.8099 -0.6358 -0.4155
  699TIP3    H223589   2.242   4.868  17.066 -2.8639 -1.1756  2.2638
  700TIP3   OH223590   4.967   2.757   2.862  0.3314  0.2320  0.2012
  700TIP3    H123591   4.955   2.844   2.900  0.5783  0.8960 -1.1786
  700TIP3    H223592   5.056   2.732   2.889 -0.1060 -0.0637  1.4545
  701TIP3   OH223593   5.021   6.724   0.594 -0.2887 -0.4490  0.0558
  701TIP3    H123594   4.997   6.789   0.660 -1.4267 -0.1366 -0.6348
  701TIP3    H223595   4.942   6.671   0.584  0.7684 -2.2890  0.9805
  702TIP3   OH223596   1.884   2.753   6.262 -0.3345 -0.6290 -0.7390
  702TIP3    H123597   1.955   2.768   6.325 -2.0786 -0.3868  1.2919
  702TIP3    H223598   1.918   2.687   6.203  1.4362 -0.8405  0.4308
  703TIP3   OH223599   2.666   2.186  11.778 -0.3044 -0.0569  0.1311
  703TIP3    H123600   2.759   2.207  11.772 -0.1876 -0.7284 -0.7526
  703TIP3    H223601   2.662   2.092  11.758 -0.9853 -0.4765  2.1086
  704TIP3   OH223602   2.329   4.934  13.257 -0.1347  0.5793 -0.1203
  704TIP3    H123603   2.414   4.922  13.214 -1.0995 -0.8679 -1.7137
  704TIP3    H223604   2.352   4.970  13.343  2.3240 -2.0794  0.5316
  705TIP3   OH223605   5.403   1.387   4.608  0.4514  0.3556 -0.1187
  705TIP3    H123606   5.430   1.372   4.517  0.8110  3.0953 -0.5450
  705TIP3    H223607   5.397   1.300   4.645  2.4393 -0.7796 -2.1694
  706TIP3   OH223608   2.826   1.606   3.558  0.3019 -0.2809  0.5207
  706TIP3    H123609   2.855   1.517   3.540  1.1765  0.1295 -0.2121
  706TIP3    H223610   2.737   1.610   3.523  1.4561  0.0881 -2.7459
  707TIP3   OH223611   5.964   6.235  11.889 -0.4519  0.2455 -0.1213
  707TIP3    H123612   5.995   6.181  11.962  0.4300  1.6501  0.5913
  707TIP3    H223613   5.870   6.220  11.887 -0.1030 -2.2931 -0.7999
  708TIP3   OH223614   3.912   4.356  16.730  0.2794 -0.6678  0.2963
  708TIP3    H123615   3.871   4.395  16.807 -0.0420  2.3900 -1.2895
  708TIP3    H223616   3.842   4.306  16.688 -0.0688 -0.7380  0.9507
  709TIP3   OH223617   6.518   6.539  15.313 -0.2004 -0.3103  0.3210
  709TIP3    H123618   6.600   6.586  15.328 -0.2958  0.0981 -0.4125
  709TIP3    H223619   6.451   6.596  15.353 -0.4634  0.8167 -1.6176
  710TIP3   OH223620   3.752   0.824   0.984  0.0954 -0.3804 -0.3859
  710TIP3    H123621   3.813   0.839   1.056 -0.5722 -0.2616  0.1696
  710TIP3    H223622   3.702   0.905   0.977  0.9341  0.0557 -1.7777
  711TIP3   OH223623   2.850   3.775   5.527  0.9104  0.1653 -0.5596
  711TIP3    H123624   2.824   3.767   5.619  0.7774  0.5013 -0.5664
  711TIP3    H223625   2.867   3.685   5.499 -0.3126 -0.0810 -0.5743
  712TIP3   OH223626   0.636   2.146   5.572  0.3590  0.0758 -0.0302
  712TIP3    H123627   0.723   2.145   5.613 -0.2166 -1.7016  1.2796
  712TIP3    H223628   0.584   2.205   5.627  0.3648  0.0145  0.0410
  713TIP3   OH223629   2.855   3.391   5.733  0.1908 -0.2638 -0.0498
  713TIP3    H123630   2.934   3.443   5.737 -0.6049  1.0340 -0.6371
  713TIP3    H223631   2.818   3.409   5.646 -0.2742 -1.5662 -0.1542
  714TIP3   OH223632   0.119   5.323  15.855 -0.0708  0.3776 -1.2668
  714TIP3    H123633   0.135   5.361  15.941 -0.7163  1.1204 -1.4691
  714TIP3    H223634   0.032   5.283  15.863 -0.2349  0.6612 -1.6458
  715TIP3   OH223635   3.652   0.973   4.114 -0.1239  0.7827 -0.1559
  715TIP3    H123636   3.602   0.892   4.117 -0.1391  0.7947 -0.0911
  715TIP3    H223637   3.661   1.000   4.205  0.0177  0.7694 -0.1645
  716TIP3   OH223638   4.381   6.342   1.846  0.2503 -0.1480 -0.2149
  716TIP3    H123639   4.463   6.333   1.798  0.8738  0.8902  0.5897
  716TIP3    H223640   4.338   6.418   1.807  1.0901  1.1425  1.2405
  717TIP3   OH223641   0.582   1.585  16.656  0.4275 -0.1056 -0.0900
  717TIP3    H123642   0.494   1.549  16.652  0.1787 -0.4019  3.7211
  717TIP3    H223643   0.639   1.513  16.630 -0.3571 -1.3798  1.5304
  718TIP3   OH223644   1.430   0.767  16.975  0.4895 -0.8109  0.3197
  718TIP3    H123645   1.457   0.851  17.013 -2.1307  0.2006  0.1132
  718TIP3    H223646   1.473   0.701  17.031 -0.4803  0.6566  3.0000
  719TIP3   OH223647   4.352   6.108   5.907 -0.4654 -0.2134  0.2994
  719TIP3    H123648   4.390   6.138   5.825 -0.9860 -0.6281 -0.0967
  719TIP3    H223649   4.422   6.057   5.949  0.2872  1.1635  0.7883
  720TIP3   OH223650   4.747   2.379   3.924  0.1575 -0.0330  0.2457
  720TIP3    H123651   4.789   2.452   3.877 -1.4798  0.5081 -0.4692
  720TIP3    H223652   4.735   2.412   4.013 -0.0716  0.3864  0.0674
  721TIP3   OH223653   0.647   5.162  14.421 -0.1985  0.5112 -0.1895
  721TIP3    H123654   0.580   5.192  14.360 -1.1173  0.4660  0.7608
  721TIP3    H223655   0.693   5.241  14.447  0.5145  0.4777 -1.2687
  722TIP3   OH223656   2.013   3.412  16.426 -0.9160  0.3196  0.0536
  722TIP3    H123657   1.971   3.459  16.499 -1.5514 -2.2158  1.4412
  722TIP3    H223658   2.063   3.343  16.468  0.6988  0.2409 -1.8613
  723TIP3   OH223659   6.420   1.937   2.688  0.0913 -0.1930  0.7856
  723TIP3    H123660   6.404   1.928   2.782 -1.7542  2.7533  0.8803
  723TIP3    H223661   6.515   1.928   2.678  0.3895  0.0218  3.0153
  724TIP3   OH223662   2.998   1.893   5.110 -0.4302  0.1756 -0.0929
  724TIP3    H123663   3.009   1.886   5.015 -0.7235 -0.5658 -0.0844
  724TIP3    H223664   3.037   1.812   5.144 -1.5003 -0.1925  0.3045
  725TIP3   OH223665   0.982   1.310  12.583 -0.1488 -0.6131 -0.0141
  725TIP3    H123666   1.033   1.301  12.663  0.3563  0.4172 -0.2075
  725TIP3    H223667   0.910   1.247  12.593  0.0870 -0.7211  1.1016
  726TIP3   OH223668   6.075   2.069   6.248  0.2052  0.3957  0.0568
  726TIP3    H123669   6.148   2.030   6.296  0.6288 -0.3483 -1.1538
  726TIP3    H223670   6.011   1.999   6.239 -0.6092  0.9934  0.9527
  727TIP3   OH223671   1.263   3.512  16.445 -0.0198 -0.2335 -0.1446
  727TIP3    H123672   1.278   3.581  16.510  1.1256  0.7980 -1.4284
  727TIP3    H223673   1.314   3.540  16.369  0.5175 -2.5536 -0.7020
  728TIP3   OH223674   5.403   5.210  11.000 -0.0131 -0.4216 -0.5372
  728TIP3    H123675   5.310   5.192  11.013 -0.0931 -0.7541 -1.5276
  728TIP3    H223676   5.407   5.259  10.918  0.5410  1.0298  0.3286
  729TIP3   OH223677   3.305   6.647   5.397 -0.0803  0.5505  0.9683
  729TIP3    H123678   3.215   6.626   5.371  0.6138  0.9213 -2.1206
  729TIP3    H223679   3.338   6.566   5.435 -1.0437 -0.3106  0.0359
  730TIP3   OH223680   6.117   6.555   3.938 -0.5418  0.2059  0.1867
  730TIP3    H123681   6.116   6.483   3.876 -0.1529 -0.7226  1.2377
  730TIP3    H223682   6.180   6.529   4.005 -2.0247  0.5021  1.7640
  731TIP3   OH223683   1.836   5.998  14.162  0.3615  0.7152  0.5511
  731TIP3    H123684   1.812   5.913  14.200  0.6437  0.4228  0.0922
  731TIP3    H223685   1.930   5.990  14.144 -0.1045  0.1066 -1.9990
  732TIP3   OH223686   4.071   6.110   4.907  0.2086 -0.1745 -0.1192
  732TIP3    H123687   4.146   6.100   4.966 -0.4531  1.0984  0.9799
  732TIP3    H223688   4.073   6.031   4.853  0.3968 -1.7609  2.0892
  733TIP3   OH223689   6.610   2.330  12.060  0.1070 -0.0951  0.0021
  733TIP3    H123690   6.671   2.272  12.013 -0.6338 -1.5794  0.8057
  733TIP3    H223691   6.530   2.279  12.068 -0.4196  0.8682  1.1921
  734TIP3   OH223692   2.715   5.392   5.890 -0.7711 -0.1534 -0.1465
  734TIP3    H123693   2.638   5.436   5.853 -1.4274 -0.6853  0.5746
  734TIP3    H223694   2.730   5.437   5.973  0.3751  0.6762 -0.7715
  735TIP3   OH223695   1.759   1.068   0.638  0.3027  0.1785 -0.1595
  735TIP3    H123696   1.789   1.038   0.552  3.4500  0.4625  0.6990
  735TIP3    H223697   1.838   1.104   0.679 -1.1132  0.1784  2.8012
  736TIP3   OH223698   1.237   5.180   5.754  0.3321 -0.4721 -0.5114
  736TIP3    H123699   1.235   5.200   5.848 -1.3009 -2.4367 -0.0428
  736TIP3    H223700   1.321   5.137   5.741  0.4388 -0.4709  0.1185
  737TIP3   OH223701   6.114   5.635  13.062 -0.0200 -0.1621 -0.3339
  737TIP3    H123702   6.095   5.711  13.117 -1.8016 -0.4170 -0.5250
  737TIP3    H223703   6.073   5.655  12.978  1.2941 -0.4662 -1.0827
  738TIP3   OH223704   4.504   5.830  11.128  0.2462  0.2684 -0.3240
  738TIP3    H123705   4.562   5.892  11.085  0.9849 -1.0450 -1.3049
  738TIP3    H223706   4.473   5.774  11.057 -2.8083  1.3258  0.0234
  739TIP3   OH223707   3.758   3.730   6.131  0.6654 -0.8898 -0.4665
  739TIP3    H123708   3.678   3.692   6.096  0.1496 -0.9714  0.7402
  739TIP3    H223709   3.785   3.670   6.200 -0.5465  1.1934  1.9827
  740TIP3   OH223710   4.038   2.447   4.047 -0.2142  0.2387  0.5587
  740TIP3    H123711   3.946   2.432   4.071  0.0108 -0.6766  0.8936
  740TIP3    H223712   4.082   2.461   4.131  0.1390 -0.4525  0.4983
  741TIP3   OH223713   6.401   2.958  14.328 -0.3667  0.2722 -0.2337
  741TIP3    H123714   6.416   2.874  14.371 -1.8760 -0.5898 -1.3377
  741TIP3    H223715   6.340   3.004  14.386 -1.4891 -0.4199 -0.8427
  742TIP3   OH223716   2.401   2.982  14.378 -0.2920  0.0442  0.3574
  742TIP3    H123717   2.398   2.932  14.460  0.7566  1.2447  1.1756
  742TIP3    H223718   2.489   3.019  14.376 -0.9226  1.5793 -0.3683
  743TIP3   OH223719   4.798   5.166  12.110  0.4313 -0.6047 -0.1380
  743TIP3    H123720   4.835   5.167  12.198  0.3925 -1.3614 -0.1029
  743TIP3    H223721   4.785   5.073  12.091  2.4173 -0.6317 -1.7650
  744TIP3   OH223722   6.495   5.802   3.032 -0.1177  0.4781 -0.0574
  744TIP3    H123723   6.582   5.763   3.027 -0.3967 -0.0670 -0.9408
  744TIP3    H223724   6.472   5.820   2.941 -1.1325  0.1300  0.1208
  745TIP3   OH223725   3.576   5.954  12.848  0.1681 -0.1667 -0.0226
  745TIP3    H123726   3.598   5.870  12.809  0.7579 -1.3777  2.6822
  745TIP3    H223727   3.574   6.015  12.774  3.0883 -1.8635 -1.6933
  746TIP3   OH223728   1.449   0.445   0.967 -0.1021 -0.0134  0.0636
  746TIP3    H123729   1.420   0.536   0.957 -0.1296 -0.0551 -0.2370
  746TIP3    H223730   1.530   0.440   0.915  0.3473  0.0534  0.7460
  747TIP3   OH223731   0.613   4.742  15.209 -0.3242  0.0328 -0.0016
  747TIP3    H123732   0.610   4.651  15.179 -2.8124  0.1539 -0.3094
  747TIP3    H223733   0.595   4.737  15.303 -0.4396  0.2120 -0.0149
  748TIP3   OH223734   0.075   0.414   3.552 -0.4035  0.5237  0.5021
  748TIP3    H123735  -0.011   0.372   3.545  0.2356 -1.0174  1.4810
  748TIP3    H223736   0.063   0.482   3.618 -0.8015  0.0979  0.8753
  749TIP3   OH223737   5.080   2.821   5.367  0.3749  0.3748  0.4179
  749TIP3    H123738   5.041   2.778   5.291 -1.0777  0.0196  1.3168
  749TIP3    H223739   5.116   2.750   5.420 -1.4664  0.2601  1.5968
  750TIP3   OH223740   4.796   3.203  16.502  0.2012  0.3491  0.6017
  750TIP3    H123741   4.891   3.209  16.514  0.5527 -1.3966 -0.9329
  750TIP3    H223742   4.760   3.254  16.575  2.2997  1.2320  1.0991
  751TIP3   OH223743   3.771   6.738  15.889  0.0756 -0.2721  0.2949
  751TIP3    H123744   3.852   6.695  15.861 -0.3169 -0.2749 -0.8691
  751TIP3    H223745   3.780   6.746  15.984  1.6566  0.1696  0.1317
  752TIP3   OH223746   0.634   5.531   3.558 -0.7970  0.6413 -0.2012
  752TIP3    H123747   0.676   5.602   3.605 -0.8323  1.3273 -1.1821
  752TIP3    H223748   0.704   5.467   3.543 -0.7612  0.4669  0.6528
  753TIP3   OH223749   5.850   5.057   5.613  0.2428  0.0894  0.0247
  753TIP3    H123750   5.813   5.015   5.691 -0.8147  0.6894 -0.1374
  753TIP3    H223751   5.884   5.141   5.645 -2.9152  1.7307 -0.6167
  754TIP3   OH223752   4.758   0.262  12.492  0.0046  0.2444 -0.2657
  754TIP3    H123753   4.674   0.223  12.515 -0.6760  2.6267  1.7494
  754TIP3    H223754   4.745   0.298  12.405 -0.7622 -0.1266 -0.3146
  755TIP3   OH223755   1.698   5.136   5.715  0.0646  0.0719 -0.6992
  755TIP3    H123756   1.664   5.203   5.774 -1.2671 -0.4927 -0.8071
  755TIP3    H223757   1.622   5.106   5.665 -0.1129 -3.8221  1.5530
  756TIP3   OH223758   4.465   5.604   3.150  0.1514  0.3352  0.0643
  756TIP3    H123759   4.536   5.622   3.088  1.1006 -0.3614  0.9192
  756TIP3    H223760   4.500   5.632   3.235 -0.4519 -0.3993  0.5638
  757TIP3   OH223761   3.894   1.182  14.034 -0.0799  0.0239  0.2293
  757TIP3    H123762   3.933   1.221  13.956 -1.5345  0.0578 -0.5129
  757TIP3    H223763   3.834   1.249  14.067  0.8365  0.1954  1.6810
  758TIP3   OH223764   0.587   0.676   5.197  0.4922  0.6280 -0.1838
  758TIP3    H123765   0.640   0.599   5.175  0.4801  0.5783 -0.0404
  758TIP3    H223766   0.541   0.698   5.115 -0.3124 -0.1519  0.0394
  759TIP3   OH223767   3.002   5.644   3.348  0.1960 -0.0230 -0.0388
  759TIP3    H123768   3.009   5.738   3.338  1.1382 -0.0750  0.0474
  759TIP3    H223769   2.922   5.631   3.400 -0.1719  0.6947 -0.4195
  760TIP3   OH223770   1.244   1.254   1.251 -0.3866 -0.4226 -0.0945
  760TIP3    H123771   1.254   1.269   1.345 -1.8975 -0.5994  0.1281
  760TIP3    H223772   1.296   1.177   1.233 -1.2193 -1.2489  0.9094
  761TIP3   OH223773   3.745   2.040  16.901  0.4007  0.3745  0.6517
  761TIP3    H123774   3.754   1.949  16.931 -1.6909  0.0502  0.4701
  761TIP3    H223775   3.835   2.069  16.886  1.1855 -1.3264  1.6837
  762TIP3   OH223776   0.646   0.992   3.980  0.5562 -0.3359  0.0583
  762TIP3    H123777   0.560   1.034   3.980  1.0284  0.6662 -0.3865
  762TIP3    H223778   0.695   1.038   3.912  1.4344 -0.9281  0.2697
  763TIP3   OH223779   6.716   0.382  15.726 -0.3805  0.7023  0.8372
  763TIP3    H123780   6.637   0.394  15.780 -0.8404  0.4927  0.2186
  763TIP3    H223781   6.776   0.333  15.783 -1.2302 -0.3889  0.8357
  764TIP3   OH223782   4.345   4.200   2.377 -0.3659  0.3003  0.4277
  764TIP3    H123783   4.320   4.123   2.326 -0.6958 -0.7115  2.0230
  764TIP3    H223784   4.282   4.202   2.449  0.2490  1.5028  0.9539
  765TIP3   OH223785   4.505   2.213   1.818  0.2055 -0.3363 -0.1604
  765TIP3    H123786   4.416   2.230   1.849 -1.1811 -1.6097 -3.1130
  765TIP3    H223787   4.507   2.119   1.801  2.0686 -0.2903 -0.3996
  766TIP3   OH223788   0.481   5.892   1.328 -0.4503 -0.8771 -0.3231
  766TIP3    H123789   0.412   5.834   1.358 -0.2107 -0.2006  1.7058
  766TIP3    H223790   0.540   5.901   1.403 -0.9564  2.6457 -0.1405
  767TIP3   OH223791   0.165   0.136  10.748  0.1475 -0.0850  0.3718
  767TIP3    H123792   0.159   0.054  10.699 -0.3531  0.0271  0.2361
  767TIP3    H223793   0.246   0.177  10.718 -1.5198  1.3593 -2.5409
  768TIP3   OH223794   0.779   3.253  11.505 -0.2877  0.3226 -0.5067
  768TIP3    H123795   0.733   3.239  11.587  0.0803  0.0913 -0.3365
  768TIP3    H223796   0.759   3.343  11.480  0.0936  0.5975  0.1494
  769TIP3   OH223797   2.203   6.670   2.636 -0.1302  0.1994  0.6454
  769TIP3    H123798   2.207   6.590   2.688  2.9283  0.2455  0.7052
  769TIP3    H223799   2.186   6.640   2.547  0.7272 -0.5257  0.7097
  770TIP3   OH223800   5.350   2.334  14.534 -0.1968  0.3365  0.6016
  770TIP3    H123801   5.356   2.420  14.494 -1.3488 -0.1648 -0.7485
  770TIP3    H223802   5.420   2.283  14.493 -0.5864  0.1695  0.1388
  771TIP3   OH223803   2.963   0.502   3.638 -0.6474 -0.9063 -0.0169
  771TIP3    H123804   2.976   0.589   3.675 -0.9269 -0.3384 -1.1803
  771TIP3    H223805   3.051   0.466   3.631 -0.0892  0.6519 -2.6028
  772TIP3   OH223806   2.041   1.900   2.239  0.0704 -0.0509  0.1157
  772TIP3    H123807   2.007   1.811   2.235 -1.4569  0.4791  0.3336
  772TIP3    H223808   2.060   1.915   2.331 -0.0746 -0.0237  0.1422
  773TIP3   OH223809   2.206   3.276   5.745  0.1676 -0.1821  0.1989
  773TIP3    H123810   2.220   3.365   5.711 -1.3682 -0.4001 -1.0936
  773TIP3    H223811   2.283   3.227   5.715  0.1993  0.3032 -0.5477
  774TIP3   OH223812   5.950   1.506  11.330  0.1178  0.4868 -0.2195
  774TIP3    H123813   5.923   1.525  11.420 -0.9413 -1.0258 -0.1763
  774TIP3    H223814   6.008   1.578  11.306 -0.9306  1.8107  1.0781
  775TIP3   OH223815   4.062   1.259  15.247 -0.0206 -0.0479 -0.8193
  775TIP3    H123816   4.113   1.195  15.198  1.0552  1.4282 -1.7231
  775TIP3    H223817   3.990   1.209  15.284  2.1714 -2.3012  0.7239
  776TIP3   OH223818   4.477   3.514  13.790 -0.4115  0.1162  0.1073
  776TIP3    H123819   4.401   3.509  13.731  0.0517 -0.0449 -0.4791
  776TIP3    H223820   4.547   3.550  13.736 -0.4299  1.6003  1.0223
  777TIP3   OH223821   5.793   1.646   1.956  0.1972 -0.1092 -0.0674
  777TIP3    H123822   5.827   1.727   1.917  3.2739 -0.7573  0.9728
  777TIP3    H223823   5.698   1.656   1.953  0.4227  2.4867 -2.1022
  778TIP3   OH223824   3.705   2.774  15.112  0.1760  0.3015 -0.0284
  778TIP3    H123825   3.610   2.788  15.113  0.2704  0.9631 -0.2881
  778TIP3    H223826   3.733   2.791  15.202  0.2974  1.8629 -0.3475
  779TIP3   OH223827   5.869   0.753  15.253 -0.1116 -0.2943 -0.2028
  779TIP3    H123828   5.788   0.710  15.225  0.0932 -0.9763  0.2349
  779TIP3    H223829   5.927   0.747  15.177 -0.1632 -0.5923 -0.2191
  780TIP3   OH223830   3.128   6.731  15.939  0.3775  0.0920  0.0975
  780TIP3    H123831   3.094   6.726  15.850  1.5220 -1.1825 -0.3105
  780TIP3    H223832   3.161   6.820  15.948 -1.5899  0.8808 -0.0155
  781TIP3   OH223833   1.660   1.120   4.208 -0.2906  0.0518  0.0926
  781TIP3    H123834   1.679   1.174   4.131  0.8672  0.6255  0.7432
  781TIP3    H223835   1.655   1.031   4.174 -1.9308  0.5125 -0.9580
  782TIP3   OH223836   0.596   1.190   1.309  0.3842 -0.1044  0.2543
  782TIP3    H123837   0.581   1.156   1.220 -0.8516 -1.7129  1.0335
  782TIP3    H223838   0.531   1.145   1.363  2.0475 -0.2257  2.2418
  783TIP3   OH223839   6.818   4.875   1.690  0.0811 -0.4344  0.8487
  783TIP3    H123840   6.832   4.801   1.631  0.6037  1.8349 -2.0680
  783TIP3    H223841   6.745   4.924   1.650  0.7669  1.4459  1.7815
  784TIP3   OH223842   0.775   1.079  15.855 -0.5752 -0.7583  0.5509
  784TIP3    H123843   0.786   1.031  15.937  1.4015 -1.2415  0.0543
  784TIP3    H223844   0.763   1.010  15.789  0.4544 -0.5276  0.0980
  785TIP3   OH223845   0.737   5.263   1.283 -0.0959 -0.3699 -0.1807
  785TIP3    H123846   0.819   5.310   1.266  1.1520 -1.6192  1.8968
  785TIP3    H223847   0.738   5.188   1.225 -0.3457  0.2195 -0.9600
  786TIP3   OH223848   2.383   4.052  13.628 -0.1985  0.1033 -0.3500
  786TIP3    H123849   2.337   3.969  13.619  0.4379 -0.5476  1.8630
  786TIP3    H223850   2.428   4.063  13.544 -2.0727 -0.6151 -1.5218
  787TIP3   OH223851   0.214   5.434  12.003 -0.2762  0.0040  0.0070
  787TIP3    H123852   0.299   5.436  12.048 -0.6145  0.9070  0.6442
  787TIP3    H223853   0.183   5.344  12.014  0.3258 -0.1731  0.2906
  788TIP3   OH223854   0.409   3.290  14.980 -0.0260 -0.7385  0.2503
  788TIP3    H123855   0.496   3.329  14.987  0.1428 -1.1350  0.3902
  788TIP3    H223856   0.360   3.351  14.924 -0.1259  0.2925  1.4160
  789TIP3   OH223857   0.060   3.378   3.451 -0.0643  0.0573 -0.0777
  789TIP3    H123858   0.129   3.384   3.384 -0.6142 -0.2331 -0.6839
  789TIP3    H223859  -0.016   3.344   3.403 -1.3766  2.6733 -0.0270
  790TIP3   OH223860   4.867   5.689  16.163 -0.5276  0.1117  0.7809
  790TIP3    H123861   4.841   5.619  16.223  0.8361 -0.2736  0.9406
  790TIP3    H223862   4.962   5.695  16.173 -0.2007 -0.2220 -1.6180
  791TIP3   OH223863   4.292   0.215   3.496 -0.1068 -0.5456 -0.6702
  791TIP3    H123864   4.258   0.166   3.420 -1.1038 -1.3720  0.2812
  791TIP3    H223865   4.224   0.280   3.515  0.8662  0.7601 -1.4421
  792TIP3   OH223866   2.392   1.550  16.038  0.3540 -1.0661 -0.0190
  792TIP3    H123867   2.481   1.572  16.009 -0.0253 -1.3024 -1.4156
  792TIP3    H223868   2.372   1.616  16.105  1.2760 -0.5082 -0.2734
  793TIP3   OH223869   5.390   5.892   4.266  0.0103  0.6464 -0.3293
  793TIP3    H123870   5.348   5.870   4.183 -2.2822 -2.6744  1.5189
  793TIP3    H223871   5.329   5.953   4.308 -0.4280 -0.1732  0.2286
  794TIP3   OH223872   4.620   1.817  16.508 -0.6130  0.1466 -0.1452
  794TIP3    H123873   4.574   1.849  16.586 -1.3037  0.4928 -0.6797
  794TIP3    H223874   4.713   1.826  16.529 -0.7850 -0.5881  0.9665
  795TIP3   OH223875   1.801   1.011   4.952  0.1401  0.3297 -0.4453
  795TIP3    H123876   1.752   1.031   4.873  0.3943 -1.4237 -1.0906
  795TIP3    H223877   1.892   1.026   4.928  0.1276  1.1676 -0.0189
  796TIP3   OH223878   3.176   3.293   3.059  0.2323 -0.5873 -0.3914
  796TIP3    H123879   3.092   3.338   3.044 -0.5581 -1.7872  0.2853
  796TIP3    H223880   3.237   3.337   3.001 -0.7304  0.7165 -0.4685
  797TIP3   OH223881   5.845   4.948  12.238  0.2188  0.0124 -0.4638
  797TIP3    H123882   5.883   4.911  12.159  0.5027  1.1745 -0.8924
  797TIP3    H223883   5.752   4.956  12.217  0.3744  0.7856 -0.8731
  798TIP3   OH223884   3.299   2.381  11.090 -0.3992 -0.1501  0.6398
  798TIP3    H123885   3.265   2.334  11.014 -0.9353 -0.3036  0.9678
  798TIP3    H223886   3.318   2.313  11.154  0.6515 -0.0777  0.4292
  799TIP3   OH223887   2.243   6.273  12.809  0.6404 -0.2536 -0.0888
  799TIP3    H123888   2.258   6.286  12.903  0.5530 -0.0432 -0.1042
  799TIP3    H223889   2.148   6.267  12.801  0.7014 -2.7937  0.1719
  800TIP3   OH223890   2.579   0.916  11.339 -0.2029 -0.5006  0.4927
  800TIP3    H123891   2.663   0.877  11.366  0.2515  0.1898  0.1111
  800TIP3    H223892   2.602   1.006  11.314 -1.0972 -0.2463  0.5764
  801TIP3   OH223893   1.958   5.735  16.952  0.6611 -0.2152 -0.6335
  801TIP3    H123894   1.979   5.710  17.042  0.5355  0.3450 -0.4450
  801TIP3    H223895   1.904   5.814  16.961 -2.0338 -1.9001 -1.0768
  802TIP3   OH223896   0.044   2.052   5.891  0.5952  0.0536 -0.2470
  802TIP3    H123897   0.062   1.978   5.832 -1.1435  0.2073 -1.0378
  802TIP3    H223898  -0.007   2.014   5.963 -1.8523  0.6557 -1.5235
  803TIP3   OH223899   4.470   2.857   4.278  0.3235 -0.3514 -0.1356
  803TIP3    H123900   4.415   2.782   4.301 -1.1093  0.6964 -0.0304
  803TIP3    H223901   4.458   2.919   4.351 -1.1015  1.3192 -1.6951
  804TIP3   OH223902   4.470   1.102  12.610 -0.3877  0.3360 -0.0369
  804TIP3    H123903   4.470   1.176  12.671 -0.6396  0.0945  0.2555
  804TIP3    H223904   4.562   1.075  12.606  0.1797  2.2018 -2.0279
  805TIP3   OH223905   0.830   1.676   2.422  0.4841 -0.4694 -0.0044
  805TIP3    H123906   0.775   1.692   2.499 -0.6941 -0.0554 -0.9086
  805TIP3    H223907   0.902   1.622   2.455 -0.2318 -0.6618  1.2968
  806TIP3   OH223908   4.115   3.230  14.590 -0.0151 -0.0819  0.2402
  806TIP3    H123909   4.117   3.182  14.507 -1.1606  1.7084 -0.8974
  806TIP3    H223910   4.200   3.211  14.631  0.5270 -1.1071 -1.2849
  807TIP3   OH223911   6.781   2.373   4.412 -0.1479 -0.6758  0.3460
  807TIP3    H123912   6.780   2.466   4.436 -0.2745 -0.6639  0.2997
  807TIP3    H223913   6.696   2.360   4.369 -0.0565 -0.7725  0.1962
  808TIP3   OH223914   2.397   5.313  12.340 -0.5193 -0.2586  0.3597
  808TIP3    H123915   2.482   5.321  12.298 -0.5996  0.0463  0.2503
  808TIP3    H223916   2.362   5.403  12.340 -0.7261 -0.3391  0.6379
  809TIP3   OH223917   4.892   5.525  12.707 -0.5024 -0.3875  0.4322
  809TIP3    H123918   4.919   5.496  12.794  2.7227  0.1162 -0.2639
  809TIP3    H223919   4.950   5.478  12.647  0.5760  2.6368 -1.1089
  810TIP3   OH223920   2.308   1.486  16.631 -0.0069  0.2782  0.2857
  810TIP3    H123921   2.243   1.512  16.695 -1.4299  1.2423 -1.4541
  810TIP3    H223922   2.365   1.563  16.621 -0.3779  0.4798 -0.2990
  811TIP3   OH223923   4.684   1.562   3.814 -0.1407  0.7782 -0.2556
  811TIP3    H123924   4.670   1.573   3.720 -0.7692 -0.1898 -0.2915
  811TIP3    H223925   4.610   1.607   3.855 -2.5639 -2.6937 -0.3949
  812TIP3   OH223926   2.471   3.944  15.223  0.1521  0.1965  0.4833
  812TIP3    H123927   2.555   3.917  15.260 -0.2386 -0.1578  1.1202
  812TIP3    H223928   2.406   3.917  15.287 -0.7432 -2.0945 -1.2367
  813TIP3   OH223929   3.628   0.474   4.598  0.2004  0.4679  0.5875
  813TIP3    H123930   3.587   0.524   4.668 -0.0584 -1.1947  1.6772
  813TIP3    H223931   3.721   0.473   4.621  0.5699  2.1823 -0.5901
  814TIP3   OH223932   4.902   3.002   4.726 -0.2377 -0.9829  0.1819
  814TIP3    H123933   4.993   2.996   4.699  0.5504  2.1005  1.6265
  814TIP3    H223934   4.852   3.002   4.644  1.3411  0.1788 -0.8317
  815TIP3   OH223935   1.828   3.838  13.613  0.1918 -0.0756 -0.5097
  815TIP3    H123936   1.888   3.873  13.679  0.2224  0.8816 -1.0300
  815TIP3    H223937   1.829   3.743  13.628 -1.3542  0.2501  2.1700
  816TIP3   OH223938   4.742   0.422  10.522  0.1827 -0.7361 -0.0774
  816TIP3    H123939   4.827   0.439  10.481 -0.2950 -0.0461 -0.8194
  816TIP3    H223940   4.685   0.491  10.487 -0.8033 -1.4854  0.0175
  817TIP3   OH223941   4.366   3.293   5.683  0.2714 -0.3016 -0.0360
  817TIP3    H123942   4.454   3.320   5.707  0.4251 -0.5221 -0.3415
  817TIP3    H223943   4.330   3.368   5.636 -0.1316  0.2385  1.1041
  818TIP3   OH223944   2.247   0.158  14.701  0.0883 -0.2564 -0.1550
  818TIP3    H123945   2.223   0.231  14.643  0.2499  1.1178  1.4125
  818TIP3    H223946   2.187   0.167  14.776  1.7559 -0.1697  1.2343
  819TIP3   OH223947   3.986   4.872   0.136  0.1087 -0.2168  0.1625
  819TIP3    H123948   4.017   4.933   0.203  1.0634  0.4248 -0.8317
  819TIP3    H223949   4.052   4.803   0.134  0.6489  0.2966 -0.8017
  820TIP3   OH223950   1.048   0.555   5.841 -0.3298 -0.0643  0.1157
  820TIP3    H123951   0.966   0.584   5.801 -0.0764 -0.9085 -1.0508
  820TIP3    H223952   1.064   0.619   5.912 -1.0564  1.1492 -0.7773
  821TIP3   OH223953   2.461   0.418  11.459 -0.3972  0.0788  0.3898
  821TIP3    H123954   2.494   0.502  11.424  1.3346  0.2444  2.2326
  821TIP3    H223955   2.374   0.438  11.492 -0.0088  1.1672  0.7989
  822TIP3   OH223956   6.055   6.624   5.398 -0.5932  0.2615 -0.3796
  822TIP3    H123957   6.009   6.645   5.317 -0.4369 -0.3337 -0.6271
  822TIP3    H223958   6.146   6.613   5.371 -0.5100  0.2491 -0.0935
  823TIP3   OH223959   0.218   0.750  11.968  0.6591  0.2615  0.0698
  823TIP3    H123960   0.262   0.682  12.020 -0.2569  1.1413  2.1044
  823TIP3    H223961   0.198   0.707  11.885  1.6145 -1.4263  0.6597
  824TIP3   OH223962   4.436   1.960  12.092 -0.2586 -0.3210  0.2349
  824TIP3    H123963   4.408   1.894  12.028 -4.0079  2.5514 -1.4514
  824TIP3    H223964   4.519   1.993  12.058 -0.1689 -1.6037 -0.8855
  825TIP3   OH223965   2.915   2.173  15.948 -0.0195 -0.4868 -0.1669
  825TIP3    H123966   2.997   2.196  15.906  0.0191  0.9295  0.6239
  825TIP3    H223967   2.914   2.077  15.947  1.5240 -0.5293 -0.3769
  826TIP3   OH223968   2.490   2.560  11.148  0.4025 -0.0382  0.0106
  826TIP3    H123969   2.428   2.488  11.139 -1.2740  1.5131 -1.6222
  826TIP3    H223970   2.552   2.547  11.076  1.1678 -0.7728  0.7715
  827TIP3   OH223971   3.672   2.553   1.725  0.1742  0.0092  1.0299
  827TIP3    H123972   3.691   2.642   1.695  0.0972 -0.2785  0.0920
  827TIP3    H223973   3.748   2.502   1.699  0.6189 -0.0455  2.3640
  828TIP3   OH223974   4.426   0.771  16.291 -0.4246  0.4639 -0.1498
  828TIP3    H123975   4.518   0.779  16.264 -0.0419 -3.3302 -0.5206
  828TIP3    H223976   4.430   0.722  16.373 -2.1036 -2.6382 -1.7628
  829TIP3   OH223977   5.627   4.232  14.360 -0.3484  0.4117  0.1218
  829TIP3    H123978   5.718   4.204  14.347 -1.1471 -1.3725 -2.3095
  829TIP3    H223979   5.634   4.307  14.419  2.5925 -0.3205  0.8979
  830TIP3   OH223980   0.369   4.376   0.221  0.3485 -0.7027  0.3249
  830TIP3    H123981   0.436   4.317   0.257  1.6318  0.6930  0.3014
  830TIP3    H223982   0.321   4.408   0.298  2.4802  1.5443  0.8479
  831TIP3   OH223983   0.908   2.627   5.312 -0.1180  0.3620  0.9497
  831TIP3    H123984   0.952   2.550   5.347 -0.4337 -0.6115 -0.7178
  831TIP3    H223985   0.950   2.701   5.357  1.6271 -0.6554  1.0731
  832TIP3   OH223986   1.591   3.514  13.018  0.6135  0.2467  0.0087
  832TIP3    H123987   1.647   3.454  13.068  0.2073  0.5745  0.8724
  832TIP3    H223988   1.525   3.457  12.978 -0.6329  0.2005  1.9659
  833TIP3   OH223989   4.287   6.524  15.294  0.1259  0.0851 -0.1313
  833TIP3    H123990   4.363   6.567  15.334  0.8216  0.2400 -1.5817
  833TIP3    H223991   4.280   6.441  15.341 -0.3295  1.0886  1.6780
  834TIP3   OH223992   0.038   0.337   2.807  0.4726 -0.3394 -0.0035
  834TIP3    H123993  -0.043   0.318   2.855  0.1859  1.0788  0.1011
  834TIP3    H223994   0.043   0.267   2.742 -0.7710 -0.5265  0.0670
  835TIP3   OH223995   5.920   2.494  16.994 -0.3513 -0.0503  0.2445
  835TIP3    H123996   5.838   2.445  16.982 -1.0879  1.0268  0.7270
  835TIP3    H223997   5.989   2.428  16.986 -1.1893 -0.7813 -1.4962
  836TIP3   OH223998   4.297   3.464  13.983 -0.3095  0.0773  0.5910
  836TIP3    H123999   4.264   3.378  13.959 -1.1093  0.5868 -0.2043
  836TIP3    H224000   4.349   3.493  13.908  0.0336  0.2452  0.8895
  837TIP3   OH224001   0.681   2.139  13.619 -0.0754 -0.3211 -0.1531
  837TIP3    H124002   0.723   2.224  13.619  1.1837 -0.8270  2.4221
  837TIP3    H224003   0.633   2.135  13.536  1.5591  1.9826 -1.3105
  838TIP3   OH224004   5.625   0.968   2.423  0.6325 -0.0350  0.5188
  838TIP3    H124005   5.655   1.059   2.428 -0.5661  0.3736  0.4331
  838TIP3    H224006   5.701   0.916   2.452  1.3168  0.9826  0.5882
  839TIP3   OH224007   0.036   6.213  10.789  0.3102 -0.5627 -0.3855
  839TIP3    H124008   0.036   6.130  10.836  0.6327 -0.5219 -0.3152
  839TIP3    H224009   0.032   6.189  10.696 -0.0842 -0.6462 -0.3490
  840TIP3   OH224010   4.175   5.338  13.819 -0.0934  0.2417  0.3110
  840TIP3    H124011   4.183   5.243  13.827  3.8025  0.1618 -1.7752
  840TIP3    H224012   4.139   5.367  13.903 -1.3270 -2.9898  1.0454
  841TIP3   OH224013   5.312   6.391   3.593  1.0750  0.0164 -0.0570
  841TIP3    H124014   5.239   6.362   3.648  1.8729  0.0826  1.0787
  841TIP3    H224015   5.315   6.486   3.605  0.8521  0.1158 -0.7439
  842TIP3   OH224016   0.652   3.470   4.425  0.5650  0.1514 -0.2305
  842TIP3    H124017   0.658   3.565   4.422 -0.3354  0.1967 -0.6868
  842TIP3    H224018   0.592   3.447   4.355  1.3660 -0.8151 -0.6137
  843TIP3   OH224019   4.460   3.543  14.260 -0.0380  0.3796 -0.2066
  843TIP3    H124020   4.408   3.463  14.254  0.6696 -0.1026 -0.1355
  843TIP3    H224021   4.533   3.528  14.199  1.2714  0.0397  1.3551
  844TIP3   OH224022   6.570   3.187  15.424  0.7682  0.8045 -0.3205
  844TIP3    H124023   6.531   3.099  15.419  0.5491  0.9117 -0.5120
  844TIP3    H224024   6.648   3.175  15.479  0.2852  0.6582  0.3323
  845TIP3   OH224025   2.994   6.594   2.706  0.3273  0.1079  0.0876
  845TIP3    H124026   3.052   6.667   2.685  2.9520 -0.8990  3.0211
  845TIP3    H224027   3.048   6.516   2.695 -1.6621 -1.2351 -0.6347
  846TIP3   OH224028   2.164   6.724   4.715 -0.2861 -0.1624 -0.7317
  846TIP3    H124029   2.077   6.726   4.675 -0.5473 -0.2732 -0.1776
  846TIP3    H224030   2.150   6.754   4.805  0.4230  0.8254 -0.9356
  847TIP3   OH224031   3.526   4.136  15.656  0.0405  0.4488 -0.2061
  847TIP3    H124032   3.610   4.095  15.638  1.5104  2.9866  0.3601
  847TIP3    H224033   3.494   4.094  15.735  1.4008  0.2647  0.2689
  848TIP3   OH224034   5.103   0.098  11.387  0.0326  0.3624  0.3080
  848TIP3    H124035   5.019   0.057  11.369 -0.1875  0.9120  0.0428
  848TIP3    H224036   5.123   0.073  11.477 -0.7626  0.8020  0.6222
  849TIP3   OH224037   6.656   5.321   5.283  0.2096  0.0296 -0.8910
  849TIP3    H124038   6.635   5.365   5.201 -1.7402 -1.6341 -1.3626
  849TIP3    H224039   6.702   5.241   5.257  0.7089  0.1110 -0.2817
  850TIP3   OH224040   3.093   5.652   2.315 -0.4366  0.1832  0.1769
  850TIP3    H124041   3.011   5.605   2.297 -0.6688  0.8497 -0.5475
  850TIP3    H224042   3.162   5.590   2.291 -0.7429  0.3379 -1.1754
  851TIP3   OH224043   3.992   3.641  15.988 -0.4605 -0.1708  0.2781
  851TIP3    H124044   4.018   3.550  15.997  0.9323  0.0942 -0.6162
  851TIP3    H224045   3.993   3.657  15.893  1.2087  1.2408  0.4643
  852TIP3   OH224046   3.965   5.422   0.415 -0.1707 -0.1916 -0.7942
  852TIP3    H124047   3.990   5.448   0.326  2.3989 -0.5972 -0.2772
  852TIP3    H224048   3.873   5.398   0.408 -0.0323 -0.2588 -3.3558
  853TIP3   OH224049   0.780   1.110   0.862  0.0261 -0.3351  0.1089
  853TIP3    H124050   0.808   1.043   0.924  2.2700 -0.9517 -1.4295
  853TIP3    H224051   0.793   1.192   0.909  0.5160 -0.8299  0.8754
  854TIP3   OH224052   5.304   5.308   0.609  0.2949  0.1016 -0.3191
  854TIP3    H124053   5.295   5.275   0.698 -1.9813  1.8618  0.2205
  854TIP3    H224054   5.396   5.297   0.587  0.8250 -0.7086  2.1192
  855TIP3   OH224055   6.214   4.174   2.233 -0.4715 -0.1411 -0.1407
  855TIP3    H124056   6.287   4.211   2.283 -0.1375  0.0673 -0.7671
  855TIP3    H224057   6.199   4.237   2.163 -1.1054 -0.3006 -0.1558
  856TIP3   OH224058   3.454   6.530   0.186  0.0267  0.1886 -0.2698
  856TIP3    H124059   3.447   6.546   0.280 -0.7828  0.9256 -0.4407
  856TIP3    H224060   3.369   6.493   0.161  0.2385 -0.0124 -0.7087
  857TIP3   OH224061   5.569   0.390  16.166  0.8348 -0.3996  0.7817
  857TIP3    H124062   5.611   0.324  16.222  2.0546 -0.9849 -0.7564
  857TIP3    H224063   5.631   0.403  16.094 -0.8567  0.0160 -0.6593
  858TIP3   OH224064   6.585   4.966   5.611  0.0504  0.2396 -0.6292
  858TIP3    H124065   6.640   5.036   5.578  0.5048  1.0763  1.7008
  858TIP3    H224066   6.532   5.008   5.679 -0.6907 -1.3905 -0.1587
  859TIP3   OH224067   2.210   1.954  11.764  0.3066 -0.4059 -0.0201
  859TIP3    H124068   2.139   2.017  11.774  0.5383 -0.2616  0.7648
  859TIP3    H224069   2.225   1.949  11.669  0.4004  0.8490 -0.0885
  860TIP3   OH224070   6.541   0.876   4.829 -0.1010 -0.4258 -0.0598
  860TIP3    H124071   6.523   0.842   4.741 -0.0937  0.9994 -0.6424
  860TIP3    H224072   6.464   0.851   4.880 -0.2481 -1.0029 -0.5478
  861TIP3   OH224073   3.416   5.520   2.520 -0.0483  0.2793  0.0613
  861TIP3    H124074   3.455   5.453   2.464  2.0554 -0.5076  2.2595
  861TIP3    H224075   3.360   5.471   2.581 -0.6900  0.8731 -0.0340
  862TIP3   OH224076   5.755   2.112  12.554 -0.0333 -0.0408 -0.5669
  862TIP3    H124077   5.694   2.042  12.576  0.8801 -1.2146 -1.6423
  862TIP3    H224078   5.777   2.152  12.638 -2.1052  0.3162 -0.1213
  863TIP3   OH224079   1.915   6.321  11.849 -0.3489  0.1199 -0.1118
  863TIP3    H124080   1.955   6.332  11.936 -0.8273  0.6971  0.0379
  863TIP3    H224081   1.989   6.300  11.792  0.1768  1.0942  0.1831
  864TIP3   OH224082   5.235   0.961   5.702  0.2684 -0.4177  0.6285
  864TIP3    H124083   5.175   0.934   5.770  0.4654 -0.0713  0.9474
  864TIP3    H224084   5.183   1.017   5.644  0.4503  0.4929  1.3156
  865TIP3   OH224085   2.432   1.717  15.720 -0.2257  0.2249  0.3285
  865TIP3    H124086   2.457   1.809  15.726  2.0262 -0.3065  0.0522
  865TIP3    H224087   2.504   1.676  15.672 -1.2816 -1.6496  0.2637
  866TIP3   OH224088   1.664   1.487  16.772  0.2981 -0.1507 -0.3040
  866TIP3    H124089   1.695   1.456  16.687  3.0856 -2.7301  1.4358
  866TIP3    H224090   1.739   1.533  16.809 -0.8244  0.8320  0.8279
  867TIP3   OH224091   3.643   1.796   1.165  0.7817 -0.1633  0.0391
  867TIP3    H124092   3.607   1.883   1.146  2.3501  0.1619 -1.8343
  867TIP3    H224093   3.709   1.783   1.097  1.4361 -2.3305  1.0135
  868TIP3   OH224094   0.481   1.314  16.499 -0.8483  0.1338 -0.0890
  868TIP3    H124095   0.461   1.232  16.455  0.2444  1.0615 -2.4921
  868TIP3    H224096   0.567   1.301  16.538 -1.4877 -0.4344  1.1961
  869TIP3   OH224097   6.070   6.508   6.139  0.3632 -0.0437 -0.6866
  869TIP3    H124098   6.144   6.504   6.198  0.1803  1.1959 -0.3516
  869TIP3    H224099   6.108   6.497   6.052  0.7776 -0.6175 -0.4407
  870TIP3   OH224100   4.816   0.501   5.186 -0.6036 -0.1307 -0.2669
  870TIP3    H124101   4.899   0.457   5.168 -0.3272 -0.1056  0.8496
  870TIP3    H224102   4.778   0.452   5.259 -1.4553  0.0108 -0.6020
  871TIP3   OH224103   2.416   6.849   5.490  0.1908  0.1993  0.0830
  871TIP3    H124104   2.472   6.786   5.445  0.4148  0.0388  0.5766
  871TIP3    H224105   2.338   6.798   5.515  0.1530  0.2400  0.0491
  872TIP3   OH224106   1.641   0.653   3.655 -0.1387  0.2271 -0.1812
  872TIP3    H124107   1.550   0.649   3.624  0.2083  1.4659 -1.4871
  872TIP3    H224108   1.690   0.599   3.593 -0.0801 -1.1943  1.0564
  873TIP3   OH224109   3.553   2.130   0.037 -0.1410  0.0425  0.6548
  873TIP3    H124110   3.618   2.108  -0.031  2.5260  2.2724  2.2714
  873TIP3    H224111   3.523   2.217   0.013 -0.4929  0.1341  1.4180
  874TIP3   OH224112   5.238   2.005   1.159  0.5420 -1.2010  0.5073
  874TIP3    H124113   5.245   2.041   1.070 -0.7862 -1.4780  0.2727
  874TIP3    H224114   5.247   2.081   1.216  0.7518 -0.9264  0.1183
  875TIP3   OH224115   0.136   3.793   5.081 -0.1632  0.2335 -0.3463
  875TIP3    H124116   0.124   3.836   5.165 -0.4539 -0.5992  0.0485
  875TIP3    H224117   0.058   3.817   5.030  0.1543  0.9783 -0.4949
  876TIP3   OH224118   1.273   2.998  12.464 -0.2030  0.3061 -0.1653
  876TIP3    H124119   1.307   2.924  12.513  1.0318  0.5668 -0.6010
  876TIP3    H224120   1.238   3.057  12.531 -0.2654 -0.1985  0.2525
  877TIP3   OH224121   4.860   1.010   3.925  0.2956 -0.5190  0.0569
  877TIP3    H124122   4.816   0.945   3.871 -0.7453  0.8578 -0.8518
  877TIP3    H224123   4.797   1.032   3.993  0.6794 -0.5228  0.4212
  878TIP3   OH224124   0.120   4.626  12.851  0.0245  0.0524  0.2325
  878TIP3    H124125   0.115   4.622  12.755 -1.3795  2.0102  0.1515
  878TIP3    H224126   0.085   4.542  12.880 -0.4610 -0.1924 -0.9863
  879TIP3   OH224127   4.585   2.373   2.290  0.4421  0.2026  0.1331
  879TIP3    H124128   4.587   2.404   2.200  0.0942  1.9677  0.6887
  879TIP3    H224129   4.554   2.283   2.285  0.0873  0.3965 -1.4717
  880TIP3   OH224130   6.670   4.007  11.457  0.0229 -0.1943 -0.2228
  880TIP3    H124131   6.726   3.941  11.499  0.8786  0.7375  0.1446
  880TIP3    H224132   6.628   3.961  11.385 -0.6357 -1.5542  0.9897
  881TIP3   OH224133   2.845   2.961  13.047 -0.3673  0.5045  0.7385
  881TIP3    H124134   2.842   3.051  13.080 -0.6460  0.8772 -0.2616
  881TIP3    H224135   2.918   2.961  12.985  2.6605 -1.1348  3.9245
  882TIP3   OH224136   3.967   5.879  16.951  0.6210  0.0531  0.3115
  882TIP3    H124137   3.874   5.870  16.970  0.1091  1.3170 -1.3992
  882TIP3    H224138   3.989   5.801  16.901  0.1526  0.3738 -0.4051
  883TIP3   OH224139   2.143   5.596  11.470  0.2031  0.9988 -0.2953
  883TIP3    H124140   2.095   5.597  11.554 -0.5471  0.4731 -0.7048
  883TIP3    H224141   2.234   5.612  11.495 -0.1101  1.6057  0.5504
  884TIP3   OH224142   3.302   3.120  11.294  0.3024 -0.2447  0.3057
  884TIP3    H124143   3.235   3.119  11.226  0.9846 -0.1686 -0.3854
  884TIP3    H224144   3.285   3.200  11.343  0.5382  0.3345 -0.5402
  885TIP3   OH224145   0.132   2.540   4.181 -0.2671  0.1873 -0.7619
  885TIP3    H124146   0.199   2.495   4.130 -0.1639 -2.6426  1.5870
  885TIP3    H224147   0.051   2.492   4.163 -0.4330 -0.1985  0.8146
  886TIP3   OH224148   6.556   4.105  10.639  0.0145  0.2901  0.4009
  886TIP3    H124149   6.466   4.078  10.657  0.5001 -0.8979  1.1029
  886TIP3    H224150   6.610   4.031  10.666  1.0940  0.1137 -1.9231
  887TIP3   OH224151   0.497   2.457  12.602 -0.2791  0.2435 -0.5623
  887TIP3    H124152   0.491   2.370  12.642 -0.1496  1.3252  2.0006
  887TIP3    H224153   0.407   2.489  12.599 -0.7271 -0.9241 -4.0557
  888TIP3   OH224154   1.191   6.112  11.555 -0.2547  0.1562 -0.1053
  888TIP3    H124155   1.132   6.147  11.621  0.7469 -0.3709  1.0994
  888TIP3    H224156   1.251   6.184  11.536  1.9208 -0.7853  2.5079
  889TIP3   OH224157   0.936   0.706  16.373  0.7403 -0.3700 -0.0160
  889TIP3    H124158   0.928   0.618  16.337  1.9124 -0.3835 -0.2892
  889TIP3    H224159   1.016   0.704  16.425 -1.0064 -0.4230  2.8904
  890TIP3   OH224160   4.911   5.881   4.069 -0.6812  0.8700 -0.5234
  890TIP3    H124161   4.829   5.854   4.028 -0.8035  0.5124 -0.0419
  890TIP3    H224162   4.965   5.802   4.069 -0.2929  1.1243 -0.9269
  891TIP3   OH224163   3.954   2.298  12.044 -0.0596 -0.0780 -0.3386
  891TIP3    H124164   3.906   2.263  12.119  1.2641  0.5545  0.8629
  891TIP3    H224165   4.042   2.264  12.053  0.0523 -0.2657 -1.8338
  892TIP3   OH224166   0.226   3.720   0.696  0.0743 -0.3907  0.3696
  892TIP3    H124167   0.249   3.627   0.688 -2.9258 -1.1512 -0.9192
  892TIP3    H224168   0.139   3.719   0.734  0.7219  2.0585  2.1289
  893TIP3   OH224169   6.634   0.149  15.968 -0.1840 -0.1874  0.0447
  893TIP3    H124170   6.711   0.159  15.913  0.0447  0.6605  0.5071
  893TIP3    H224171   6.564   0.124  15.907  0.6255 -1.8866 -0.2583
  894TIP3   OH224172   1.054   1.536  11.077  0.3768  0.7673  1.0004
  894TIP3    H124173   1.121   1.596  11.043  2.7335 -1.2505  1.8103
  894TIP3    H224174   1.064   1.456  11.025 -2.3072  0.7419  0.3309
  895TIP3   OH224175   6.787   1.463   1.262  0.8218 -0.2643  0.1156
  895TIP3    H124176   6.744   1.547   1.248 -2.1326 -1.6162  0.2974
  895TIP3    H224177   6.771   1.442   1.354  2.8686 -0.3869  0.4878
  896TIP3   OH224178   4.295   0.193  12.385 -0.1697 -0.4762 -0.1450
  896TIP3    H124179   4.259   0.279  12.361 -1.2086 -0.8883 -0.0877
  896TIP3    H224180   4.270   0.136  12.312 -0.2865 -0.9383  0.2546
  897TIP3   OH224181   1.222   4.357   2.912 -0.7130 -0.0391  0.7461
  897TIP3    H124182   1.180   4.293   2.854  0.7492 -0.4049  0.0473
  897TIP3    H224183   1.238   4.432   2.856 -1.3536  0.5135  1.2788
  898TIP3   OH224184   4.973   5.307   2.079 -0.0731 -0.1534 -0.1994
  898TIP3    H124185   4.944   5.261   2.000  0.6936  0.6637 -0.9753
  898TIP3    H224186   5.014   5.387   2.047 -1.4936  1.1718  1.1290
  899TIP3   OH224187   1.535   2.001  12.621 -0.1767  0.0459 -0.0075
  899TIP3    H124188   1.451   2.025  12.583 -0.7522  0.6807  1.5834
  899TIP3    H224189   1.524   2.015  12.715  1.9259  0.8640  0.1907
  900TIP3   OH224190   6.357   6.592   0.781 -0.4703 -0.2523 -0.1546
  900TIP3    H124191   6.267   6.589   0.749 -0.3561  0.0063 -0.5091
  900TIP3    H224192   6.370   6.684   0.807  0.5570  0.4028 -2.6953
  901TIP3   OH224193   1.733   1.262  13.134  0.3465 -0.1405 -0.2099
  901TIP3    H124194   1.789   1.215  13.195 -0.3005 -0.1367  0.3915
  901TIP3    H224195   1.730   1.352  13.168  0.9492  0.1660 -0.9242
  902TIP3   OH224196   2.008   0.638  14.315 -0.2177 -0.1035 -0.1320
  902TIP3    H124197   1.952   0.650  14.238 -1.3622 -0.8012  0.5566
  902TIP3    H224198   2.051   0.554  14.300  0.2659  0.1935 -0.4270
  903TIP3   OH224199   6.359   2.087  13.141  0.2084 -0.5472 -0.2009
  903TIP3    H124200   6.398   2.013  13.094 -0.3991 -0.1265 -1.4087
  903TIP3    H224201   6.282   2.050  13.184 -0.7916 -0.4084 -1.7968
  904TIP3   OH224202   3.808   4.160  15.653 -0.3108 -0.5977  0.1727
  904TIP3    H124203   3.848   4.080  15.688  0.1932  0.3744  1.9519
  904TIP3    H224204   3.881   4.223  15.648 -1.1184  0.4356  1.0357
  905TIP3   OH224205   2.603   0.643   5.691 -0.0284  0.0882  0.4904
  905TIP3    H124206   2.554   0.566   5.721 -1.3162  1.0168  0.8175
  905TIP3    H224207   2.601   0.704   5.764  0.3506  0.7408 -0.0314
  906TIP3   OH224208   6.878   2.149   5.167  0.3744  0.7339  0.4314
  906TIP3    H124209   6.808   2.112   5.221  0.5111 -0.9588 -0.4747
  906TIP3    H224210   6.958   2.115   5.207  0.4485 -1.3189 -1.2847
  907TIP3   OH224211   5.049   2.875   3.258 -0.8272 -0.0336 -0.1844
  907TIP3    H124212   5.090   2.791   3.240 -0.8437  0.2184 -1.5403
  907TIP3    H224213   4.969   2.854   3.306  0.4996 -0.5713  1.9037
  908TIP3   OH224214   3.397   3.246  16.934  0.1769 -0.1827  0.0563
  908TIP3    H124215   3.338   3.322  16.933  0.5788  0.1226 -0.2862
  908TIP3    H224216   3.361   3.187  16.868 -1.1031 -1.0442  1.4323
  909TIP3   OH224217   5.966   0.885  11.562 -0.2133  0.2125  0.3872
  909TIP3    H124218   5.944   0.829  11.488  0.1268 -0.2495  0.6350
  909TIP3    H224219   6.008   0.962  11.522 -0.3337  0.1221  0.0814
  910TIP3   OH224220   6.574   2.368  12.340 -0.2021 -0.0941  0.6766
  910TIP3    H124221   6.616   2.321  12.267  0.0832  0.0253  0.7657
  910TIP3    H224222   6.538   2.447  12.300  1.5923  0.9184  1.0000
  911TIP3   OH224223   1.666   2.630   1.272 -0.1231  0.7963  0.2885
  911TIP3    H124224   1.727   2.673   1.212  0.6408 -1.8271 -0.9692
  911TIP3    H224225   1.719   2.610   1.349  0.1055  0.2830  0.0057
  912TIP3   OH224226   4.163   5.224  14.375  0.0304  0.0291 -0.5865
  912TIP3    H124227   4.139   5.149  14.430 -2.4538  0.3549 -1.0870
  912TIP3    H224228   4.254   5.209  14.352 -0.1674 -2.4403 -0.0314
  913TIP3   OH224229   3.713   4.965   0.333  0.1291 -0.7941 -0.1768
  913TIP3    H124230   3.740   5.056   0.332 -0.4890 -0.6070 -0.1034
  913TIP3    H224231   3.730   4.934   0.244 -0.3324 -0.4090 -0.4001
  914TIP3   OH224232   0.167   3.289   2.113 -0.2357  0.4926 -0.0187
  914TIP3    H124233   0.157   3.195   2.105 -2.5231  0.7655 -1.3140
  914TIP3    H224234   0.260   3.303   2.130  0.5287 -1.8726 -1.8618
  915TIP3   OH224235   0.641   6.662  15.078 -0.1468 -0.0153 -0.5843
  915TIP3    H124236   0.667   6.705  14.996 -1.2401 -1.2416 -1.6022
  915TIP3    H224237   0.703   6.696  15.142  0.1621  1.6859 -1.7122
  916TIP3   OH224238   1.227   3.929   4.668 -0.3542 -0.6238  0.4873
  916TIP3    H124239   1.268   3.918   4.753 -0.1495  0.2454  0.5131
  916TIP3    H224240   1.277   3.874   4.608 -0.8689 -1.7040  1.0327
  917TIP3   OH224241   4.406   6.452  11.994  0.3618 -0.2199 -0.0965
  917TIP3    H124242   4.390   6.479  12.085  0.1945  0.1847 -0.2438
  917TIP3    H224243   4.319   6.453  11.954  0.5529  0.5226 -0.5062
  918TIP3   OH224244   4.644   1.482  10.709 -0.1446  0.1001 -0.4764
  918TIP3    H124245   4.722   1.530  10.680  1.9447 -2.0163  1.1804
  918TIP3    H224246   4.605   1.539  10.775  0.1560  1.0658 -1.1054
  919TIP3   OH224247   1.138   6.491   5.605 -0.3980 -0.5681  0.6688
  919TIP3    H124248   1.116   6.444   5.524  1.0790 -3.2364  1.7169
  919TIP3    H224249   1.064   6.475   5.663  0.4127 -2.3200  1.2725
  920TIP3   OH224250   5.846   6.350   5.707  0.1545 -0.3269  0.1807
  920TIP3    H124251   5.875   6.323   5.794 -0.2456  0.6830  0.6387
  920TIP3    H224252   5.815   6.440   5.719  0.2875 -0.1035 -1.0445
  921TIP3   OH224253   1.478   4.996  15.939 -0.1254  0.2424 -1.0308
  921TIP3    H124254   1.507   5.067  15.996  1.7026 -0.3093 -1.2118
  921TIP3    H224255   1.441   5.039  15.862 -0.8223  0.9791 -0.3022
  922TIP3   OH224256   5.258   4.266   6.139  0.5574  0.1241 -0.3061
  922TIP3    H124257   5.248   4.361   6.128  1.2722  0.0131 -2.1979
  922TIP3    H224258   5.340   4.245   6.094  0.3556 -1.4133  0.0006
  923TIP3   OH224259   5.515   6.209  11.638  0.1577 -0.0739  0.3772
  923TIP3    H124260   5.422   6.188  11.627  0.5742 -1.3185 -0.9727
  923TIP3    H224261   5.562   6.137  11.596  1.7927 -0.2486  2.3725
  924TIP3   OH224262   1.515   6.736  12.038  0.5835  0.6196 -0.1712
  924TIP3    H124263   1.606   6.765  12.030  0.6269  0.1235 -1.8986
  924TIP3    H224264   1.506   6.708  12.129  1.4206  3.0280  0.7409
  925TIP3   OH224265   1.479   5.462  13.539 -0.6503  0.6363  0.3290
  925TIP3    H124266   1.526   5.491  13.461  3.5600 -0.2720  2.2502
  925TIP3    H224267   1.469   5.541  13.592  0.2323  0.5886  0.5824
  926TIP3   OH224268   3.416   5.643   0.431 -0.6437  0.0322 -0.0452
  926TIP3    H124269   3.328   5.674   0.453 -0.8595 -1.5324  1.4622
  926TIP3    H224270   3.463   5.641   0.514 -0.3727 -2.7281 -0.1683
  927TIP3   OH224271   4.582   4.711  13.552 -0.2113  0.6330  0.4863
  927TIP3    H124272   4.572   4.800  13.519 -1.8937 -0.4185 -2.1880
  927TIP3    H224273   4.676   4.701  13.566  0.2467  2.2004 -1.1614
  928TIP3   OH224274   2.378   1.217   4.217 -0.7547 -0.4421 -0.2242
  928TIP3    H124275   2.368   1.158   4.142 -0.5444  0.0269 -0.6284
  928TIP3    H224276   2.468   1.249   4.210  0.1485 -2.3275  1.6689
  929TIP3   OH224277   1.688   5.862  13.145 -0.1156 -0.2486 -0.1991
  929TIP3    H124278   1.651   5.871  13.057 -2.4350  0.0223  0.7096
  929TIP3    H224279   1.723   5.948  13.166 -0.2926 -0.0868 -0.5613
  930TIP3   OH224280   1.804   6.279   2.616 -0.4331 -0.8513 -0.9833
  930TIP3    H124281   1.821   6.342   2.546  0.4164 -0.7137 -0.6690
  930TIP3    H224282   1.796   6.333   2.695  1.4334 -1.1710 -0.5189
  931TIP3   OH224283   1.685   0.343  14.436 -0.2760  0.5054  0.3265
  931TIP3    H124284   1.769   0.318  14.475  0.0417  1.5245  0.3366
  931TIP3    H224285   1.666   0.428  14.475 -0.8221  0.7401 -0.4324
  932TIP3   OH224286   4.759   4.280  15.900 -0.6435 -0.1283  0.1952
  932TIP3    H124287   4.751   4.352  15.837 -1.2417 -0.9502 -0.6925
  932TIP3    H224288   4.765   4.323  15.985  0.4486  1.0250 -0.4216
  933TIP3   OH224289   3.695   1.573   5.896  0.1281 -0.1516 -0.1497
  933TIP3    H124290   3.637   1.610   5.829  0.7642  1.1789  0.0245
  933TIP3    H224291   3.639   1.514   5.946 -0.7189 -0.0062 -0.9050
  934TIP3   OH224292   3.315   1.203   2.579 -0.2709 -0.4554  0.1979
  934TIP3    H124293   3.316   1.109   2.592 -0.6449 -0.6725 -1.1952
  934TIP3    H224294   3.311   1.240   2.668  0.3537 -1.7223  0.7667
  935TIP3   OH224295   3.810   0.122   1.674 -0.2069 -0.0761  0.0122
  935TIP3    H124296   3.886   0.165   1.635  0.2986 -0.4094  0.6023
  935TIP3    H224297   3.763   0.084   1.600  0.9173 -0.9972 -0.2627
  936TIP3   OH224298   0.795   5.922  15.543 -0.2915  0.2171  0.0700
  936TIP3    H124299   0.854   5.924  15.618  0.6265  1.7398 -0.6517
  936TIP3    H224300   0.785   5.829  15.523 -1.1181 -0.2892  2.4643
  937TIP3   OH224301   3.782   0.074   4.011 -0.0778  0.0576 -0.0286
  937TIP3    H124302   3.740   0.099   3.929 -0.9273  0.1019  0.4125
  937TIP3    H224303   3.780  -0.022   4.011  2.2094 -0.0510 -1.2180
  938TIP3   OH224304   2.027   5.128   1.631  0.1069  0.6546 -0.5107
  938TIP3    H124305   2.010   5.218   1.658 -1.6338  0.3782 -0.5811
  938TIP3    H224306   2.058   5.085   1.710 -0.3342  0.9901 -0.1518
  939TIP3   OH224307   5.172   6.348   1.525  0.2150 -0.3731 -0.1015
  939TIP3    H124308   5.252   6.295   1.528 -0.1852 -0.9765  0.3531
  939TIP3    H224309   5.108   6.296   1.573  0.0834  0.9895  1.2817
  940TIP3   OH224310   0.390   1.259  13.769 -0.3045  0.2292 -0.6308
  940TIP3    H124311   0.443   1.332  13.800  0.8151 -0.3151 -1.1925
  940TIP3    H224312   0.453   1.197  13.732 -1.1443 -1.3240  0.3960
  941TIP3   OH224313   1.576   3.275  13.364  1.1661  0.2291 -0.1867
  941TIP3    H124314   1.503   3.331  13.389 -0.6267 -1.1474 -1.9953
  941TIP3    H224315   1.538   3.187  13.360  2.6278 -0.3857 -2.1978
  942TIP3   OH224316   6.518   4.601   2.374  0.1468 -0.5332  0.0097
  942TIP3    H124317   6.596   4.647   2.343 -0.5749  0.5816 -0.1929
  942TIP3    H224318   6.513   4.621   2.467 -0.5716  0.4163 -0.2246
  943TIP3   OH224319   6.122   4.061  11.123  0.0971  0.2134  0.3109
  943TIP3    H124320   6.113   4.085  11.031  0.2431  1.3247  0.5643
  943TIP3    H224321   6.199   4.109  11.153 -0.2884  0.3416  1.1545
  944TIP3   OH224322   4.651   0.385   4.956 -0.5957 -0.2534  0.3410
  944TIP3    H124323   4.732   0.340   4.932 -0.5356  0.9033 -1.8699
  944TIP3    H224324   4.680   0.457   5.012  0.0540  0.5320 -0.9381
  945TIP3   OH224325   3.004   4.863   2.308 -0.3367 -0.1174  0.0191
  945TIP3    H124326   3.031   4.915   2.384 -2.3396  1.4681 -0.2760
  945TIP3    H224327   3.049   4.902   2.234 -0.7841  0.3454 -0.0136
  946TIP3   OH224328   2.523   1.183  11.378  0.6453 -0.1650 -0.1114
  946TIP3    H124329   2.455   1.184  11.446 -0.0435 -1.9827 -0.6984
  946TIP3    H224330   2.481   1.220  11.301  0.6465 -0.3271 -0.1903
  947TIP3   OH224331   2.896   3.782  12.105  0.6154 -0.6172 -0.2153
  947TIP3    H124332   2.959   3.772  12.034  1.2127  0.6060  0.0978
  947TIP3    H224333   2.846   3.701  12.105  1.5288 -1.2106 -1.1253
  948TIP3   OH224334   1.914   3.201   5.749  0.0288 -0.8781 -0.1532
  948TIP3    H124335   2.008   3.196   5.768  0.0113  0.5750  0.4633
  948TIP3    H224336   1.889   3.290   5.775 -1.2551 -0.8038 -1.5121
  949TIP3   OH224337   3.659   4.913   0.746 -0.0500  0.1278 -0.0014
  949TIP3    H124338   3.600   4.878   0.679 -0.7548  2.8326 -0.9268
  949TIP3    H224339   3.710   4.980   0.700  1.5607  0.0037  1.5223
  950TIP3   OH224340   6.393   2.708   5.757 -0.7778 -0.5272 -0.4656
  950TIP3    H124341   6.389   2.765   5.833 -0.3411 -0.8181 -0.2212
  950TIP3    H224342   6.331   2.638   5.776  2.0234 -2.7070  1.3935
  951TIP3   OH224343   3.844   0.457  10.852  0.1073 -0.3060  0.1191
  951TIP3    H124344   3.828   0.470  10.945 -1.3075  2.1549 -0.3876
  951TIP3    H224345   3.877   0.541  10.821  2.8961 -1.7467 -1.2356
  952TIP3   OH224346   0.559   0.461  15.633 -0.4902 -0.4982 -0.0830
  952TIP3    H124347   0.628   0.514  15.672  0.0944 -0.0977 -1.5865
  952TIP3    H224348   0.558   0.381  15.685 -0.5043  0.4536  1.4144
  953TIP3   OH224349   6.662   6.540   5.315 -0.1507 -0.0911  0.2888
  953TIP3    H124350   6.658   6.559   5.221  0.7846  1.4454  0.5201
  953TIP3    H224351   6.690   6.449   5.320 -0.3740 -0.2469 -0.9209
  954TIP3   OH224352   0.477   0.796  14.161 -0.3164  0.3012  0.6825
  954TIP3    H124353   0.417   0.808  14.234  0.7522  2.8236  1.2812
  954TIP3    H224354   0.495   0.886  14.130  2.4826 -0.3742  0.0425
  955TIP3   OH224355   6.781   5.772  13.677 -0.2349  0.4831  0.3935
  955TIP3    H124356   6.749   5.858  13.652  1.6805  0.5748 -2.0587
  955TIP3    H224357   6.876   5.783  13.686 -0.1401 -1.0270  1.7399
  956TIP3   OH224358   3.282   5.258   3.770  0.2912 -0.7430 -0.5142
  956TIP3    H124359   3.355   5.261   3.708  0.3111 -0.4760 -0.4794
  956TIP3    H224360   3.233   5.338   3.752  0.3705 -0.5996 -0.0928
  957TIP3   OH224361   0.761   6.534   5.544 -0.1468 -0.3117 -0.8649
  957TIP3    H124362   0.689   6.472   5.554  0.9617 -1.6671 -0.9120
  957TIP3    H224363   0.837   6.487   5.579  0.4752  1.6070  0.5567
  958TIP3   OH224364   0.167   1.525   4.673  0.1230 -0.6169 -0.1628
  958TIP3    H124365   0.232   1.491   4.735  1.6685  0.1253 -1.2851
  958TIP3    H224366   0.157   1.617   4.697 -0.8729 -0.8320  0.2749
  959TIP3   OH224367   6.460   3.390  11.867 -0.1022  0.2594 -0.1289
  959TIP3    H124368   6.502   3.434  11.941 -1.7707  0.2937  0.8512
  959TIP3    H224369   6.485   3.442  11.790  1.3093  0.4714  0.4491
  960TIP3   OH224370   1.853   4.325  13.570  0.2860  0.1770 -0.1276
  960TIP3    H124371   1.874   4.409  13.530 -0.9121  0.9245  0.7495
  960TIP3    H224372   1.937   4.277  13.571  0.2432 -0.3427 -4.3842
  961TIP3   OH224373   4.297   1.527   0.809 -0.0615  0.4787  0.2067
  961TIP3    H124374   4.215   1.513   0.857 -2.1799  1.4206 -2.8269
  961TIP3    H224375   4.289   1.471   0.732  1.6874  1.4077 -0.7042
  962TIP3   OH224376   0.262   3.085   5.667  0.2515  1.3628  0.2831
  962TIP3    H124377   0.344   3.130   5.686  0.9869  0.9529 -1.6950
  962TIP3    H224378   0.194   3.146   5.695  1.2265  2.4492  0.3620
  963TIP3   OH224379   2.307   1.168   0.551  0.3625  0.5733  0.3547
  963TIP3    H124380   2.280   1.260   0.559 -2.4015 -0.3048  2.6059
  963TIP3    H224381   2.354   1.149   0.632  0.9964 -0.0231 -0.1385
  964TIP3   OH224382   5.366   6.865  16.184 -0.3838 -0.5312  0.1227
  964TIP3    H124383   5.420   6.903  16.253  0.8387 -0.8002 -0.6596
  964TIP3    H224384   5.279   6.859  16.222 -0.2269  1.3838  0.8782
  965TIP3   OH224385   0.630   4.014   4.434  0.1164  0.3662 -0.3374
  965TIP3    H124386   0.644   4.040   4.525  0.9881  0.7740 -0.5825
  965TIP3    H224387   0.677   4.079   4.382  2.5643 -1.7331 -0.9830
  966TIP3   OH224388   4.154   1.255   1.241  0.5324 -1.1118 -0.0492
  966TIP3    H124389   4.065   1.286   1.259  0.1035 -0.7493 -2.5197
  966TIP3    H224390   4.205   1.289   1.315 -1.1333 -0.2472  0.7836
  967TIP3   OH224391   2.022   2.900  14.366  0.1664  0.8854  0.3762
  967TIP3    H124392   2.059   2.984  14.338  0.4213  0.0071 -2.0939
  967TIP3    H224393   2.057   2.836  14.304 -0.8708 -0.9003  1.5495
  968TIP3   OH224394   2.512   5.825  11.780  0.0776  0.2364 -0.2356
  968TIP3    H124395   2.598   5.800  11.747 -0.1128 -0.0209 -0.5452
  968TIP3    H224396   2.530   5.895  11.843  0.3767  1.4099 -1.5772
  969TIP3   OH224397   1.051   5.113  13.974  1.3433  0.0499  0.6850
  969TIP3    H124398   1.078   5.021  13.980  1.1171 -0.1283 -0.6351
  969TIP3    H224399   0.984   5.122  14.042 -0.0527 -1.3290 -0.4236
  970TIP3   OH224400   5.980   3.644   4.089 -0.4323 -0.2492  0.2657
  970TIP3    H124401   5.938   3.668   4.172  2.0620  1.8778  1.0610
  970TIP3    H224402   6.062   3.600   4.115 -0.1440 -0.5712 -1.0996
  971TIP3   OH224403   6.271   0.808  16.121  0.1003 -0.3352 -0.5878
  971TIP3    H124404   6.248   0.716  16.134 -0.0798 -0.4011 -1.3381
  971TIP3    H224405   6.336   0.826  16.190  1.1136 -1.3882 -1.2200
  972TIP3   OH224406   3.630   0.062  14.769 -0.1040 -0.3908  0.3508
  972TIP3    H124407   3.594   0.148  14.748 -1.3746 -0.4924  1.9568
  972TIP3    H224408   3.582   0.001  14.712  0.2438 -0.1432 -0.2215
  973TIP3   OH224409   0.750   2.581  11.961  0.0573  0.1561  0.5804
  973TIP3    H124410   0.670   2.601  11.913  0.5561  2.2951  0.5436
  973TIP3    H224411   0.798   2.520  11.905 -0.9257 -0.1059 -0.0018
  974TIP3   OH224412   3.167   4.404  10.655  0.2168  1.0101  0.0393
  974TIP3    H124413   3.115   4.409  10.574  0.6138  2.7241 -0.1489
  974TIP3    H224414   3.171   4.494  10.686 -0.2907  0.3239  2.2379
  975TIP3   OH224415   6.449   1.815   4.634  0.0359 -0.1398  0.6831
  975TIP3    H124416   6.493   1.870   4.699  2.4651  0.5894 -1.3757
  975TIP3    H224417   6.454   1.726   4.669  0.3380  0.3622  1.9417
  976TIP3   OH224418   0.203   6.688  16.232 -0.4014 -0.1193 -0.0245
  976TIP3    H124419   0.145   6.654  16.300  0.5369 -0.5931  0.5608
  976TIP3    H224420   0.249   6.762  16.273  1.1085 -1.1995  0.3152
  977TIP3   OH224421   4.933   1.688  13.835  0.2600 -0.4922  0.0340
  977TIP3    H124422   4.955   1.772  13.875  1.6044 -0.9968  0.4076
  977TIP3    H224423   4.941   1.704  13.741  0.0605 -0.0931  0.0817
  978TIP3   OH224424   5.240   5.815   1.743 -0.5234 -0.2973  0.5197
  978TIP3    H124425   5.157   5.799   1.787 -0.2489  0.4929  1.3381
  978TIP3    H224426   5.272   5.898   1.779  1.0540 -1.0244  0.8786
  979TIP3   OH224427   1.697   0.886  11.176  0.0364 -0.0165 -0.4753
  979TIP3    H124428   1.725   0.975  11.155 -0.2256  0.2393  0.2488
  979TIP3    H224429   1.712   0.877  11.270 -0.7083 -0.4442 -0.3871
  980TIP3   OH224430   5.977   3.729  13.250  0.1890 -0.3671  0.3282
  980TIP3    H124431   5.966   3.685  13.335 -0.1701 -0.6755  0.1255
  980TIP3    H224432   6.012   3.815  13.272  0.3261 -0.5321  0.7746
  981TIP3   OH224433   4.928   5.446  15.300 -0.1311 -0.1297  0.0119
  981TIP3    H124434   4.948   5.529  15.345 -0.7565 -0.4842  0.9859
  981TIP3    H224435   5.008   5.394  15.310 -0.5680 -0.5626  1.6038
  982TIP3   OH224436   1.188   2.520   5.717 -0.1313 -0.0266  0.4724
  982TIP3    H124437   1.158   2.437   5.679  0.8337 -0.0475 -0.2743
  982TIP3    H224438   1.259   2.495   5.776 -0.2719  0.2070  0.7388
  983TIP3   OH224439   5.302   6.544   2.345 -0.1422 -0.2120 -0.4848
  983TIP3    H124440   5.259   6.464   2.312 -0.8600 -0.0108 -0.0611
  983TIP3    H224441   5.245   6.574   2.416 -0.5233  1.3445 -1.4063
  984TIP3   OH224442   2.574   0.840   3.608 -0.2879  0.4487  0.1216
  984TIP3    H124443   2.541   0.926   3.585  0.7005  0.9366  0.4815
  984TIP3    H224444   2.538   0.781   3.541 -0.3658  1.2501 -0.5444
  985TIP3   OH224445   4.049   6.778   2.362  0.4291  0.0055  0.8252
  985TIP3    H124446   4.119   6.748   2.305  0.5816  1.0691  0.4347
  985TIP3    H224447   4.087   6.777   2.450  0.0834 -1.9779  0.9995
  986TIP3   OH224448   0.884   4.011   1.152  0.3817 -0.6643 -0.3888
  986TIP3    H124449   0.961   4.021   1.095 -0.2341  0.3298 -1.0914
  986TIP3    H224450   0.820   3.964   1.098 -0.1727  0.1998 -0.5071
  987TIP3   OH224451   5.564   2.332   3.715 -0.8652 -0.2980  0.1748
  987TIP3    H124452   5.518   2.364   3.638 -1.0017 -0.1446  0.3195
  987TIP3    H224453   5.650   2.374   3.711 -1.1997  0.4513  0.6022
  988TIP3   OH224454   2.963   2.530   0.789 -0.4061  0.2662 -0.1563
  988TIP3    H124455   2.960   2.624   0.805 -1.6764  0.1099  0.7012
  988TIP3    H224456   2.889   2.495   0.839  1.1076 -1.4141  1.0443
  989TIP3   OH224457   6.039   6.538  16.004 -0.3329 -0.1999 -0.2375
  989TIP3    H124458   6.134   6.531  16.013 -0.1902  1.4315 -0.1924
  989TIP3    H224459   6.006   6.452  16.031  0.9938 -0.1766  1.6317
  990TIP3   OH224460   0.504   5.933   4.938 -0.2568  0.3858 -0.5182
  990TIP3    H124461   0.409   5.942   4.939 -0.2026  0.9907  0.4300
  990TIP3    H224462   0.520   5.842   4.914 -1.1013  0.0039  0.3563
  991TIP3   OH224463   6.041   4.179  12.054 -0.1968 -0.0260 -0.4540
  991TIP3    H124464   6.021   4.243  11.986  0.9304  0.3389 -0.4624
  991TIP3    H224465   6.094   4.228  12.118 -0.1892 -0.6814  0.0504
  992TIP3   OH224466   4.067   5.377  12.517  0.2057 -0.3607 -0.6303
  992TIP3    H124467   4.068   5.429  12.437  0.5517  0.6197 -0.0079
  992TIP3    H224468   4.159   5.362  12.538  0.3553  2.8102  1.6844
  993TIP3   OH224469   3.545   1.687   5.373  0.1519  0.3041  0.0916
  993TIP3    H124470   3.578   1.775   5.355  0.2470  0.4742  1.0686
  993TIP3    H224471   3.461   1.684   5.328 -0.5214  1.3990  1.2081
  994TIP3   OH224472   4.905   0.692  12.189 -0.5003  0.2116  0.5655
  994TIP3    H124473   4.879   0.748  12.263 -1.7039 -0.6282  0.8098
  994TIP3    H224474   4.926   0.608  12.229  0.2570  0.1733  0.0903
  995TIP3   OH224475   2.836   4.572   3.354  0.6060 -0.2467  0.0861
  995TIP3    H124476   2.783   4.644   3.320 -2.1755 -1.0334  2.3796
  995TIP3    H224477   2.805   4.494   3.308  1.3338 -0.4396 -0.0953
  996TIP3   OH224478   6.685   6.480  12.630  0.0897 -0.0509  0.3695
  996TIP3    H124479   6.653   6.566  12.604  2.4415  0.9181  0.4429
  996TIP3    H224480   6.617   6.419  12.600 -0.5696  1.6075 -1.7623
  997TIP3   OH224481   3.861   3.330  16.926 -0.2927  0.0958  0.4411
  997TIP3    H124482   3.834   3.317  17.016  1.9894  1.2055  1.3826
  997TIP3    H224483   3.813   3.407  16.897 -0.3554  0.2907  1.0502
  998TIP3   OH224484   1.757   3.226  16.591  0.4841  0.4524 -0.2858
  998TIP3    H124485   1.783   3.316  16.574  1.8532  0.3712  1.1244
  998TIP3    H224486   1.774   3.213  16.684 -0.2890 -1.0752 -0.3194
  999TIP3   OH224487   2.393   3.586  14.626 -0.1380 -0.2839  0.3963
  999TIP3    H124488   2.365   3.499  14.597  0.7006 -0.4148 -0.0713
  999TIP3    H224489   2.478   3.570  14.667 -0.0830  0.2880  0.5111
 1000TIP3   OH224490   6.550   4.285   4.477 -0.6008 -0.1538  0.3386
 1000TIP3    H124491   6.567   4.304   4.569  0.4066 -0.1850  0.1742
 1000TIP3    H224492   6.515   4.367   4.442  0.4482  0.3410  0.4146
 1001TIP3   OH224493   4.539   4.971  11.908 -0.0114 -0.2232  0.2629
 1001TIP3    H124494   4.503   4.889  11.874 -2.9606  2.2000 -3.1284
 1001TIP3    H224495   4.626   4.977  11.869 -1.0415 -0.3127 -2.2058
 1002TIP3   OH224496   1.601   2.849   2.621 -0.0774  0.4735 -0.6436
 1002TIP3    H124497   1.679   2.846   2.676 -0.0403 -3.0751 -0.6151
 1002TIP3    H224498   1.630   2.816   2.536 -1.2475  0.5099 -1.0819
 1003TIP3   OH224499   1.758   0.953  16.966 -0.5469 -0.5356 -0.1584
 1003TIP3    H124500   1.767   1.021  16.900 -0.0209 -0.9595 -0.5387
 1003TIP3    H224501   1.759   0.871  16.917 -0.8130 -0.8312  0.3203
 1004TIP3   OH224502   1.525   1.052   2.035 -0.4510  0.5573  0.1637
 1004TIP3    H124503   1.554   1.142   2.025 -0.2207  0.3267 -1.8253
 1004TIP3    H224504   1.442   1.058   2.082 -0.1774  1.7590  0.5057
 1005TIP3   OH224505   0.641   1.152   3.004  0.0027  0.0091  0.3219
 1005TIP3    H124506   0.612   1.241   2.984  1.2931 -0.0290 -2.0491
 1005TIP3    H224507   0.725   1.144   2.959 -0.7928 -2.8930 -0.8485
 1006TIP3   OH224508   1.309   5.661   5.854  0.5511  0.5283  0.0897
 1006TIP3    H124509   1.274   5.678   5.941 -0.2107 -1.9228  0.3393
 1006TIP3    H224510   1.364   5.737   5.835 -0.4187  1.8130  2.0699
 1007TIP3   OH224511   4.480   1.660  14.184  0.5892 -0.4027  0.2119
 1007TIP3    H124512   4.455   1.728  14.121  2.1054  0.2835  0.3096
 1007TIP3    H224513   4.463   1.700  14.269  2.3379  0.2606  0.2929
 1008TIP3   OH224514   2.834   3.343   2.515 -0.3359 -0.4640  0.1310
 1008TIP3    H124515   2.793   3.404   2.576  0.8992  0.9659 -0.4166
 1008TIP3    H224516   2.764   3.316   2.457 -0.9952  0.0754  0.6657
 1009TIP3   OH224517   1.832   2.308  12.226 -0.9823 -0.1733  0.0360
 1009TIP3    H124518   1.779   2.235  12.258 -1.2632  0.0681  0.1246
 1009TIP3    H224519   1.832   2.298  12.131  0.1575 -1.1025  0.1091
 1010TIP3   OH224520   3.057   0.050   2.943  0.1751  0.2257 -0.3561
 1010TIP3    H124521   2.965   0.044   2.917  0.6538 -1.7670 -1.8399
 1010TIP3    H224522   3.103   0.068   2.861  1.3891 -2.1906 -0.2711
 1011TIP3   OH224523   5.199   4.885   4.992  0.1615  0.0884 -0.7706
 1011TIP3    H124524   5.195   4.870   4.898  0.3828 -0.7323 -0.6565
 1011TIP3    H224525   5.293   4.881   5.013 -0.0141 -2.0818 -0.1733
 1012TIP3   OH224526   3.916   4.111  15.932  0.1299  0.2561 -0.2783
 1012TIP3    H124527   4.005   4.142  15.949 -0.4163  0.5865  2.3917
 1012TIP3    H224528   3.876   4.182  15.882  0.9248  0.7578 -0.2357
 1013TIP3   OH224529   0.596   6.449  11.561  0.0807 -0.4239 -0.1555
 1013TIP3    H124530   0.622   6.520  11.619  0.1831 -1.2126  0.7870
 1013TIP3    H224531   0.667   6.442  11.498  0.8333 -0.7276  0.7113
 1014TIP3   OH224532   3.023   6.616   5.373 -0.1368 -0.0370  0.3522
 1014TIP3    H124533   2.982   6.681   5.430  0.6581  0.3884  0.4504
 1014TIP3    H224534   2.950   6.572   5.330 -0.6754  1.6883 -0.5817
 1015TIP3   OH224535   1.478   3.091   5.272 -0.3270  0.2591  0.2997
 1015TIP3    H124536   1.403   3.083   5.214 -0.6948 -1.9551  1.0097
 1015TIP3    H224537   1.444   3.071   5.359  0.7420  0.9841  0.9093
 1016TIP3   OH224538   2.237   3.817  13.519 -0.8228 -0.4866  0.0522
 1016TIP3    H124539   2.170   3.750  13.506 -3.4524  1.5604  1.8811
 1016TIP3    H224540   2.208   3.891  13.464  1.5292 -0.4380 -1.2705
 1017TIP3   OH224541   4.818   1.591  14.093 -0.3448  0.1717  0.1721
 1017TIP3    H124542   4.858   1.649  14.027  0.8843 -0.9087 -0.0775
 1017TIP3    H224543   4.725   1.590  14.070 -0.1710  0.9787 -0.6408
 1018TIP3   OH224544   4.718   1.619  14.393 -0.3187  0.7741  0.1879
 1018TIP3    H124545   4.629   1.639  14.421 -0.3796  0.1082  0.4678
 1018TIP3    H224546   4.715   1.628  14.297 -0.4858  1.5223  0.2562
 1019TIP3   OH224547   6.256   1.296  12.073  0.0564 -0.0215  0.5733
 1019TIP3    H124548   6.185   1.256  12.124 -0.1275  0.5506  0.7793
 1019TIP3    H224549   6.263   1.242  11.995 -0.1324 -0.5010  0.8830
 1020TIP3   OH224550   1.490   3.003  15.370  0.0897  0.4912 -0.1842
 1020TIP3    H124551   1.509   3.026  15.461 -1.1010  1.1281 -0.0778
 1020TIP3    H224552   1.401   2.967  15.372  0.3207 -0.1642 -0.9982
 1021TIP3   OH224553   6.388   1.731  16.301  0.4920 -0.1521  0.4158
 1021TIP3    H124554   6.392   1.756  16.393 -2.8266  0.6970  0.4853
 1021TIP3    H224555   6.394   1.814  16.254 -1.9874 -0.0272  0.1834
 1022TIP3   OH224556   1.328   0.720   3.314  0.5576 -0.2753 -0.2345
 1022TIP3    H124557   1.310   0.758   3.228 -0.2319 -0.2841 -0.0800
 1022TIP3    H224558   1.420   0.694   3.311  0.8899  0.9136 -0.6224
 1023TIP3   OH224559   2.968   1.336  15.635 -0.3693  0.0754  0.1892
 1023TIP3    H124560   2.972   1.357  15.541 -1.8331 -1.1854 -0.1870
 1023TIP3    H224561   2.978   1.421  15.678 -0.6055  0.8082 -1.1315
 1024TIP3   OH224562   6.159   4.988   4.836  0.0520  0.6613 -0.1130
 1024TIP3    H124563   6.208   4.931   4.777  0.0657  0.6244 -0.0658
 1024TIP3    H224564   6.133   4.931   4.908  1.1951  0.9979  0.5907
 1025TIP3   OH224565   1.240   3.609   5.574 -0.2029  0.3827  0.0549
 1025TIP3    H124566   1.309   3.555   5.536 -0.2572  0.3902 -0.0541
 1025TIP3    H224567   1.162   3.589   5.522 -0.7553 -1.0627  1.3773
 1026TIP3   OH224568   4.656   5.617  13.784  0.3360  0.3762 -0.1316
 1026TIP3    H124569   4.628   5.621  13.876  2.0179 -0.2408  0.4476
 1026TIP3    H224570   4.693   5.529  13.774  0.1310  0.4231 -1.4234
 1027TIP3   OH224571   2.844   5.429  14.502  0.2238 -0.3025  0.9860
 1027TIP3    H124572   2.800   5.391  14.578 -1.3057 -0.6217 -0.0108
 1027TIP3    H224573   2.788   5.405  14.427  2.0109 -0.5751 -0.3468
 1028TIP3   OH224574   6.751   5.085   0.460 -0.5989 -0.1789  0.0701
 1028TIP3    H124575   6.710   5.170   0.476  0.3000 -0.2191  3.3553
 1028TIP3    H224576   6.688   5.021   0.493 -0.7771 -0.7212 -1.2886
 1029TIP3   OH224577   4.342   2.280   2.993 -0.1398  0.0626 -0.7094
 1029TIP3    H124578   4.353   2.359   2.940  0.4068 -0.3125 -1.1637
 1029TIP3    H224579   4.247   2.268   2.999 -0.2862  1.4552  0.4216
 1030TIP3   OH224580   2.415   0.235   0.561 -0.6522 -0.5231  0.1890
 1030TIP3    H124581   2.320   0.246   0.566 -0.5830  0.1489  0.1410
 1030TIP3    H224582   2.450   0.321   0.585 -0.0749 -0.4303 -0.9284
 1031TIP3   OH224583   6.628   4.004   1.094 -0.5812  0.0232  0.1318
 1031TIP3    H124584   6.678   4.052   1.028 -1.2050 -0.4083 -0.6740
 1031TIP3    H224585   6.667   3.916   1.095 -1.0472 -0.1920 -0.2053
 1032TIP3   OH224586   3.527   5.613  13.923 -0.6185  0.5729  0.0466
 1032TIP3    H124587   3.515   5.525  13.959  1.5167  0.5790  0.9537
 1032TIP3    H224588   3.492   5.671  13.991  0.8982  0.4822  0.9638
 1033TIP3   OH224589   6.808   2.362  16.037 -0.3205 -0.1280  0.4916
 1033TIP3    H124590   6.806   2.266  16.029  0.9698 -0.1663  0.3826
 1033TIP3    H224591   6.843   2.377  16.125 -1.9571  0.2744  1.1177
 1034TIP3   OH224592   6.823   4.127   4.895 -0.4689 -0.0535 -0.2720
 1034TIP3    H124593   6.841   4.097   4.984 -0.2134  1.0232  0.0561
 1034TIP3    H224594   6.729   4.116   4.885 -0.5444  0.1086  0.2402
 1035TIP3   OH224595   6.360   5.344   0.461 -0.1288  0.0344  0.1712
 1035TIP3    H124596   6.291   5.383   0.408 -0.4761 -0.1706  0.4631
 1035TIP3    H224597   6.398   5.275   0.406 -0.0800  0.2197 -0.0289
 1036TIP3   OH224598   6.099   2.295   3.000 -0.4760 -0.3684  0.2059
 1036TIP3    H124599   6.051   2.221   2.962 -1.2292  0.6132 -0.7950
 1036TIP3    H224600   6.164   2.254   3.057 -2.0542 -1.7564  1.0867
 1037TIP3   OH224601   5.971   3.580   1.642 -0.3393 -0.1047 -0.6897
 1037TIP3    H124602   6.061   3.563   1.616 -0.9034 -0.9219 -2.2107
 1037TIP3    H224603   5.948   3.508   1.701  0.4793  0.9825  1.0538
 1038TIP3   OH224604   4.067   0.892   4.735 -0.0574 -0.0117  0.3375
 1038TIP3    H124605   4.050   0.986   4.731  2.0149  0.3859 -0.4367
 1038TIP3    H224606   4.092   0.876   4.826 -3.3552 -0.4830  1.3177
 1039TIP3   OH224607   3.753   6.182  12.052  0.3656  0.1007 -0.7384
 1039TIP3    H124608   3.802   6.249  12.003 -1.0841  0.5202 -1.6634
 1039TIP3    H224609   3.661   6.204  12.038 -0.2010 -2.5012 -1.6947
 1040TIP3   OH224610   1.066   6.592   6.235 -0.0952  0.1834 -0.1042
 1040TIP3    H124611   1.067   6.499   6.254 -3.0006  0.4543  2.1393
 1040TIP3    H224612   1.107   6.600   6.149 -1.9380 -3.4816 -1.5449
 1041TIP3   OH224613   4.439   1.236   6.019 -0.3424  0.0985  0.4337
 1041TIP3    H124614   4.354   1.281   6.021  0.1483  1.1966 -1.4253
 1041TIP3    H224615   4.502   1.303   6.047  0.2828  0.3480 -1.4477
 1042TIP3   OH224616   2.389   3.402   3.827  0.1931  0.1693 -0.1797
 1042TIP3    H124617   2.395   3.389   3.922 -0.1848  1.3425  0.0184
 1042TIP3    H224618   2.344   3.324   3.795  0.8960 -0.5455  0.5133
 1043TIP3   OH224619   4.037   3.045   3.901 -0.5447 -0.2680 -0.3112
 1043TIP3    H124620   4.128   3.034   3.875 -0.4353 -0.0112 -0.0370
 1043TIP3    H224621   4.032   3.009   3.989 -0.9776 -1.3884 -0.7718
 1044TIP3   OH224622   5.786   4.816  10.953 -0.5332  0.3682 -0.1307
 1044TIP3    H124623   5.775   4.785  10.863 -1.1057 -1.2267  0.4583
 1044TIP3    H224624   5.713   4.877  10.967 -1.7355 -1.0140 -0.0999
 1045TIP3   OH224625   5.055   1.583   0.514  0.6507  0.3634  0.1292
 1045TIP3    H124626   4.962   1.600   0.529  0.7042 -0.5321  1.6744
 1045TIP3    H224627   5.061   1.487   0.513  1.1114  0.3016 -3.1539
 1046TIP3   OH224628   0.781   5.347  14.575  0.4177  0.4323 -0.0558
 1046TIP3    H124629   0.842   5.399  14.627  0.4755  1.4107 -1.0638
 1046TIP3    H224630   0.718   5.410  14.541 -0.1151 -0.3042 -0.4695
 1047TIP3   OH224631   5.677   4.592   5.754 -0.2076 -0.1910  0.1389
 1047TIP3    H124632   5.761   4.591   5.707 -0.5357  0.0621 -0.4645
 1047TIP3    H224633   5.658   4.499   5.770  0.2452 -0.2450  0.3934
 1048TIP3   OH224634   6.871   5.048  15.087  0.3699 -0.7199 -0.0930
 1048TIP3    H124635   6.950   5.090  15.054 -0.8149  1.0133 -0.8657
 1048TIP3    H224636   6.840   5.106  15.156 -0.9991 -0.5792 -0.7902
 1049TIP3   OH224637   4.478   5.488  16.190 -0.1870  0.2203  0.5072
 1049TIP3    H124638   4.497   5.577  16.162 -0.3605 -0.3733 -1.6684
 1049TIP3    H224639   4.530   5.477  16.269  0.9841  1.7801  0.0141
 1050TIP3   OH224640   6.505   3.045   3.180 -0.2840  0.1108 -0.0901
 1050TIP3    H124641   6.512   2.954   3.151 -0.7056  0.6221 -1.9690
 1050TIP3    H224642   6.520   3.096   3.100  2.0848  1.7734  1.3189
 1051TIP3   OH224643   5.459   2.694  13.254 -0.7305 -0.2489 -0.1008
 1051TIP3    H124644   5.424   2.776  13.288  0.6489  0.2817  0.1107
 1051TIP3    H224645   5.420   2.685  13.167  1.8645  2.5657 -1.7420
 1052TIP3   OH224646   4.100   3.937   0.206 -0.1770 -0.4824 -0.0571
 1052TIP3    H124647   4.178   3.993   0.206  0.5384 -1.4627  0.5117
 1052TIP3    H224648   4.131   3.851   0.235 -0.9158 -1.6645 -2.5115
 1053TIP3   OH224649   6.431   1.474   6.315 -0.1969  0.5797 -0.1076
 1053TIP3    H124650   6.449   1.414   6.388  2.1558 -3.2752 -3.4676
 1053TIP3    H224651   6.502   1.537   6.318  1.1201 -0.8366 -0.1889
 1054TIP3   OH224652   4.780   6.655  14.772  0.2422  0.6086 -0.5906
 1054TIP3    H124653   4.741   6.715  14.708 -2.0869 -0.3609 -0.1633
 1054TIP3    H224654   4.732   6.573  14.761  1.3639 -0.2866  0.8425
 1055TIP3   OH224655   3.179   5.027   0.244  0.0839  0.1932  0.5816
 1055TIP3    H124656   3.146   5.092   0.182 -0.6678 -2.5581 -2.1678
 1055TIP3    H224657   3.273   5.020   0.225 -0.4747 -2.1156 -1.9914
 1056TIP3   OH224658   4.067   3.461  15.536  0.2480 -0.2451 -1.1419
 1056TIP3    H124659   4.139   3.408  15.502 -0.3328 -1.4457 -0.5660
 1056TIP3    H224660   4.042   3.517  15.463  1.4417 -0.1489 -1.5035
 1057TIP3   OH224661   5.565   1.618   2.924 -0.2269  0.6575 -0.3267
 1057TIP3    H124662   5.619   1.577   2.992  1.7125  1.7112 -1.1618
 1057TIP3    H224663   5.520   1.545   2.882  2.0833 -0.5178 -0.8864
 1058TIP3   OH224664   1.238   3.645  13.308 -0.0874 -0.2554 -0.3057
 1058TIP3    H124665   1.237   3.643  13.404 -2.5445 -0.1891 -0.2872
 1058TIP3    H224666   1.302   3.713  13.287  0.4999 -0.2643  1.2748
 1059TIP3   OH224667   6.828   1.331  12.785 -0.1834  0.2873  0.0185
 1059TIP3    H124668   6.841   1.240  12.758 -0.8337  0.7518 -2.0115
 1059TIP3    H224669   6.779   1.325  12.867 -1.9575 -1.1955 -1.0799
 1060TIP3   OH224670   4.909   3.271  14.766  0.2480  0.5349 -0.0962
 1060TIP3    H124671   4.946   3.220  14.839  0.4299  0.9157  0.0810
 1060TIP3    H224672   4.936   3.223  14.688  0.2585  0.2529  0.0783
 1061TIP3   OH224673   4.681   0.684  16.853 -0.1492  0.6859  0.1007
 1061TIP3    H124674   4.677   0.600  16.807 -1.0931 -0.3565  1.9669
 1061TIP3    H224675   4.730   0.667  16.933 -2.0618  1.3370  1.5150
 1062TIP3   OH224676   5.301   6.176   6.475  0.2896 -0.0526 -0.0529
 1062TIP3    H124677   5.378   6.225   6.501  2.1451 -1.5324 -2.3073
 1062TIP3    H224678   5.330   6.085   6.472 -1.1249 -0.5152 -2.1460
 1063TIP3   OH224679   4.618   1.610   1.778  0.5240 -0.0281  0.5105
 1063TIP3    H124680   4.547   1.551   1.754 -1.3567  2.6491 -1.1467
 1063TIP3    H224681   4.576   1.678   1.832  2.1642  0.7772  0.8489
 1064TIP3   OH224682   2.912   1.842  16.276  0.1720  0.0637  0.2258
 1064TIP3    H124683   3.004   1.827  16.251  0.2899  0.3652  0.4776
 1064TIP3    H224684   2.915   1.856  16.370  0.4769  4.6561 -0.2666
 1065TIP3   OH224685   4.538   0.873   4.892 -0.1128 -0.2041 -0.0294
 1065TIP3    H124686   4.599   0.838   4.958  0.0684  0.0348 -0.0684
 1065TIP3    H224687   4.465   0.811   4.892  0.9195 -1.4649 -1.2343
 1066TIP3   OH224688   0.157   4.296   5.364  0.2221 -0.2570  0.2667
 1066TIP3    H124689   0.148   4.337   5.450  0.7578  0.4556 -0.0110
 1066TIP3    H224690   0.169   4.369   5.303  5.0746 -0.8174  0.2080
 1067TIP3   OH224691   4.510   0.078   4.336 -0.1737  0.0179 -0.4346
 1067TIP3    H124692   4.434   0.022   4.315 -0.2007 -0.4143  0.7540
 1067TIP3    H224693   4.578   0.049   4.275  0.4273 -2.6657  1.3457
 1068TIP3   OH224694   2.977   0.159  12.773  0.1808  0.3250  0.0767
 1068TIP3    H124695   3.004   0.239  12.817  0.6777  0.1485  0.1003
 1068TIP3    H224696   2.891   0.139  12.810 -0.5508  1.5555 -0.8875
 1069TIP3   OH224697   3.157   5.271  12.997 -0.4495  0.2266 -0.4502
 1069TIP3    H124698   3.112   5.225  13.069 -0.8180  2.4785  0.8628
 1069TIP3    H224699   3.102   5.254  12.920 -1.0277 -0.7833  0.1520
 1070TIP3   OH224700   3.811   2.738  10.740 -0.2362 -0.0392  0.0851
 1070TIP3    H124701   3.779   2.703  10.656 -1.0288  0.4157  0.1803
 1070TIP3    H224702   3.846   2.663  10.786 -0.4386 -0.4218 -0.3758
 1071TIP3   OH224703   1.803   0.375  12.389 -0.3613  0.3424 -0.0276
 1071TIP3    H124704   1.762   0.332  12.463  1.6102 -0.0616  0.9158
 1071TIP3    H224705   1.862   0.309  12.352  2.6368  1.9961  1.3701
 1072TIP3   OH224706   1.689   4.683  12.372 -0.0193 -0.0417  0.2866
 1072TIP3    H124707   1.658   4.593  12.379 -1.1945  0.2283 -1.0331
 1072TIP3    H224708   1.616   4.737  12.402  0.4761  0.5060  0.5463
 1073TIP3   OH224709   0.100   1.400  11.854 -0.0509  0.7430  0.2091
 1073TIP3    H124710   0.083   1.401  11.760 -0.2174  0.6326  0.2389
 1073TIP3    H224711   0.050   1.325  11.887  1.8747 -0.7170  0.0154
 1074TIP3   OH224712   0.607   3.385   4.691 -0.0879  0.4569  0.0502
 1074TIP3    H124713   0.649   3.406   4.608 -0.8745 -0.2783 -0.5513
 1074TIP3    H224714   0.514   3.404   4.676 -0.5481 -1.5952  0.0910
 1075TIP3   OH224715   3.641   2.714  11.856  0.0651  0.3919 -0.7532
 1075TIP3    H124716   3.657   2.673  11.941 -0.5780 -0.0633 -0.8432
 1075TIP3    H224717   3.699   2.670  11.795 -1.2300 -1.0269 -1.0204
 1076TIP3   OH224718   2.361   3.295  11.738 -0.3156  0.5432 -0.0372
 1076TIP3    H124719   2.356   3.269  11.830  0.9036 -0.3532 -0.2082
 1076TIP3    H224720   2.452   3.320  11.725 -0.3923  0.2909 -1.1014
 1077TIP3   OH224721   2.750   1.375  10.675 -0.0931 -0.3644 -0.8986
 1077TIP3    H124722   2.700   1.305  10.632  0.6319 -2.4241  1.4041
 1077TIP3    H224723   2.837   1.338  10.688  0.1973  0.8151  0.7595
 1078TIP3   OH224724   6.411   4.728   0.682  0.7338 -0.4050 -0.0844
 1078TIP3    H124725   6.345   4.677   0.635 -0.0886 -0.6028  1.2390
 1078TIP3    H224726   6.363   4.772   0.751  1.4420  2.1325 -1.1092
 1079TIP3   OH224727   0.789   6.495  16.667 -0.0075 -0.1194  0.5052
 1079TIP3    H124728   0.773   6.408  16.704  0.3803 -0.1136  0.6932
 1079TIP3    H224729   0.772   6.555  16.740 -1.6033  0.0703  0.0159
 1080TIP3   OH224730   1.103   5.458   6.098 -0.0503 -0.1426  0.0726
 1080TIP3    H124731   1.020   5.452   6.051 -0.1545  1.3723  0.0301
 1080TIP3    H224732   1.096   5.539   6.149  1.2869 -0.1541  0.3027
 1081TIP3   OH224733   2.686   3.299   0.042 -0.0062  0.2280  0.3194
 1081TIP3    H124734   2.691   3.394   0.043  2.6734  0.1670 -0.1360
 1081TIP3    H224735   2.645   3.278  -0.042 -0.0901  0.9446  0.1768
 1082TIP3   OH224736   1.214   3.739  10.997  0.4719  0.1058  0.2413
 1082TIP3    H124737   1.141   3.677  11.005  0.1173  0.3593 -0.8591
 1082TIP3    H224738   1.230   3.769  11.087  0.5621 -1.4577  0.7775
 1083TIP3   OH224739   1.764   2.742   2.405 -0.3493 -0.5110 -0.0178
 1083TIP3    H124740   1.749   2.687   2.329  1.9289 -0.5781 -0.4828
 1083TIP3    H224741   1.832   2.803   2.378 -0.6549  0.5531  1.4551
 1084TIP3   OH224742   3.421   5.650  11.359  0.2795 -0.9815 -0.2363
 1084TIP3    H124743   3.402   5.694  11.442  1.8076 -0.0012 -0.3733
 1084TIP3    H224744   3.408   5.557  11.378  1.1686 -0.8306  1.2788
 1085TIP3   OH224745   6.350   6.081   1.164 -0.3114  0.0478  0.2829
 1085TIP3    H124746   6.304   6.002   1.137 -1.5903  0.9453 -0.3162
 1085TIP3    H224747   6.281   6.138   1.198  0.6662  0.6833  1.2718
 1086TIP3   OH224748   1.357   5.391   0.789 -0.1313 -0.6264 -0.0778
 1086TIP3    H124749   1.415   5.377   0.864  2.2628 -3.6130 -2.2496
 1086TIP3    H224750   1.410   5.438   0.726 -1.9344  1.3399 -0.2409
 1087TIP3   OH224751   3.210   4.276  14.334  0.0072 -0.4413 -0.0173
 1087TIP3    H124752   3.246   4.213  14.397 -0.9665 -0.3436  0.6698
 1087TIP3    H224753   3.263   4.355  14.346 -0.0882 -0.4643  0.6095
 1088TIP3   OH224754   3.398   2.957  14.337 -0.1482  0.4699 -0.5095
 1088TIP3    H124755   3.409   2.869  14.374  0.4888  0.4562 -0.7283
 1088TIP3    H224756   3.432   2.950  14.248 -0.8890  0.7239 -0.8236
 1089TIP3   OH224757   0.730   1.774   2.029 -0.0886  0.0247  0.3886
 1089TIP3    H124758   0.713   1.859   1.990 -1.5701  0.6160  2.1703
 1089TIP3    H224759   0.655   1.720   2.004 -0.4601  0.0568  1.3569
 1090TIP3   OH224760   2.414   0.364  13.194  0.1763 -0.2995 -0.0931
 1090TIP3    H124761   2.475   0.300  13.232  0.6898  0.5896  0.6144
 1090TIP3    H224762   2.350   0.311  13.148  1.0386 -1.2980 -0.1799
 1091TIP3   OH224763   6.498   5.382  15.858 -0.2974 -0.7044  0.3183
 1091TIP3    H124764   6.428   5.318  15.871  0.3408 -1.5349 -0.2003
 1091TIP3    H224765   6.569   5.351  15.914 -0.2558 -0.0147  0.6462
 1092TIP3   OH224766   0.526   0.410  13.453 -0.1033 -0.1649 -0.6258
 1092TIP3    H124767   0.593   0.429  13.518 -1.3149  3.1191 -0.1183
 1092TIP3    H224768   0.472   0.342  13.492  2.2882 -2.2348 -0.6690
 1093TIP3   OH224769   6.759   1.064  14.326  0.0805  0.1526  0.1928
 1093TIP3    H124770   6.706   0.985  14.320 -0.2691  0.3139  0.9898
 1093TIP3    H224771   6.819   1.059  14.252 -1.4070  0.2425 -1.0622
 1094TIP3   OH224772   0.515   3.111  10.466 -0.2923 -0.4732 -0.0647
 1094TIP3    H124773   0.591   3.168  10.474 -0.3311 -0.4315  0.0169
 1094TIP3    H224774   0.467   3.145  10.391  0.0858 -0.8773 -0.4889
 1095TIP3   OH224775   4.673   4.375  12.127 -0.0859 -0.0024  0.2630
 1095TIP3    H124776   4.691   4.423  12.046 -1.2478  1.0065  0.5726
 1095TIP3    H224777   4.746   4.313  12.135  0.4922  0.4602 -1.1031
 1096TIP3   OH224778   1.154   3.443  12.663  0.1297 -0.5816 -0.1223
 1096TIP3    H124779   1.212   3.391  12.718  0.4197  0.1625  0.2896
 1096TIP3    H224780   1.195   3.440  12.576  0.9971  0.2195  0.2340
 1097TIP3   OH224781   5.094   0.492   0.109 -0.1689  0.7261  0.2956
 1097TIP3    H124782   5.180   0.514   0.145  1.1708 -1.0023 -1.6004
 1097TIP3    H224783   5.086   0.397   0.122 -0.8216  0.5161 -1.4397
 1098TIP3   OH224784   4.792   6.561   0.579 -0.2580  0.3663 -0.1474
 1098TIP3    H124785   4.700   6.570   0.555 -0.4961  1.4318  1.0572
 1098TIP3    H224786   4.804   6.467   0.592 -1.0058  0.1498 -0.9276
 1099TIP3   OH224787   6.648   6.077  12.525 -0.5222 -0.9292 -0.4993
 1099TIP3    H124788   6.713   6.053  12.458  0.4018 -3.3099  1.1017
 1099TIP3    H224789   6.597   5.997  12.537  0.0151 -0.9515  2.3127
 1100TIP3   OH224790   2.003   5.089   4.991 -0.3240  0.0534 -0.0843
 1100TIP3    H124791   1.948   5.059   5.063  1.7422  2.5134  2.8204
 1100TIP3    H224792   1.974   5.179   4.974  2.0685  1.1208  0.9729
 1101TIP3   OH224793   5.480   4.793   0.221 -0.3781 -0.0147  0.7745
 1101TIP3    H124794   5.387   4.776   0.231 -0.6595  0.4037 -0.7575
 1101TIP3    H224795   5.501   4.855   0.291 -1.7598  1.5375 -0.0942
 1102TIP3   OH224796   3.991   5.544   1.751 -0.2348  0.3411  0.1115
 1102TIP3    H124797   3.993   5.484   1.825  1.8277 -0.6658 -0.6967
 1102TIP3    H224798   4.031   5.625   1.784  0.5744 -0.0678  0.1573
 1103TIP3   OH224799   6.319   3.650   3.587 -0.4697  0.3771 -0.7954
 1103TIP3    H124800   6.337   3.586   3.518 -0.4556  0.5196 -0.9238
 1103TIP3    H224801   6.303   3.732   3.540 -3.3167 -0.1018 -0.8395
 1104TIP3   OH224802   2.648   3.143   0.297 -0.6421  0.2835 -0.2601
 1104TIP3    H124803   2.656   3.047   0.301  0.9857  0.4007 -0.4257
 1104TIP3    H224804   2.674   3.165   0.208  1.4437  1.0767  0.5017
 1105TIP3   OH224805   6.547   5.475   5.038 -0.7287  0.0090  0.2304
 1105TIP3    H124806   6.527   5.441   4.951  1.9901  0.5432 -0.7025
 1105TIP3    H224807   6.464   5.467   5.087 -2.4519  0.0300 -2.4737
 1106TIP3   OH224808   1.552   6.363   4.472 -0.0291 -0.0843  0.2733
 1106TIP3    H124809   1.533   6.447   4.430 -0.6072 -0.3060  0.0827
 1106TIP3    H224810   1.601   6.386   4.551  0.4715  0.3821 -0.1671
 1107TIP3   OH224811   0.101   6.804   1.339  0.3043 -0.6353  0.3930
 1107TIP3    H124812   0.156   6.864   1.289  0.3770  0.5059  1.7571
 1107TIP3    H224813   0.012   6.821   1.307  0.4596 -0.6443 -0.0453
 1108TIP3   OH224814   5.925   1.911   2.479 -0.1194  0.8320 -0.5805
 1108TIP3    H124815   5.984   1.970   2.526  0.4111 -1.0220  1.2189
 1108TIP3    H224816   5.927   1.942   2.388  2.8198  1.4626 -0.3920
 1109TIP3   OH224817   6.253   4.779   4.181  0.2141  0.3042  0.1555
 1109TIP3    H124818   6.326   4.834   4.209  0.0920  0.6793 -0.2547
 1109TIP3    H224819   6.293   4.696   4.157  0.5102  0.5073 -0.0666
 1110TIP3   OH224820   6.831   6.308  14.137  0.0558  0.1810  0.5028
 1110TIP3    H124821   6.919   6.314  14.099 -0.0171 -1.2859  0.0543
 1110TIP3    H224822   6.845   6.277  14.226 -0.0607 -1.2172  0.0494
 1111TIP3   OH224823   5.392   3.964   1.720  1.0454  0.0926 -0.3901
 1111TIP3    H124824   5.438   4.045   1.742 -2.1685  1.7567  0.8448
 1111TIP3    H224825   5.327   3.954   1.789 -0.1487 -2.3541 -1.7425
 1112TIP3   OH224826   3.915   5.860   4.709 -0.5164  0.0252 -0.3572
 1112TIP3    H124827   3.901   5.852   4.614  1.2938  1.0857 -0.7635
 1112TIP3    H224828   3.941   5.772   4.737  0.8909  0.1382 -1.2376
 1113TIP3   OH224829   2.144   5.465  16.052  0.1660  0.2473 -0.3760
 1113TIP3    H124830   2.070   5.463  16.113 -0.0346 -2.2860 -0.5958
 1113TIP3    H224831   2.174   5.374  16.048  2.1640  0.9006 -1.6851
 1114TIP3   OH224832   4.242   3.617  16.994  0.3685  0.5009 -0.3376
 1114TIP3    H124833   4.192   3.681  16.944 -2.1763 -0.4250  0.8496
 1114TIP3    H224834   4.203   3.533  16.972  0.8719 -0.1887  1.2394
 1115TIP3   OH224835   5.948   3.387   3.774  0.0924  0.5519 -0.3234
 1115TIP3    H124836   5.893   3.431   3.710 -0.6215 -1.6544 -1.3331
 1115TIP3    H224837   6.035   3.385   3.734  0.2607  1.4803 -0.0245
 1116TIP3   OH224838   3.582   6.640   2.772  0.0336 -0.6399  0.2067
 1116TIP3    H124839   3.609   6.551   2.750  0.5334 -0.1881 -1.1294
 1116TIP3    H224840   3.505   6.628   2.828  0.4515 -1.9095  0.5486
 1117TIP3   OH224841   1.872   1.365   3.367 -0.1879  0.7373 -0.0312
 1117TIP3    H124842   1.937   1.349   3.298  0.1785  0.2819  0.4155
 1117TIP3    H224843   1.904   1.443   3.412 -0.8422  1.5116 -0.8537
 1118TIP3   OH224844   4.363   0.799  13.325  0.0477  0.7718 -0.2402
 1118TIP3    H124845   4.353   0.739  13.251 -0.9636  0.1053  0.4095
 1118TIP3    H224846   4.274   0.826  13.347  0.1967  0.0077  1.4905
 1119TIP3   OH224847   3.570   2.410  11.231  0.3861  0.6134 -0.5705
 1119TIP3    H124848   3.488   2.435  11.188 -0.5981  2.5736  2.2063
 1119TIP3    H224849   3.638   2.455  11.181 -0.5051  1.2200 -1.2674
 1120TIP3   OH224850   5.734   4.436   3.592 -0.1780  0.3335  0.5485
 1120TIP3    H124851   5.666   4.499   3.618 -0.4811  0.4722 -0.5637
 1120TIP3    H224852   5.688   4.353   3.584 -0.5149  0.6736 -1.4904
 1121TIP3   OH224853   5.321   4.640  12.769  0.5194  0.0141  0.4748
 1121TIP3    H124854   5.284   4.553  12.751  1.1798  0.0544 -1.2392
 1121TIP3    H224855   5.247   4.700  12.756  0.4057 -0.1760  0.2235
 1122TIP3   OH224856   2.780   1.170  13.957  0.4584  0.7597  0.6794
 1122TIP3    H124857   2.843   1.242  13.970  0.3170  1.3847 -1.6697
 1122TIP3    H224858   2.835   1.094  13.936  0.5656  0.3309  2.3712
 1123TIP3   OH224859   5.843   0.906  14.461  0.9619 -0.4312 -0.2728
 1123TIP3    H124860   5.764   0.958  14.470  1.0969 -0.3508  0.4736
 1123TIP3    H224861   5.824   0.824  14.507  1.2736 -0.4506 -0.1730
 1124TIP3   OH224862   1.434   4.754  11.720  0.1844  0.0138  0.5208
 1124TIP3    H124863   1.482   4.691  11.667 -0.8266 -2.0344  1.8915
 1124TIP3    H224864   1.496   4.782  11.787  0.0621 -1.1334  1.1296
 1125TIP3   OH224865   0.062   2.843  13.252 -0.0192 -0.2629 -0.0432
 1125TIP3    H124866   0.012   2.887  13.321 -0.6360 -1.5462  0.3494
 1125TIP3    H224867   0.154   2.862  13.273 -0.2734  1.6319 -0.4488
 1126TIP3   OH224868   0.202   1.984   1.333  0.0618  0.6231 -0.9638
 1126TIP3    H124869   0.248   1.930   1.397 -0.8523 -0.1262 -0.9101
 1126TIP3    H224870   0.237   1.956   1.249 -1.5505 -1.3148 -1.0793
 1127TIP3   OH224871   5.959   0.885   0.305  0.0719  0.1637  0.4092
 1127TIP3    H124872   5.930   0.826   0.235  3.0271  1.3744 -2.0379
 1127TIP3    H224873   6.024   0.834   0.353 -3.9083 -1.7727  4.5344
 1128TIP3   OH224874   5.505   1.373  13.145  0.0523 -0.2924 -0.4471
 1128TIP3    H124875   5.424   1.336  13.109 -0.0983 -2.8603  2.1481
 1128TIP3    H224876   5.479   1.459  13.178 -0.9735 -0.0484 -1.7720
 1129TIP3   OH224877   3.150   0.769  16.006 -0.4785  0.0186 -0.5715
 1129TIP3    H124878   3.144   0.856  16.045 -1.9016 -0.3692  0.1311
 1129TIP3    H224879   3.065   0.754  15.966 -0.9838 -1.7857  1.0047
 1130TIP3   OH224880   5.135   5.888   1.473 -0.1285 -0.0009  0.6267
 1130TIP3    H124881   5.134   5.808   1.421 -1.1636  0.6494 -0.3777
 1130TIP3    H224882   5.195   5.868   1.546 -0.6630 -1.8052  0.6129
 1131TIP3   OH224883   5.102   1.292   0.499  0.1379 -0.0300 -0.4551
 1131TIP3    H124884   5.147   1.209   0.514 -1.0833 -0.4506  1.1105
 1131TIP3    H224885   5.011   1.275   0.523 -0.4268  1.3899 -1.4500
 1132TIP3   OH224886   3.683   1.310   1.632  0.0195 -0.1757  0.0973
 1132TIP3    H124887   3.624   1.249   1.676 -1.0783  1.9908  1.8004
 1132TIP3    H224888   3.770   1.290   1.668 -0.3001 -0.7642  0.5531
 1133TIP3   OH224889   4.706   6.544   4.129 -0.6484 -0.5008  0.3837
 1133TIP3    H124890   4.739   6.456   4.114 -2.0934 -0.9779 -0.2038
 1133TIP3    H224891   4.691   6.580   4.042  0.5790  0.6164  0.5970
 1134TIP3   OH224892   1.019   1.222   5.667 -0.0482  0.1290  0.3699
 1134TIP3    H124893   1.009   1.241   5.761 -0.8206 -1.2288  0.5868
 1134TIP3    H224894   0.930   1.209   5.635  0.2629 -0.2526 -0.3692
 1135TIP3   OH224895   4.162   1.054   3.377 -0.0819  0.2683 -0.1445
 1135TIP3    H124896   4.206   0.969   3.368 -0.9233 -0.0090 -2.1319
 1135TIP3    H224897   4.080   1.034   3.422 -0.2676  0.0135 -0.5895
 1136TIP3   OH224898   1.574   1.472   3.841 -0.2559 -0.2589 -0.2930
 1136TIP3    H124899   1.597   1.537   3.773 -0.2752 -0.5201 -0.5514
 1136TIP3    H224900   1.482   1.490   3.861 -0.2888 -0.2650 -0.4334
 1137TIP3   OH224901   4.836   1.027  13.109  0.2029  0.4139  0.2597
 1137TIP3    H124902   4.919   1.007  13.152  0.5047  0.9690 -0.0573
 1137TIP3    H224903   4.861   1.069  13.027 -0.4106  1.8624  0.7905
 1138TIP3   OH224904   3.574   5.961   2.593  0.1661 -0.3234 -0.1790
 1138TIP3    H124905   3.659   5.923   2.614  0.6902 -0.0273 -1.6667
 1138TIP3    H224906   3.514   5.920   2.656  1.5054  0.0740  1.4283
 1139TIP3   OH224907   5.811   3.031  12.295  0.6028 -0.1659  1.1331
 1139TIP3    H124908   5.812   3.006  12.202 -1.8354 -0.1566  1.0295
 1139TIP3    H224909   5.799   2.949  12.342 -0.7836  0.0584  1.2251
 1140TIP3   OH224910   5.185   0.218  14.065  0.7638  0.6380 -0.3376
 1140TIP3    H124911   5.114   0.272  14.030  2.0472  1.3738 -1.9815
 1140TIP3    H224912   5.217   0.169  13.989  1.4819 -0.2851  0.5446
 1141TIP3   OH224913   0.881   5.892  16.203  0.1698  0.4717  0.3086
 1141TIP3    H124914   0.813   5.956  16.181 -0.3122 -0.1183  0.0533
 1141TIP3    H224915   0.951   5.909  16.139 -0.3560  0.1278 -0.3727
 1142TIP3   OH224916   0.394   6.261  16.518  0.3610  0.1824 -0.6606
 1142TIP3    H124917   0.325   6.322  16.542  0.1334  0.1555 -1.2288
 1142TIP3    H224918   0.367   6.226  16.433  1.0138  0.0871 -0.8383
 1143TIP3   OH224919   2.785   4.495  15.851  0.4457  0.5787  0.3253
 1143TIP3    H124920   2.697   4.472  15.881  0.4926  0.7964  0.6337
 1143TIP3    H224921   2.831   4.523  15.931  0.7051  0.7390  0.1205
 1144TIP3   OH224922   1.056   1.123  13.059  0.2876 -0.4002  0.1744
 1144TIP3    H124923   1.006   1.204  13.061 -1.0695 -1.2182  1.8676
 1144TIP3    H224924   0.990   1.054  13.059  1.3937 -1.5583 -2.0715
 1145TIP3   OH224925   3.025   1.325  13.348  0.8267  0.6100  0.7151
 1145TIP3    H124926   2.935   1.356  13.361  0.6956 -0.0610  1.4651
 1145TIP3    H224927   3.020   1.265  13.274  0.4394 -0.3214  1.4885
 1146TIP3   OH224928   4.939   1.487   0.011 -0.2440 -0.0465 -0.9515
 1146TIP3    H124929   4.990   1.437   0.075 -0.2253  0.6927 -0.3750
 1146TIP3    H224930   4.905   1.421  -0.049  0.8612 -0.6175 -0.9772
 1147TIP3   OH224931   2.852   6.147   4.313  0.5082  0.4711  0.1255
 1147TIP3    H124932   2.913   6.189   4.252  0.3395 -0.3362 -0.6100
 1147TIP3    H224933   2.885   6.171   4.399  0.7826  1.5959 -0.2636
 1148TIP3   OH224934   5.702   3.702  16.831  0.3030 -0.2367  1.1674
 1148TIP3    H124935   5.698   3.745  16.917  2.0792  1.5112  0.4566
 1148TIP3    H224936   5.781   3.738  16.790 -1.0657 -0.1462 -1.6495
 1149TIP3   OH224937   0.786   4.309   5.124  0.1758 -0.9078  0.4280
 1149TIP3    H124938   0.751   4.235   5.074  0.7957 -0.7165 -0.3203
 1149TIP3    H224939   0.749   4.387   5.081  0.8971 -0.7326  0.1076
 1150TIP3   OH224940   4.995   2.168  12.895 -0.2100 -0.3003  0.1235
 1150TIP3    H124941   5.012   2.218  12.815  0.0553  0.3516  0.5778
 1150TIP3    H224942   4.908   2.130  12.881  0.0933 -0.7043 -0.7270
 1151TIP3   OH224943   5.610   6.543   1.384  0.2226 -0.3147  0.4453
 1151TIP3    H124944   5.677   6.607   1.362 -0.9926  0.5782 -0.8774
 1151TIP3    H224945   5.601   6.489   1.305  0.1257 -1.1098  0.9848
 1152TIP3   OH224946   2.946   4.010  12.593  0.3157 -0.1192 -0.0358
 1152TIP3    H124947   2.933   4.009  12.688 -1.2726  2.5807 -0.1247
 1152TIP3    H224948   2.910   4.094  12.565  0.3737 -1.0097 -3.0952
 1153TIP3   OH224949   0.435   3.547  15.601 -0.3472  0.1622 -0.2253
 1153TIP3    H124950   0.373   3.483  15.567  0.1074 -0.7969  0.7009
 1153TIP3    H224951   0.519   3.519  15.567 -0.4326  1.6623 -1.7661
 1154TIP3   OH224952   5.861   0.038   0.466 -0.2345 -0.2174 -0.5816
 1154TIP3    H124953   5.897   0.058   0.552  1.6901 -2.4449 -0.7460
 1154TIP3    H224954   5.858   0.122   0.421 -1.4806  1.0334  1.6668
 1155TIP3   OH224955   1.585   3.923  16.305 -0.1140 -0.3519 -0.2658
 1155TIP3    H124956   1.510   3.983  16.311  0.3699  0.3536 -1.1475
 1155TIP3    H224957   1.637   3.943  16.383 -0.9132 -0.9743  0.4561
 1156TIP3   OH224958   1.797   4.355  11.658 -0.4448 -0.3296  0.1583
 1156TIP3    H124959   1.861   4.425  11.641 -0.6070  0.0623  1.1216
 1156TIP3    H224960   1.775   4.322  11.571  0.4428  0.0964 -0.2433
 1157TIP3   OH224961   0.780   6.107  10.570  0.5025 -0.6001 -0.5976
 1157TIP3    H124962   0.847   6.039  10.567  1.0539 -0.0847 -0.4309
 1157TIP3    H224963   0.807   6.163  10.644  0.2961  0.0201 -0.9822
 1158TIP3   OH224964   2.234   3.834  12.735  0.1903  0.0843 -0.5677
 1158TIP3    H124965   2.194   3.748  12.747  0.1046  0.3187  0.9765
 1158TIP3    H224966   2.249   3.840  12.640 -1.9259 -0.6639 -1.0018
 1159TIP3   OH224967   3.754   1.826  15.144  0.0112 -0.1775 -0.4764
 1159TIP3    H124968   3.760   1.920  15.126 -0.1296 -0.3471 -1.5110
 1159TIP3    H224969   3.696   1.792  15.076  0.8825 -1.1701 -0.7643
 1160TIP3   OH224970   4.832   1.301   5.466  0.5338  0.6916  0.0992
 1160TIP3    H124971   4.829   1.359   5.542 -1.1719 -1.1565  1.5709
 1160TIP3    H224972   4.770   1.339   5.404  1.2015  1.6786  0.0045
 1161TIP3   OH224973   0.840   4.323  16.185  0.0489  0.1581  0.0779
 1161TIP3    H124974   0.837   4.291  16.275  0.3976  0.5957  0.2537
 1161TIP3    H224975   0.927   4.362  16.177 -0.6237  1.7720  0.1396
 1162TIP3   OH224976   4.107   6.305   1.873 -0.6231 -0.1798 -0.0656
 1162TIP3    H124977   4.090   6.372   1.939  0.0823 -0.1488  0.0855
 1162TIP3    H224978   4.201   6.312   1.854 -0.7519 -0.3860 -0.8510
 1163TIP3   OH224979   0.553   1.048   3.242  0.3921 -1.1012  0.2106
 1163TIP3    H124980   0.589   1.106   3.175 -0.1059 -0.9527  0.0694
 1163TIP3    H224981   0.622   1.043   3.309  0.7657 -1.0055 -0.1633
 1164TIP3   OH224982   1.250   4.989   5.375 -0.3569  0.0666 -0.0528
 1164TIP3    H124983   1.207   5.029   5.299  0.0050  0.7248  0.0781
 1164TIP3    H224984   1.306   5.059   5.410 -0.0408 -0.4279  0.4435
 1165TIP3   OH224985   4.984   1.233  16.051 -0.0473  0.4291  0.4734
 1165TIP3    H124986   5.058   1.259  15.997 -0.4483 -0.1232 -0.3744
 1165TIP3    H224987   5.009   1.147  16.086  0.0075  0.5634  0.7628
 1166TIP3   OH224988   0.441   5.391   5.511 -0.2735  0.1110 -0.4403
 1166TIP3    H124989   0.468   5.301   5.532  1.1875  0.4608 -0.7231
 1166TIP3    H224990   0.401   5.383   5.425 -0.0404 -0.2647 -0.5201
 1167TIP3   OH224991   4.191   2.484   5.213 -0.4319  0.3132  0.0132
 1167TIP3    H124992   4.226   2.455   5.296  1.1571  0.3521 -0.6174
 1167TIP3    H224993   4.139   2.410   5.182 -2.1459  0.7695  1.5961
 1168TIP3   OH224994   5.604   5.810   6.180 -1.0760  0.4325 -0.2511
 1168TIP3    H124995   5.537   5.774   6.122 -1.4076 -0.6945  0.7947
 1168TIP3    H224996   5.575   5.899   6.198 -0.7439  0.9704 -2.1206
 1169TIP3   OH224997   3.536   2.837  16.671 -0.3594  0.1548  0.1563
 1169TIP3    H124998   3.601   2.879  16.727  0.4770  1.4190 -1.6500
 1169TIP3    H224999   3.560   2.745  16.670  1.3884  0.5666 -0.3653
 1170TIP3   OH225000   1.324   3.915   4.944  0.1657  0.2585  0.1140
 1170TIP3    H125001   1.294   3.920   5.035 -0.9369 -0.4596 -0.1854
 1170TIP3    H225002   1.316   3.822   4.921  2.9187 -0.0554  0.0688
 1171TIP3   OH225003   2.636   4.926  16.544  0.1482  0.2235 -0.1976
 1171TIP3    H125004   2.693   4.904  16.471  0.9011  0.1223  0.4076
 1171TIP3    H225005   2.562   4.972  16.504  0.0358 -0.7349 -1.1356
 1172TIP3   OH225006   2.690   4.115   3.409 -0.0753  0.1146  0.0415
 1172TIP3    H125007   2.724   4.143   3.494  3.6269 -0.2816 -1.1374
 1172TIP3    H225008   2.687   4.020   3.414 -2.0155  0.1633  0.4031
 1173TIP3   OH225009   1.365   0.719   2.334 -0.4817  0.0389 -0.9426
 1173TIP3    H125010   1.395   0.786   2.395 -0.3953  1.0133 -2.0225
 1173TIP3    H225011   1.437   0.710   2.271 -1.5394  0.8387 -2.3163
 1174TIP3   OH225012   1.820   4.228  11.885 -0.5371 -0.4315  0.4335
 1174TIP3    H125013   1.739   4.182  11.905 -1.1826  0.5931  0.2531
 1174TIP3    H225014   1.797   4.287  11.813 -0.1096  1.1624  1.5339
 1175TIP3   OH225015   4.938   3.042  16.786 -0.0623 -0.2129  0.3389
 1175TIP3    H125016   4.866   3.024  16.727  0.3368 -0.5382 -0.0578
 1175TIP3    H225017   5.006   3.082  16.730  0.2883 -0.4567  0.5845
 1176TIP3   OH225018   6.644   5.244  10.483  0.9712 -0.3048 -0.3669
 1176TIP3    H125019   6.631   5.248  10.577 -0.3071  0.3716 -0.5478
 1176TIP3    H225020   6.739   5.236  10.472  1.2328  0.6704  0.9429
 1177TIP3   OH225021   5.716   3.149  14.376 -0.0878 -0.1072 -0.3847
 1177TIP3    H125022   5.807   3.118  14.370 -0.0556 -0.0144 -0.3920
 1177TIP3    H225023   5.695   3.178  14.287  0.4954  1.5562 -0.0239
 1178TIP3   OH225024   2.902   4.755   3.631  0.2125 -0.8940  0.1218
 1178TIP3    H125025   2.856   4.834   3.602 -0.0323 -0.2214  2.1579
 1178TIP3    H225026   2.868   4.686   3.575 -0.3250  0.2564 -1.0404
 1179TIP3   OH225027   4.656   4.682  14.242 -0.1896 -0.4780  0.1165
 1179TIP3    H125028   4.727   4.720  14.191 -1.5255  2.2208  0.0729
 1179TIP3    H225029   4.642   4.596  14.203  2.5004 -0.8056 -0.3372
 1180TIP3   OH225030   6.376   2.770  12.626 -0.1519 -0.6245  0.3107
 1180TIP3    H125031   6.380   2.842  12.689  0.3095 -0.1134 -0.2891
 1180TIP3    H225032   6.460   2.724  12.637  0.7380  0.5563 -1.1710
 1181TIP3   OH225033   5.167   4.548  14.011  0.0759 -0.4380  0.1763
 1181TIP3    H125034   5.186   4.642  14.015  0.0604 -0.4558  0.8801
 1181TIP3    H225035   5.142   4.532  13.920  1.1628  0.0228 -0.2158
 1182TIP3   OH225036   1.647   4.510  13.321  0.1275  0.3655 -0.1895
 1182TIP3    H125037   1.737   4.489  13.297  0.1684  0.8133 -0.4423
 1182TIP3    H225038   1.630   4.459  13.401  1.1351  1.5072  0.7835
 1183TIP3   OH225039   2.278   2.955   0.321 -0.3859 -0.2097  0.3455
 1183TIP3    H125040   2.352   2.908   0.284 -0.8521 -0.5599 -0.1431
 1183TIP3    H225041   2.202   2.903   0.299 -1.0164  1.1971 -0.9615
 1184TIP3   OH225042   5.670   6.159  11.869 -0.5339 -0.3220  0.7804
 1184TIP3    H125043   5.607   6.185  11.802 -0.3148 -1.4425  0.1158
 1184TIP3    H225044   5.627   6.179  11.952 -1.4623 -0.3994  0.3254
 1185TIP3   OH225045   3.987   0.594  16.177  0.1776 -0.4830  0.0924
 1185TIP3    H125046   4.035   0.669  16.143 -0.6787 -0.4718 -1.1652
 1185TIP3    H225047   4.055   0.533  16.206  0.9047  0.2604 -0.0249
 1186TIP3   OH225048   1.873   3.035   0.424 -0.0010  0.7175 -0.1407
 1186TIP3    H125049   1.789   2.999   0.451 -0.1502  1.0035 -0.2215
 1186TIP3    H225050   1.884   3.006   0.334  0.1778  0.3370  0.0033
 1187TIP3   OH225051   0.308   0.072   1.143  0.6758 -0.0186  0.5576
 1187TIP3    H125052   0.271   0.035   1.062  2.3187 -1.9183  0.6083
 1187TIP3    H225053   0.274   0.161   1.145 -1.8874 -0.8442 -0.6295
 1188TIP3   OH225054   1.733   2.463  11.560 -0.6241  0.5354 -0.2863
 1188TIP3    H125055   1.826   2.483  11.570 -0.3808  0.5806 -2.3402
 1188TIP3    H225056   1.692   2.503  11.637  1.2050 -0.9064  1.5510
 1189TIP3   OH225057   6.643   0.544  15.139  0.4762 -0.0951 -0.2087
 1189TIP3    H125058   6.594   0.626  15.129  0.2081 -0.2749 -0.3583
 1189TIP3    H225059   6.646   0.507  15.051 -0.6251 -0.9436  0.0898
 1190TIP3   OH225060   2.341   1.390   3.004  0.2546  0.0658 -0.5574
 1190TIP3    H125061   2.430   1.415   2.981  0.9169  0.5181  2.2072
 1190TIP3    H225062   2.350   1.310   3.056 -0.8835  0.3844  0.1836
 1191TIP3   OH225063   4.686   6.490  16.952  0.2144  0.1761  0.8741
 1191TIP3    H125064   4.691   6.529  17.040  0.6850  2.3537 -0.0566
 1191TIP3    H225065   4.777   6.464  16.933  0.2342  0.3380  0.7517
 1192TIP3   OH225066   0.479   6.413   5.133 -0.1547 -0.0139 -0.2628
 1192TIP3    H125067   0.552   6.361   5.098  0.0371 -0.2404  0.4460
 1192TIP3    H225068   0.410   6.405   5.067  0.8972  1.2886 -1.5983
 1193TIP3   OH225069   0.890   1.945  15.721  0.2336  0.3335  0.2803
 1193TIP3    H125070   0.937   1.966  15.802  1.0433  0.4344 -0.2026
 1193TIP3    H225071   0.905   2.021  15.665  1.0667 -0.4259 -0.5603
 1194TIP3   OH225072   5.868   5.768  11.371  0.3292  0.0689 -0.1839
 1194TIP3    H125073   5.931   5.699  11.388  0.5220  0.6165  1.5821
 1194TIP3    H225074   5.784   5.730  11.398  0.1480 -0.0996 -0.9739
 1195TIP3   OH225075   2.250   4.881  16.481  0.1613  0.0046  0.1467
 1195TIP3    H125076   2.314   4.939  16.439  1.0156 -0.1007  1.2690
 1195TIP3    H225077   2.265   4.892  16.575  0.9148 -2.6480  0.4117
 1196TIP3   OH225078   3.628   4.642   2.033  0.1508 -0.1442 -0.2495
 1196TIP3    H125079   3.663   4.621   2.119  1.5885 -0.2429 -0.8280
 1196TIP3    H225080   3.622   4.558   1.988 -0.9400 -0.1386 -0.1396
 1197TIP3   OH225081   4.658   3.482   5.571  0.1412 -0.5103 -0.0655
 1197TIP3    H125082   4.575   3.529   5.562  0.8237  0.7268 -0.2234
 1197TIP3    H225083   4.659   3.455   5.663 -1.1958 -2.0998 -0.4696
 1198TIP3   OH225084   6.661   1.660   2.473 -0.1450 -0.0941  0.0502
 1198TIP3    H125085   6.575   1.688   2.441  0.6378  1.0741 -1.1482
 1198TIP3    H225086   6.696   1.606   2.403  1.6077  2.5250 -1.2766
 1199TIP3   OH225087   4.074   0.828  11.335 -0.3594  0.0067 -0.2703
 1199TIP3    H125088   4.125   0.907  11.353  0.1699 -0.6784  1.3648
 1199TIP3    H225089   4.110   0.796  11.252  0.3030  0.7722 -0.3010
 1200TIP3   OH225090   4.772   0.934   0.827  0.3224  0.1795 -0.2071
 1200TIP3    H125091   4.860   0.940   0.790 -0.1081  0.6929 -1.1705
 1200TIP3    H225092   4.713   0.944   0.753 -0.5978 -2.3339  0.0763
 1201TIP3   OH225093   2.375   1.335   1.790  0.5698 -0.2285 -0.6153
 1201TIP3    H125094   2.341   1.424   1.794  1.7281  0.2057  0.3656
 1201TIP3    H225095   2.413   1.320   1.877 -2.0736 -2.7254  0.2895
 1202TIP3   OH225096   2.489   3.551  12.695  0.1402  0.5693 -0.1897
 1202TIP3    H125097   2.457   3.627  12.646  0.7382  2.0321  1.5863
 1202TIP3    H225098   2.539   3.501  12.631 -0.8953  1.2430 -1.5869
 1203TIP3   OH225099   6.783   6.013  12.302  0.4905 -0.4241 -0.4601
 1203TIP3    H125100   6.706   5.969  12.265  1.3774 -2.9446  0.4360
 1203TIP3    H225101   6.852   6.001  12.237  0.4710  0.7211 -0.7094
 1204TIP3   OH225102   1.436   0.951   3.103  0.5356  0.1139  0.6368
 1204TIP3    H125103   1.503   0.884   3.093 -1.0643 -1.8161  1.9617
 1204TIP3    H225104   1.366   0.923   3.043  0.0364  0.8979  0.8429
 1205TIP3   OH225105   2.602   0.998  13.665  0.6150 -0.4839  0.1588
 1205TIP3    H125106   2.688   0.959  13.678  2.0451  2.5459  0.5641
 1205TIP3    H225107   2.542   0.944  13.717  2.7061 -1.1430  1.9994
 1206TIP3   OH225108   2.439   5.115  12.513 -0.4478 -0.5238  0.0435
 1206TIP3    H125109   2.400   5.189  12.468  1.4364  2.0504  2.3148
 1206TIP3    H225110   2.391   5.108  12.596  0.8671 -0.2270  0.8753
 1207TIP3   OH225111   1.756   5.997   0.831  0.4983  0.6516 -0.4070
 1207TIP3    H125112   1.788   5.966   0.916  0.2145  0.0746 -0.5064
 1207TIP3    H225113   1.678   6.048   0.853 -0.5837 -0.9365 -0.4442
 1208TIP3   OH225114   2.550   2.182  14.499  0.0008  0.0690  0.0388
 1208TIP3    H125115   2.636   2.190  14.541  0.8561 -1.4960 -1.3145
 1208TIP3    H225116   2.509   2.108  14.544  0.7707 -1.3698 -1.5058
 1209TIP3   OH225117   3.739   5.445   2.326 -0.1954 -1.0001  1.0538
 1209TIP3    H125118   3.694   5.427   2.244  3.4519 -0.5197 -1.2587
 1209TIP3    H225119   3.725   5.538   2.342  1.3989 -0.4103 -0.6875
 1210TIP3   OH225120   1.355   2.973  14.129 -0.5511 -0.2552 -0.3872
 1210TIP3    H125121   1.403   2.893  14.109  2.2846  1.6591 -1.9066
 1210TIP3    H225122   1.329   3.008  14.044 -1.5891  0.5646  0.2330
 1211TIP3   OH225123   5.597   2.315   6.906  0.0253  0.9571 -0.7662
 1211TIP3    H125124   5.666   2.348   6.848 -0.1868  1.0509 -0.9625
 1211TIP3    H225125   5.623   2.226   6.927 -0.4178  0.5774 -1.8011
 1212TIP3   OH225126   4.478   5.880  12.825 -0.3988  0.0942  0.3298
 1212TIP3    H125127   4.507   5.895  12.915 -0.5102  0.5822  0.2865
 1212TIP3    H225128   4.519   5.950  12.774 -0.1067 -0.3451 -0.0519
 1213TIP3   OH225129   3.648   3.070  13.039  0.0837  0.0312 -0.0162
 1213TIP3    H125130   3.729   3.052  12.992  0.9915  2.0587  0.6199
 1213TIP3    H225131   3.669   3.054  13.131 -0.2204  0.5768  0.1556
 1214TIP3   OH225132   2.917   4.272  13.944 -0.0653  0.0868  0.2215
 1214TIP3    H125133   2.938   4.364  13.958 -0.8343  0.2730  0.1995
 1214TIP3    H225134   2.978   4.224  14.001 -0.6445  0.6775  1.3707
 1215TIP3   OH225135   1.587   6.534  11.479 -0.0163  0.1085  0.3899
 1215TIP3    H125136   1.520   6.534  11.411 -0.3283 -2.0203  0.6254
 1215TIP3    H225137   1.640   6.611  11.461 -1.9213  1.3057 -0.4038
 1216TIP3   OH225138   1.305   5.973   3.159 -0.2983 -0.1202  0.1786
 1216TIP3    H125139   1.318   5.977   3.254 -1.0754  0.0953  0.2870
 1216TIP3    H225140   1.379   5.923   3.127 -0.2876 -0.6370  0.9633
 1217TIP3   OH225141   0.203   4.509  11.547  0.1170  0.2225  0.8570
 1217TIP3    H125142   0.131   4.558  11.585  0.4947  0.0213  1.8758
 1217TIP3    H225143   0.265   4.575  11.516 -0.6829  0.4001 -0.4177
 1218TIP3   OH225144   5.516   0.688   2.391  0.2412 -0.0991  0.3535
 1218TIP3    H125145   5.461   0.659   2.317 -0.4011 -0.8111  1.0894
 1218TIP3    H225146   5.495   0.781   2.401 -0.6507 -0.2970  0.4541
 1219TIP3   OH225147   2.045   5.823  13.159 -0.4838  0.2719 -0.2608
 1219TIP3    H125148   2.016   5.742  13.201 -0.7328  0.3437 -0.2906
 1219TIP3    H225149   2.003   5.822  13.073  1.0374 -0.4945 -1.0229
 1220TIP3   OH225150   2.630   3.722   4.700  0.0682  0.4081  0.4045
 1220TIP3    H125151   2.672   3.685   4.778  1.8064  1.1836 -0.1035
 1220TIP3    H225152   2.551   3.763   4.732  0.2276 -0.1849  1.6010
 1221TIP3   OH225153   5.248   5.707  16.646 -0.0740  0.0315 -0.1942
 1221TIP3    H125154   5.297   5.629  16.672 -0.4333 -1.0428 -2.4316
 1221TIP3    H225155   5.170   5.706  16.702  1.3865  0.6007  1.9502
 1222TIP3   OH225156   2.163   4.775   1.366  0.3876  0.4166  0.2937
 1222TIP3    H125157   2.091   4.776   1.428 -0.3709 -2.5668 -0.4040
 1222TIP3    H225158   2.228   4.715   1.403 -0.2949 -1.8449 -1.8560
 1223TIP3   OH225159   3.967   5.877  15.012 -0.8533 -0.0952 -0.6763
 1223TIP3    H125160   3.936   5.953  14.963 -0.8044  0.4823  0.1740
 1223TIP3    H225161   3.931   5.888  15.100 -0.9366 -1.1179 -0.5690
 1224TIP3   OH225162   4.172   2.863  13.396  0.2425  0.3704 -0.3404
 1224TIP3    H125163   4.238   2.870  13.327  1.8003 -1.3429  0.8440
 1224TIP3    H225164   4.128   2.780  13.378  0.7280 -0.1420  0.7073
 1225TIP3   OH225165   6.387   2.455  11.419  0.3527 -0.2657 -0.4499
 1225TIP3    H125166   6.467   2.452  11.365  1.4157 -1.2559  1.0827
 1225TIP3    H225167   6.388   2.543  11.457  1.1595 -0.5142  0.1455
 1226TIP3   OH225168   1.918   4.411   2.436 -0.3459  0.0118 -0.4502
 1226TIP3    H125169   1.930   4.336   2.494  0.6634 -0.0473 -0.7182
 1226TIP3    H225170   2.006   4.443   2.420 -0.8156  2.2355  0.9065
 1227TIP3   OH225171   0.417   1.706  15.391 -0.5055 -0.0542  0.3005
 1227TIP3    H125172   0.335   1.669  15.422 -0.1558  0.0777  1.4175
 1227TIP3    H225173   0.485   1.655  15.436  0.0119  0.4060  0.0606
 1228TIP3   OH225174   1.096   3.369   0.783 -0.2552 -0.1354  0.1078
 1228TIP3    H125175   1.144   3.338   0.706  0.1785 -1.4625  0.8731
 1228TIP3    H225176   1.131   3.457   0.799  0.7895 -0.4597 -0.2972
 1229TIP3   OH225177   1.772   2.595  13.734  0.3745 -0.0408 -0.0478
 1229TIP3    H125178   1.762   2.677  13.783 -0.4420 -1.3855  2.1312
 1229TIP3    H225179   1.777   2.624  13.642 -2.1946  2.3270  0.4093
 1230TIP3   OH225180   3.446   0.745  15.882 -0.0202  0.3076  0.3453
 1230TIP3    H125181   3.372   0.794  15.919 -2.6884 -3.1990  0.1549
 1230TIP3    H225182   3.475   0.798  15.808  0.0440  3.4798  2.4119
 1231TIP3   OH225183   3.145   1.000  12.657  0.4471  0.8435  0.1737
 1231TIP3    H125184   3.156   1.026  12.566 -0.5729  1.4174  0.2110
 1231TIP3    H225185   3.142   0.904  12.654  2.3973  0.7463 -0.1561
 1232TIP3   OH225186   2.367   2.879  14.904 -0.1412  0.0050  0.0179
 1232TIP3    H125187   2.277   2.875  14.936  0.6290 -1.5591  2.2284
 1232TIP3    H225188   2.407   2.951  14.953 -0.2274  0.9374 -1.2203
 1233TIP3   OH225189   2.610   6.715   3.088 -0.3631  0.1187  0.0177
 1233TIP3    H125190   2.637   6.633   3.046 -1.2089  0.0327 -0.3813
 1233TIP3    H225191   2.534   6.691   3.141  0.1067  0.4224  0.8374
 1234TIP3   OH225192   1.501   6.595  13.162 -0.2386  0.5727 -0.0202
 1234TIP3    H125193   1.557   6.673  13.163  1.8723 -0.8035  2.5275
 1234TIP3    H225194   1.415   6.627  13.189 -0.3451  2.4876 -2.3590
 1235TIP3   OH225195   4.538   3.693   3.470 -0.4889 -0.0952  0.9185
 1235TIP3    H125196   4.573   3.628   3.531  1.1477  0.0015  0.1433
 1235TIP3    H225197   4.615   3.743   3.441 -1.5056  1.1805  0.3264
 1236TIP3   OH225198   5.324   2.437   3.265 -0.0810  0.4067 -0.3337
 1236TIP3    H125199   5.356   2.472   3.348 -0.9040 -1.6201  0.9348
 1236TIP3    H225200   5.404   2.413   3.217  0.4354  2.5058 -0.6210
 1237TIP3   OH225201   3.395   6.709   2.263 -0.0579 -0.5895 -0.4152
 1237TIP3    H125202   3.401   6.723   2.168 -1.7526 -0.9842 -0.6149
 1237TIP3    H225203   3.351   6.625   2.272  0.3088 -0.6746  0.7437
 1238TIP3   OH225204   4.428   5.700  12.009 -0.2260  0.3648 -0.2175
 1238TIP3    H125205   4.341   5.660  12.006  1.0671 -2.6130 -1.2341
 1238TIP3    H225206   4.434   5.736  12.098 -2.1501 -0.1304  0.1709
 1239TIP3   OH225207   4.107   3.675   3.102  0.0377 -0.4683 -0.2016
 1239TIP3    H125208   4.069   3.730   3.171 -0.6184  0.1190 -1.0059
 1239TIP3    H225209   4.097   3.586   3.134 -2.1914 -0.3643 -0.3998
 1240TIP3   OH225210   2.601   3.604   1.000 -0.3843  0.5721  0.2894
 1240TIP3    H125211   2.604   3.568   1.088 -0.9518 -2.6471 -0.8781
 1240TIP3    H225212   2.693   3.612   0.973 -0.2394  0.7201  0.8218
 1241TIP3   OH225213   2.815   5.633   5.455  0.2149  0.0940 -0.3269
 1241TIP3    H125214   2.822   5.596   5.543  1.4672 -0.6379 -0.7093
 1241TIP3    H225215   2.825   5.727   5.467 -1.3702  0.1916  0.4839
 1242TIP3   OH225216   3.757   4.679   0.506 -0.3106 -0.1063  0.4591
 1242TIP3    H125217   3.732   4.737   0.434  1.4839 -2.2068 -2.0848
 1242TIP3    H225218   3.841   4.713   0.537  0.1696 -0.6288 -0.2360
 1243TIP3   OH225219   3.785   1.369  16.260  0.1768 -0.2431  0.0322
 1243TIP3    H125220   3.868   1.347  16.303 -0.2072 -0.2288  0.8115
 1243TIP3    H225221   3.719   1.327  16.315 -0.6225  2.9555  1.7549
 1244TIP3   OH225222   3.041   4.016  14.632 -0.8199 -0.3322  0.0551
 1244TIP3    H125223   2.995   4.076  14.690 -2.3146 -0.0446 -1.3595
 1244TIP3    H225224   3.125   4.000  14.676 -2.1523 -0.7270  2.6432
 1245TIP3   OH225225   3.961   1.183  13.537 -0.0124 -0.3079 -0.4233
 1245TIP3    H125226   3.927   1.272  13.545  0.6830 -0.0454 -0.3589
 1245TIP3    H225227   3.895   1.128  13.581  1.0289  0.4986  2.4058
 1246TIP3   OH225228   5.302   1.843   4.385 -0.4465  0.0842 -1.0234
 1246TIP3    H125229   5.352   1.788   4.325 -1.2877 -0.6762 -1.0525
 1246TIP3    H225230   5.250   1.781   4.437 -2.6637  0.8494 -2.1731
 1247TIP3   OH225231   4.002   5.199  11.270 -0.4748 -0.2267  0.0828
 1247TIP3    H125232   3.953   5.121  11.244 -1.0992  0.2404 -0.1806
 1247TIP3    H225233   4.033   5.179  11.358 -0.3522 -0.8955 -0.1057
 1248TIP3   OH225234   1.096   6.325  12.958 -0.1078 -0.4585 -0.3808
 1248TIP3    H125235   1.131   6.412  12.938  0.0904 -0.6844 -1.0299
 1248TIP3    H225236   1.060   6.294  12.875  0.1516 -1.1450 -0.2431
 1249TIP3   OH225237   1.726   1.182  16.770 -0.3708  0.1708  0.1522
 1249TIP3    H125238   1.647   1.130  16.758 -2.4249  2.7532  1.2899
 1249TIP3    H225239   1.737   1.228  16.687  0.3712 -0.6855 -0.2350
 1250TIP3   OH225240   6.407   5.670  16.831  0.0117 -0.3339  0.3115
 1250TIP3    H125241   6.466   5.731  16.876  0.5776 -1.5628  1.3000
 1250TIP3    H225242   6.327   5.673  16.883 -0.4411  0.5388 -0.4149
 1251TIP3   OH225243   6.507   0.653  11.403 -0.0748 -0.3178  0.1805
 1251TIP3    H125244   6.416   0.646  11.374  0.4446  0.5747 -1.9065
 1251TIP3    H225245   6.507   0.724  11.467 -0.9224 -0.7022  0.6186
 1252TIP3   OH225246   0.845   3.773  11.086 -0.3755  0.4938  0.2968
 1252TIP3    H125247   0.840   3.867  11.066  0.0476  0.4737  0.0777
 1252TIP3    H225248   0.793   3.762  11.165 -1.1863  0.7639 -0.1916
 1253TIP3   OH225249   6.414   0.697  14.601 -0.0242  0.3320 -0.2637
 1253TIP3    H125250   6.421   0.604  14.581  2.2223  0.5000 -0.5633
 1253TIP3    H225251   6.339   0.728  14.550 -0.4976 -1.1891 -0.5408
 1254TIP3   OH225252   6.093   0.593   1.537  0.7772  0.0909 -0.2921
 1254TIP3    H125253   6.145   0.582   1.458  0.2069  0.5198 -0.7349
 1254TIP3    H225254   6.025   0.656   1.513 -0.3617 -0.9703  0.0608
 1255TIP3   OH225255   1.668   1.366  11.825  0.8945  0.5071  0.2357
 1255TIP3    H125256   1.674   1.300  11.894  0.7561 -1.0600 -1.2188
 1255TIP3    H225257   1.634   1.444  11.871 -0.7498 -0.9437  1.6562
 1256TIP3   OH225258   3.126   3.319  16.964  0.4649  0.7465  0.2030
 1256TIP3    H125259   3.070   3.318  16.886  0.8597  0.2492 -0.0829
 1256TIP3    H225260   3.092   3.246  17.017  1.4918 -0.2503 -0.4575
 1257TIP3   OH225261   2.338   2.013  10.868  0.5203  0.0016  0.2798
 1257TIP3    H125262   2.366   2.105  10.865 -1.0143  0.5094  0.4363
 1257TIP3    H225263   2.340   1.984  10.777 -2.6419  1.4294 -0.3934
 1258TIP3   OH225264   4.507   4.259   5.680 -0.4012 -0.4395  0.0698
 1258TIP3    H125265   4.557   4.212   5.746  1.6587  0.4243 -0.7666
 1258TIP3    H225266   4.530   4.351   5.694  0.9804 -0.3068 -2.4223
 1259TIP3   OH225267   2.658   2.354  11.504  1.1731  0.4436  0.5929
 1259TIP3    H125268   2.670   2.321  11.415  0.3516 -0.9367  0.9509
 1259TIP3    H225269   2.604   2.287  11.547  1.0182  1.3875  1.9425
 1260TIP3   OH225270   6.316   5.530  16.073 -0.6177  0.3094 -0.4073
 1260TIP3    H125271   6.388   5.533  16.009 -0.5652 -0.0849 -0.3692
 1260TIP3    H225272   6.324   5.613  16.121 -0.8669  0.7632 -1.1369
 1261TIP3   OH225273   0.884   3.743  15.135  0.4586  0.1064 -0.1604
 1261TIP3    H125274   0.954   3.700  15.085 -0.9802  0.3662 -2.5480
 1261TIP3    H225275   0.839   3.672  15.180  0.7425 -0.3501 -0.5929
 1262TIP3   OH225276   3.843   0.432  11.143  0.1722 -0.2989  0.5305
 1262TIP3    H125277   3.826   0.342  11.115  1.0810  0.0286 -1.2443
 1262TIP3    H225278   3.894   0.423  11.224 -0.4757 -1.3478  0.8428
 1263TIP3   OH225279   5.288   2.451  11.546 -0.1109 -0.0451  0.3384
 1263TIP3    H125280   5.329   2.494  11.621 -0.5629 -0.0351  0.5844
 1263TIP3    H225281   5.216   2.509  11.521  0.6029  0.4226 -0.6942
 1264TIP3   OH225282   6.415   0.114   2.540  0.1898  0.5487 -0.0697
 1264TIP3    H125283   6.384   0.070   2.461  0.2753  0.6948 -0.1856
 1264TIP3    H225284   6.414   0.207   2.517 -0.8070  0.6767  0.4563
 1265TIP3   OH225285   0.330   2.876  13.280  0.2379 -0.4797 -0.6141
 1265TIP3    H125286   0.369   2.788  13.286  0.5663 -0.2629  0.8759
 1265TIP3    H225287   0.387   2.931  13.334 -0.4690  0.4700 -0.8101
 1266TIP3   OH225288   0.150   5.108   1.645 -0.2501  0.1241  0.8598
 1266TIP3    H125289   0.159   5.065   1.559 -0.5914  0.4826  0.6437
 1266TIP3    H225290   0.128   5.036   1.705  0.7532 -0.2521  0.7954
 1267TIP3   OH225291   3.068   6.092   4.845  0.0260 -0.5140  0.1313
 1267TIP3    H125292   2.983   6.131   4.864  0.0593 -0.2663 -0.2241
 1267TIP3    H225293   3.057   5.999   4.867 -0.2229 -0.4148  0.4349
 1268TIP3   OH225294   2.298   2.015   0.603  0.1328  0.1663  0.2661
 1268TIP3    H125295   2.298   1.943   0.665 -0.8453 -0.8539 -0.8538
 1268TIP3    H225296   2.279   1.973   0.518  1.3754  1.4979 -0.7172
 1269TIP3   OH225297   6.538   1.305  15.187  0.1662 -0.3148  0.2519
 1269TIP3    H125298   6.533   1.315  15.092 -1.6566 -1.2405  0.2149
 1269TIP3    H225299   6.611   1.362  15.213 -0.3766  1.2840 -1.5031
 1270TIP3   OH225300   5.619   6.516  15.668  0.0816  0.1363  0.2176
 1270TIP3    H125301   5.704   6.477  15.684 -0.3089 -1.1267 -0.5968
 1270TIP3    H225302   5.630   6.609  15.688  2.0237  0.2544 -1.1456
 1271TIP3   OH225303   4.086   1.813  16.828  0.5221  0.3005  0.1509
 1271TIP3    H125304   4.144   1.751  16.784  3.9370  2.5161  1.1198
 1271TIP3    H225305   4.066   1.772  16.911  1.0920 -0.3498 -0.0238
 1272TIP3   OH225306   4.122   1.510  15.565  0.1932 -0.2328  0.1295
 1272TIP3    H125307   4.179   1.484  15.493 -1.5218 -0.8528 -1.0797
 1272TIP3    H225308   4.082   1.592  15.536 -0.5358 -0.4993  0.3485
 1273TIP3   OH225309   3.365   0.064  14.013 -0.3639  0.4641  0.3109
 1273TIP3    H125310   3.399   0.134  14.069  2.4985 -1.2828  0.9925
 1273TIP3    H225311   3.307   0.108  13.952  1.7286  3.5677  0.3322
 1274TIP3   OH225312   2.676   3.173  12.657 -0.1146  0.2908  0.0074
 1274TIP3    H125313   2.750   3.113  12.642  2.0411  2.7761  0.0212
 1274TIP3    H225314   2.647   3.153  12.746  1.8014  0.4884  0.7152
 1275TIP3   OH225315   0.504   4.982   4.131 -0.1295 -0.2121  0.0989
 1275TIP3    H125316   0.443   4.982   4.057 -0.1881  0.3510  0.1454
 1275TIP3    H225317   0.588   4.955   4.092 -0.0462  0.5707 -0.2759
 1276TIP3   OH225318   3.469   1.389  11.960 -0.1403 -0.3412 -0.0920
 1276TIP3    H125319   3.444   1.454  11.895 -1.4652 -0.9530 -0.2240
 1276TIP3    H225320   3.558   1.363  11.934  0.1827  0.9635 -0.3756
 1277TIP3   OH225321   0.695   0.706  11.115  0.0259 -0.0151  0.4191
 1277TIP3    H125322   0.664   0.628  11.070  0.0846  0.1871  0.0263
 1277TIP3    H225323   0.785   0.685  11.140 -0.2134 -0.3673  1.0151
 1278TIP3   OH225324   1.585   6.869   3.892  0.3234 -0.2128 -0.2241
 1278TIP3    H125325   1.620   6.940   3.839  0.0160  0.1921  0.1118
 1278TIP3    H225326   1.507   6.905   3.934  0.1193 -0.7700 -0.1088
 1279TIP3   OH225327   4.697   0.336   0.024  0.5318  0.0845 -0.3241
 1279TIP3    H125328   4.718   0.322   0.116 -1.3686  0.5577  0.2232
 1279TIP3    H225329   4.753   0.410  -0.002 -0.2445  1.1831  0.9930
 1280TIP3   OH225330   3.033   4.438  10.956 -0.3443  0.6827  0.1008
 1280TIP3    H125331   3.060   4.348  10.973 -1.6633 -0.0237 -1.2575
 1280TIP3    H225332   3.084   4.465  10.880 -1.3091  0.3728 -0.6766
 1281TIP3   OH225333   6.017   2.860   5.258  0.3415  0.2686  0.1688
 1281TIP3    H125334   6.099   2.862   5.210  0.5126  0.8885  0.4790
 1281TIP3    H225335   6.042   2.869   5.350  0.0665 -1.5416  0.4570
 1282TIP3   OH225336   3.830   5.637   5.047  0.2487  0.0345 -0.8098
 1282TIP3    H125337   3.748   5.588   5.047  0.2119  0.0066  1.4068
 1282TIP3    H225338   3.820   5.701   5.118  2.6248 -0.8548  0.4342
 1283TIP3   OH225339   4.181   5.028   1.272 -0.5627 -0.0946 -0.1234
 1283TIP3    H125340   4.117   5.069   1.331  2.3832  1.4913  2.2964
 1283TIP3    H225341   4.217   5.101   1.221  0.7154 -0.5581  0.0676
 1284TIP3   OH225342   2.228   5.756  14.013 -0.7674  0.2396 -0.1496
 1284TIP3    H125343   2.297   5.737  14.076  0.9341  3.0350 -0.9892
 1284TIP3    H225344   2.185   5.672  13.999 -0.2249 -0.8137  3.4738
 1285TIP3   OH225345   4.654   5.330   4.612 -0.1586 -0.3166  0.1981
 1285TIP3    H125346   4.666   5.350   4.519 -0.1904  1.0469  0.4765
 1285TIP3    H225347   4.562   5.348   4.629 -0.3129 -1.1845  0.3679
 1286TIP3   OH225348   6.485   1.646  11.117 -0.0751 -0.0062 -0.3946
 1286TIP3    H125349   6.453   1.669  11.029  0.1157  0.3735 -0.3658
 1286TIP3    H225350   6.548   1.715  11.138 -0.8239  0.4333  0.4377
 1287TIP3   OH225351   5.800   3.138  16.097  0.7419 -0.3670  0.2097
 1287TIP3    H125352   5.781   3.045  16.109 -1.6404  0.2912  2.5250
 1287TIP3    H225353   5.836   3.166  16.181  1.6218  0.7705 -0.5267
 1288TIP3   OH225354   1.832   1.263  13.533  0.2950 -0.1694  0.4380
 1288TIP3    H125355   1.865   1.227  13.615 -0.2940  1.1200  1.2697
 1288TIP3    H225356   1.853   1.356  13.537  1.3137 -0.2724 -1.4193
 1289TIP3   OH225357   5.913   1.900  15.046 -0.2482  0.4327 -0.0971
 1289TIP3    H125358   6.006   1.916  15.065 -0.4359  1.1082  0.2781
 1289TIP3    H225359   5.904   1.805  15.052  0.1252  0.4611  1.3111
 1290TIP3   OH225360   0.568   2.654  14.270  0.1127  0.0628  0.5305
 1290TIP3    H125361   0.596   2.568  14.302  0.9212  0.0757 -0.1082
 1290TIP3    H225362   0.640   2.683  14.213 -0.3135  1.0028  0.4539
 1291TIP3   OH225363   4.532   6.242  13.283  0.5792  0.3083  0.0658
 1291TIP3    H125364   4.459   6.291  13.246  0.6182  0.2404 -0.1064
 1291TIP3    H225365   4.521   6.153  13.249  0.0467 -0.0078  1.0522
 1292TIP3   OH225366   5.783   6.831   3.524 -0.5398  0.1369 -0.2997
 1292TIP3    H125367   5.729   6.830   3.602  0.0254 -0.9713  0.1014
 1292TIP3    H225368   5.871   6.855   3.555 -0.3377 -0.2019 -0.5931
 1293TIP3   OH225369   2.135   4.220  13.551  0.5975 -0.2821 -0.2306
 1293TIP3    H125370   2.211   4.188  13.502  2.5911  2.6092  0.6939
 1293TIP3    H225371   2.173   4.263  13.628 -2.0035  1.2636  0.3007
 1294TIP3   OH225372   1.425   1.327   0.854  0.1013  0.3099  0.5000
 1294TIP3    H125373   1.356   1.343   0.919 -1.0958 -1.1543 -0.3329
 1294TIP3    H225374   1.491   1.276   0.901  0.9481  2.1917  1.4558
 1295TIP3   OH225375   3.604   0.144  16.687  0.0893  0.1131  0.0181
 1295TIP3    H125376   3.638   0.060  16.715 -0.4939  0.1582  0.8887
 1295TIP3    H225377   3.666   0.208  16.721  0.2875  0.0660 -0.2533
 1296TIP3   OH225378   4.796   6.620  14.373 -0.4190 -0.4221  0.3303
 1296TIP3    H125379   4.866   6.587  14.318 -1.9882 -0.4309 -1.7695
 1296TIP3    H225380   4.788   6.555  14.443  0.1729 -1.6055 -0.6561
 1297TIP3   OH225381   0.664   1.655   2.642  0.2921 -0.0268 -0.0950
 1297TIP3    H125382   0.722   1.691   2.708 -1.6773  1.3292  0.9881
 1297TIP3    H225383   0.614   1.588   2.687 -0.9460  0.7851 -0.2153
 1298TIP3   OH225384   4.484   3.640   1.292  0.0343  0.4424 -0.0551
 1298TIP3    H125385   4.526   3.699   1.230 -2.0874  1.3148 -0.7697
 1298TIP3    H225386   4.469   3.693   1.370  0.1767  0.1642  0.1654
 1299TIP3   OH225387   6.129   2.614   6.485  0.3908  0.2713  0.9042
 1299TIP3    H125388   6.050   2.561   6.493 -0.4656  1.1107 -1.3898
 1299TIP3    H225389   6.156   2.629   6.576 -0.6242 -2.1000  1.6920
 1300TIP3   OH225390   6.756   2.708   2.736  0.3324 -0.5147  0.5719
 1300TIP3    H125391   6.813   2.780   2.709 -0.8718  0.4208  0.4579
 1300TIP3    H225392   6.758   2.710   2.832  0.9847 -0.8887  0.5672
 1301TIP3   OH225393   6.701   1.279  13.884 -0.0170 -0.7609  0.1176
 1301TIP3    H125394   6.633   1.224  13.846  0.5277 -1.2701 -0.1308
 1301TIP3    H225395   6.724   1.340  13.814  2.1944 -2.7836 -1.0401
 1302TIP3   OH225396   6.213   5.680  11.575 -0.6548  0.2086 -0.4236
 1302TIP3    H125397   6.230   5.706  11.485 -3.9899  2.0882 -0.6836
 1302TIP3    H225398   6.224   5.761  11.626  0.4008 -0.6446  0.7537
 1303TIP3   OH225399   0.849   4.138  11.329  0.6496 -0.3292  0.6707
 1303TIP3    H125400   0.859   4.224  11.288  0.4060 -1.5708 -2.2839
 1303TIP3    H225401   0.771   4.146  11.384 -0.3182  0.9220 -0.8169
 1304TIP3   OH225402   6.376   4.007  11.649  0.0356  0.4980  0.0262
 1304TIP3    H125403   6.373   4.054  11.733 -0.1656  1.1946 -0.3658
 1304TIP3    H225404   6.336   3.923  11.668 -0.5257  0.8609  0.5063
 1305TIP3   OH225405   3.103   2.219  15.226 -0.4405 -0.1464 -0.0157
 1305TIP3    H125406   3.075   2.269  15.302 -1.5928 -0.8071  0.0136
 1305TIP3    H225407   3.159   2.279  15.177 -0.5433  0.6382  0.8117
 1306TIP3   OH225408   1.299   2.452  11.569  0.0915 -0.2171 -0.1003
 1306TIP3    H125409   1.218   2.498  11.591 -0.7461 -0.6823 -1.9664
 1306TIP3    H225410   1.346   2.512  11.511  0.4258 -0.5006 -0.1244
 1307TIP3   OH225411   2.412   2.210  12.639 -0.2356  0.3638 -0.2388
 1307TIP3    H125412   2.426   2.118  12.660 -1.0787  0.0936 -0.8020
 1307TIP3    H225413   2.460   2.258  12.706  1.9114 -0.4710 -1.0874
 1308TIP3   OH225414   4.794   2.929   2.993  0.2518 -0.3626  0.3256
 1308TIP3    H125415   4.760   2.842   2.971 -0.4130  0.3652 -1.8166
 1308TIP3    H225416   4.782   2.936   3.087  0.3904 -2.6111  0.5674
 1309TIP3   OH225417   3.530   1.891  10.820 -0.2747 -0.0521 -0.2734
 1309TIP3    H125418   3.566   1.820  10.872 -0.0810  0.3861  0.1963
 1309TIP3    H225419   3.598   1.958  10.820 -0.3379  0.0143 -0.9626
 1310TIP3   OH225420   3.488   6.024   3.019 -0.0640  0.3336 -0.5063
 1310TIP3    H125421   3.510   6.111   2.985 -1.9479  0.7388 -0.7567
 1310TIP3    H225422   3.412   6.038   3.075 -0.6196 -1.2106 -0.8268
 1311TIP3   OH225423   2.346   0.380   3.352  0.8386 -0.1451 -0.1685
 1311TIP3    H125424   2.411   0.318   3.384  1.0543  0.4718  0.6256
 1311TIP3    H225425   2.284   0.326   3.303 -0.1513 -1.3767  2.2264
 1312TIP3   OH225426   1.159   4.298  11.207  0.3600 -0.5075 -0.3339
 1312TIP3    H125427   1.238   4.351  11.193 -0.6878  1.7930  1.6164
 1312TIP3    H225428   1.137   4.265  11.120  1.0735  2.4305 -1.7852
 1313TIP3   OH225429   3.172   3.017   3.013  0.3962  0.3682 -0.1410
 1313TIP3    H125430   3.169   3.111   3.034  0.4643  0.0291  1.4502
 1313TIP3    H225431   3.099   2.979   3.062  0.9062 -0.5505 -0.0833
 1314TIP3   OH225432   5.225   2.203  16.959 -0.3516 -0.2291 -0.1141
 1314TIP3    H125433   5.253   2.168  17.043 -0.9700  0.0922  0.2310
 1314TIP3    H225434   5.185   2.128  16.914 -1.1187 -0.1249  0.3761
 1315TIP3   OH225435   3.179   4.128   4.836 -0.2895 -0.3122  0.4195
 1315TIP3    H125436   3.112   4.193   4.813  1.4257  1.5374  0.2923
 1315TIP3    H225437   3.151   4.047   4.793 -1.7096  0.7686 -0.7881
 1316TIP3   OH225438   4.009   4.602  13.640  0.0908  0.2447  0.2670
 1316TIP3    H125439   3.978   4.656  13.567  2.9781 -0.6059 -1.7910
 1316TIP3    H225440   4.076   4.655  13.683 -0.8906  0.3431  1.7241
 1317TIP3   OH225441   1.735   6.823   2.781 -0.1127  0.3255  0.1221
 1317TIP3    H125442   1.658   6.772   2.757  1.2614 -1.1913 -1.4070
 1317TIP3    H225443   1.774   6.774   2.853  0.5174 -0.1294 -0.5050
 1318TIP3   OH225444   0.543   3.385  16.043 -0.1101 -0.1044 -0.0893
 1318TIP3    H125445   0.583   3.471  16.053 -2.1422  1.1779 -2.0391
 1318TIP3    H225446   0.465   3.401  15.991 -0.1396 -3.2737 -1.2312
 1319TIP3   OH225447   5.330   1.784  15.904  0.1519  0.6041 -0.1055
 1319TIP3    H125448   5.339   1.790  15.808 -1.7336 -0.9122 -0.4478
 1319TIP3    H225449   5.294   1.869  15.930 -0.6395  0.5518 -0.9669
 1320TIP3   OH225450   4.476   1.283   0.041 -0.3155  0.0724  0.3184
 1320TIP3    H125451   4.522   1.367   0.037  0.4880 -0.4134 -0.9799
 1320TIP3    H225452   4.442   1.279   0.131 -2.3405  2.8030 -0.2071
 1321TIP3   OH225453   5.331   1.904  12.885 -0.3623 -0.0161  0.1124
 1321TIP3    H125454   5.338   1.963  12.811 -0.7009  1.1940  1.0226
 1321TIP3    H225455   5.237   1.886  12.893 -0.4772  0.8898  1.0129
 1322TIP3   OH225456   0.040   3.471  14.763 -0.1531  0.0216 -0.0462
 1322TIP3    H125457   0.090   3.552  14.773 -1.6295  0.8694  0.6776
 1322TIP3    H225458   0.084   3.409  14.821  2.0068 -0.2536 -1.8278
 1323TIP3   OH225459   3.128   3.869   5.514 -0.2413 -0.2518  0.2532
 1323TIP3    H125460   3.109   3.949   5.564 -0.7694 -1.9288  2.9965
 1323TIP3    H225461   3.042   3.827   5.504  0.0538 -0.5845 -0.9571
 1324TIP3   OH225462   4.093   0.595  15.464 -0.3524  0.4478  0.1604
 1324TIP3    H125463   4.167   0.637  15.422 -1.5202  0.3840 -2.1098
 1324TIP3    H225464   4.067   0.655  15.533 -0.0931  2.0002 -1.0385
 1325TIP3   OH225465   4.019   2.444  15.662 -0.2361  0.6514  0.1465
 1325TIP3    H125466   4.071   2.497  15.602 -2.8979 -0.5216 -3.5515
 1325TIP3    H225467   3.955   2.505  15.698  1.5945  1.4386  2.3083
 1326TIP3   OH225468   5.027   0.504   0.928  0.3330  0.1676  0.3665
 1326TIP3    H125469   4.940   0.525   0.895  0.4755  2.0555  1.0642
 1326TIP3    H225470   5.016   0.495   1.023  1.0795  1.8954  0.6702
 1327TIP3   OH225471   6.301   4.187   0.155  0.3758  0.3169  0.0889
 1327TIP3    H125472   6.355   4.200   0.233 -1.1949 -1.4106  1.5966
 1327TIP3    H225473   6.247   4.266   0.150 -0.6473 -0.1965  1.8265
 1328TIP3   OH225474   0.183   5.724   0.665 -0.0659 -0.1496  0.1364
 1328TIP3    H125475   0.212   5.640   0.702  0.7869  0.1699  0.2090
 1328TIP3    H225476   0.255   5.752   0.610 -0.0711  0.8521  0.6256
 1329TIP3   OH225477   5.218   0.286  13.243  0.9785  0.3608 -0.5881
 1329TIP3    H125478   5.297   0.290  13.297  0.9075 -0.0170 -0.4518
 1329TIP3    H225479   5.150   0.327  13.296  0.5078 -1.4824  0.3408
 1330TIP3   OH225480   1.743   5.179   2.607 -0.2198 -0.4722  0.1273
 1330TIP3    H125481   1.764   5.139   2.691 -0.5334 -0.4601  0.2127
 1330TIP3    H225482   1.678   5.120   2.568  0.9219 -1.2037 -0.7086
 1331TIP3   OH225483   2.292   5.790  11.002 -0.1071 -0.1765 -0.0140
 1331TIP3    H125484   2.203   5.757  10.997 -0.3782  0.4234  0.6891
 1331TIP3    H225485   2.331   5.742  11.075  0.8981 -2.1237 -1.7285
 1332TIP3   OH225486   6.822   5.847  14.864 -0.0758  0.5243  0.5028
 1332TIP3    H125487   6.913   5.818  14.870 -0.0435 -0.1015 -2.0094
 1332TIP3    H225488   6.821   5.931  14.911  1.4115 -0.1549  1.8656
 1333TIP3   OH225489   3.555   5.964  13.564 -0.6609  0.2336  0.1805
 1333TIP3    H125490   3.583   6.038  13.510 -0.9140 -0.4986 -0.9999
 1333TIP3    H225491   3.573   5.991  13.654  0.0751  1.3680 -0.2890
 1334TIP3   OH225492   1.858   5.368  13.907  0.2806 -0.3872 -0.2578
 1334TIP3    H125493   1.828   5.318  13.982 -2.2484  1.5153  0.1129
 1334TIP3    H225494   1.884   5.302  13.843 -0.7524 -2.1115  1.0232
 1335TIP3   OH225495   0.622   6.844   2.425  0.2943  0.0291 -0.2706
 1335TIP3    H125496   0.652   6.783   2.358 -1.5737 -0.9032 -0.3120
 1335TIP3    H225497   0.557   6.796   2.475  0.2695  1.3287  1.0353
 1336TIP3   OH225498   0.317   4.722   4.126  0.6866  0.0491 -0.4829
 1336TIP3    H125499   0.351   4.645   4.082 -0.2361  0.2430 -1.5802
 1336TIP3    H225500   0.269   4.770   4.058  0.3288  1.0339  0.4259
 1337TIP3   OH225501   5.318   0.849   4.520 -0.0577 -0.1825  1.1236
 1337TIP3    H125502   5.271   0.773   4.555  0.9020 -0.3517  2.0851
 1337TIP3    H225503   5.271   0.925   4.556  0.3690 -0.3507  2.0766
 1338TIP3   OH225504   5.062   5.812  14.616  0.1747 -0.2656  0.2791
 1338TIP3    H125505   5.042   5.783  14.527  1.3012  2.0486 -0.8290
 1338TIP3    H225506   5.010   5.755  14.672 -1.1476 -1.3441 -1.8925
 1339TIP3   OH225507   6.297   6.586   6.240  0.7731 -0.6529 -0.3093
 1339TIP3    H125508   6.373   6.589   6.182  0.4640 -0.5203 -0.7212
 1339TIP3    H225509   6.326   6.628   6.321  1.1972 -0.7938 -0.3881
 1340TIP3   OH225510   2.735   1.066   0.926  0.3055  0.3252  0.3683
 1340TIP3    H125511   2.685   1.030   0.999  0.6987  1.5046  1.2490
 1340TIP3    H225512   2.817   1.095   0.965  0.9110  0.1499 -0.7213
 1341TIP3   OH225513   2.786   6.783  12.405  0.5175 -0.2590  0.1427
 1341TIP3    H125514   2.844   6.707  12.400  0.3688 -0.3177 -0.7229
 1341TIP3    H225515   2.761   6.801  12.315  1.4446  1.5182  0.1885
 1342TIP3   OH225516   6.708   5.259   4.854 -0.3045  0.5391  0.2452
 1342TIP3    H125517   6.616   5.277   4.835 -0.6038 -2.8996 -2.6332
 1342TIP3    H225518   6.754   5.279   4.772  0.5570 -2.5631 -0.1900
 1343TIP3   OH225519   4.864   6.830   3.905  0.1100  0.2961  0.1629
 1343TIP3    H125520   4.809   6.842   3.827 -0.5401 -0.0247  0.5637
 1343TIP3    H225521   4.901   6.743   3.895  0.7446  0.6048 -0.2245
 1344TIP3   OH225522   3.878   5.112  11.753  0.3822 -0.5714  0.3279
 1344TIP3    H125523   3.794   5.148  11.781  1.6606  1.0334  2.3902
 1344TIP3    H225524   3.887   5.030  11.802 -0.0032 -0.8267 -0.0144
 1345TIP3   OH225525   4.701   3.059   3.724 -0.1970  0.0519 -0.2330
 1345TIP3    H125526   4.706   3.080   3.817 -0.8367 -0.7612 -0.0029
 1345TIP3    H225527   4.607   3.065   3.703 -0.1902 -0.8294 -0.5571
 1346TIP3   OH225528   4.800   6.585  11.452 -0.5328 -0.8101 -0.2552
 1346TIP3    H125529   4.840   6.642  11.518 -0.7931 -0.1842 -0.6238
 1346TIP3    H225530   4.798   6.499  11.493  1.3742 -0.9205 -0.2743
 1347TIP3   OH225531   1.578   1.936   5.717  0.0846 -0.4357 -0.2780
 1347TIP3    H125532   1.626   1.870   5.669  1.9669 -0.5662  1.6521
 1347TIP3    H225533   1.598   1.919   5.809  0.2958  2.5200  0.3243
 1348TIP3   OH225534   3.396   0.491   4.084  0.1984  0.3472  0.3994
 1348TIP3    H125535   3.323   0.443   4.122  0.4453 -2.0977 -1.8564
 1348TIP3    H225536   3.470   0.430   4.089  1.4439  1.8076  0.4336
 1349TIP3   OH225537   4.534   5.491  13.365  0.3484  0.0906 -0.0903
 1349TIP3    H125538   4.486   5.411  13.343 -0.4513  0.3253  0.7462
 1349TIP3    H225539   4.475   5.539  13.424  2.3245 -0.4777  2.5108
 1350TIP3   OH225540   4.806   2.557   1.278  0.0091 -0.0965 -0.2177
 1350TIP3    H125541   4.773   2.614   1.210 -0.2508  0.3402  0.2648
 1350TIP3    H225542   4.727   2.522   1.320  0.1503  0.3775  0.4634
 1351TIP3   OH225543   6.505   5.935  11.911  0.0754  0.3345 -0.1943
 1351TIP3    H125544   6.549   5.929  11.995  0.9336 -1.8968 -0.7262
 1351TIP3    H225545   6.431   5.876  11.918 -1.3376  2.0138 -0.2312
 1352TIP3   OH225546   3.850   2.454   1.028 -0.2316  0.0631 -0.5615
 1352TIP3    H125547   3.792   2.529   1.042 -0.2194 -0.3474  2.3172
 1352TIP3    H225548   3.830   2.424   0.939 -2.7760  1.2935 -0.4863
 1353TIP3   OH225549   4.698   5.424   3.448  0.0516 -0.2302  0.3728
 1353TIP3    H125550   4.709   5.390   3.537 -0.7365 -3.4149 -0.5878
 1353TIP3    H225551   4.787   5.429   3.412  0.3347  0.6595  1.1652
 1354TIP3   OH225552   5.400   3.546   1.241 -0.1420  0.1436 -0.7227
 1354TIP3    H125553   5.376   3.521   1.331 -0.3097 -0.7520 -0.9994
 1354TIP3    H225554   5.492   3.571   1.246 -0.2173  0.3409 -0.2590
 1355TIP3   OH225555   1.574   0.178   2.321 -0.7819  0.4116  0.5094
 1355TIP3    H125556   1.609   0.265   2.303 -2.6350  1.2983  0.9866
 1355TIP3    H225557   1.479   0.188   2.314 -1.0318 -1.6397  0.3346
 1356TIP3   OH225558   4.666   4.945  13.768 -0.0296 -0.3673 -0.6320
 1356TIP3    H125559   4.632   5.032  13.790  0.7274 -0.6779  2.1089
 1356TIP3    H225560   4.633   4.888  13.837  1.8631 -1.6572 -0.7227
 1357TIP3   OH225561   4.264   4.492  12.419 -0.3246 -0.2781 -0.4584
 1357TIP3    H125562   4.249   4.399  12.440  0.6475 -0.4916 -0.6405
 1357TIP3    H225563   4.303   4.491  12.332 -0.6671  0.3332 -0.6226
 1358TIP3   OH225564   5.575   6.179  13.074 -0.2083  0.2314 -0.3433
 1358TIP3    H125565   5.530   6.099  13.048  2.1529 -1.0816 -0.6267
 1358TIP3    H225566   5.634   6.199  13.001  2.9926 -0.7875  1.7141
 1359TIP3   OH225567   6.254   2.859   1.884 -0.1459 -0.4183  0.4212
 1359TIP3    H125568   6.216   2.916   1.950  0.9318 -2.3907  2.8924
 1359TIP3    H225569   6.232   2.770   1.913  2.6605 -1.4731 -0.3207
 1360TIP3   OH225570   0.307   0.948   3.109  0.2560 -0.3006 -0.2741
 1360TIP3    H125571   0.344   1.003   3.178 -0.5410 -0.3919  0.2434
 1360TIP3    H225572   0.219   0.983   3.094  0.1683 -0.7120 -0.7514
 1361TIP3   OH225573   4.949   5.017  12.567 -0.5508 -0.2304 -0.3788
 1361TIP3    H125574   4.976   5.021  12.475  0.3945 -1.6751 -0.1986
 1361TIP3    H225575   4.872   4.961  12.566 -0.2179 -0.6903 -0.2258
 1362TIP3   OH225576   4.111   2.591  11.348  0.0097 -0.3038 -0.1598
 1362TIP3    H125577   4.169   2.517  11.334  0.9578  0.8392 -2.8889
 1362TIP3    H225578   4.168   2.659  11.386  0.0027  0.1430 -0.9261
 1363TIP3   OH225579   5.617   2.718  11.668  0.0608  0.1096 -0.0565
 1363TIP3    H125580   5.606   2.661  11.593  2.7856 -0.3576 -0.1990
 1363TIP3    H225581   5.656   2.798  11.633  0.0991  0.4344  0.6920
 1364TIP3   OH225582   4.388   0.367  11.640 -0.1501 -0.0135 -0.2671
 1364TIP3    H125583   4.438   0.379  11.721 -0.4730 -0.7154  0.0397
 1364TIP3    H225584   4.372   0.273  11.636  2.0171 -0.3912 -2.4366
 1365TIP3   OH225585   4.389   0.715   2.811  0.7942  0.2814 -0.5751
 1365TIP3    H125586   4.482   0.696   2.824  0.3799 -0.7440  1.2314
 1365TIP3    H225587   4.371   0.787   2.872  0.3622  0.3114 -0.7353
 1366TIP3   OH225588   3.217   4.254   1.262  0.7752 -0.3722  0.2807
 1366TIP3    H125589   3.198   4.186   1.326  3.0424 -1.0826  0.2583
 1366TIP3    H225590   3.292   4.221   1.212  1.1655  1.6063 -0.5407
 1367TIP3   OH225591   1.046   3.013   2.566  0.3322 -0.4092 -0.3956
 1367TIP3    H125592   1.007   3.080   2.509  0.9287  0.5630  0.3210
 1367TIP3    H225593   1.095   3.062   2.631 -0.3231 -1.4972  0.9789
 1368TIP3   OH225594   2.602   6.225   4.176  0.0468  0.0245  0.0087
 1368TIP3    H125595   2.628   6.311   4.209 -0.5786  0.2063  0.0605
 1368TIP3    H225596   2.673   6.166   4.200 -0.9031 -0.1114  2.7500
 1369TIP3   OH225597   1.637   1.934   5.982 -1.0773  0.5056  0.3725
 1369TIP3    H125598   1.607   1.878   6.055 -1.0268 -1.5233 -1.0694
 1369TIP3    H225599   1.723   1.964   6.010 -0.6961 -0.9134  0.8576
 1370TIP3   OH225600   4.765   0.750   4.183  0.3276 -0.4405 -0.1807
 1370TIP3    H125601   4.832   0.773   4.246  1.4871 -0.9923 -1.1589
 1370TIP3    H225602   4.718   0.676   4.223 -0.3783  0.5856  0.9366
 1371TIP3   OH225603   0.298   6.007   4.242 -0.4082  0.5735  0.1467
 1371TIP3    H125604   0.286   6.095   4.205  1.5920  1.5414  1.6590
 1371TIP3    H225605   0.389   5.985   4.223 -0.4056 -0.4642  1.2748
 1372TIP3   OH225606   1.123   6.654  10.781  0.1533  0.2512  0.0224
 1372TIP3    H125607   1.173   6.606  10.715 -2.1796  0.2633 -1.8706
 1372TIP3    H225608   1.084   6.728  10.733 -0.6236  0.9804  1.7026
 1373TIP3   OH225609   3.405   3.598  17.015 -0.1943 -0.3571  0.0479
 1373TIP3    H125610   3.488   3.568  16.978 -0.0403 -3.3594  2.4383
 1373TIP3    H225611   3.415   3.586  17.109 -2.1225  2.6560  0.7593
 1374TIP3   OH225612   2.119   5.504  16.385 -0.1011  0.5151  0.0766
 1374TIP3    H125613   2.197   5.559  16.376 -0.4398  0.9652 -0.1281
 1374TIP3    H225614   2.046   5.563  16.367 -0.4611 -0.0392 -0.2994
 1375TIP3   OH225615   5.340   3.521  12.544  0.1152 -0.1526  0.2249
 1375TIP3    H125616   5.316   3.533  12.452  1.2185 -1.3026 -0.2420
 1375TIP3    H225617   5.264   3.479  12.583 -0.0692 -0.3598 -0.3437
 1376TIP3   OH225618   2.016   5.011  13.581 -0.4517 -0.7881 -0.4582
 1376TIP3    H125619   1.931   5.036  13.618 -0.8316 -0.5308 -1.4722
 1376TIP3    H225620   2.075   5.082  13.607 -1.4135  1.0635 -2.8993
 1377TIP3   OH225621   2.399   2.667  13.127 -0.5435 -0.0262  0.5100
 1377TIP3    H125622   2.395   2.763  13.133  0.2260  0.0846 -0.4867
 1377TIP3    H225623   2.334   2.637  13.190 -0.0588  1.1223  1.6022
 1378TIP3   OH225624   0.181   0.188  13.935 -0.3065 -0.2510  0.0062
 1378TIP3    H125625   0.161   0.243  14.011 -0.2771  0.2117 -0.3181
 1378TIP3    H225626   0.168   0.098  13.966  2.1856 -0.2518  1.3559
 1379TIP3   OH225627   5.850   4.514  12.913 -0.0187  0.2307  0.8622
 1379TIP3    H125628   5.931   4.469  12.890  0.3562  0.9299  0.7701
 1379TIP3    H225629   5.816   4.466  12.988 -0.8378 -1.6057 -0.6177
 1380TIP3   OH225630   1.957   3.325  15.908 -0.4419  0.7613  0.2771
 1380TIP3    H125631   1.995   3.292  15.826  0.4167  0.6665  0.7074
 1380TIP3    H225632   1.964   3.251  15.968 -1.0612  0.8384  0.4490
 1381TIP3   OH225633   2.557   6.342  12.917  0.2832 -0.2643  0.3495
 1381TIP3    H125634   2.636   6.387  12.947  1.1562 -0.9177 -0.8950
 1381TIP3    H225635   2.512   6.316  12.998 -0.6376  3.3211  1.2092
 1382TIP3   OH225636   4.424   5.297   2.627  0.2351  0.3003 -0.6098
 1382TIP3    H125637   4.460   5.326   2.710  0.7907 -0.7484 -0.4816
 1382TIP3    H225638   4.500   5.278   2.573 -0.1081  1.3623 -1.5211
 1383TIP3   OH225639   6.588   4.272   5.078  0.1179 -0.1704 -1.1995
 1383TIP3    H125640   6.548   4.185   5.076 -2.9476  1.1202 -3.0656
 1383TIP3    H225641   6.631   4.277   5.163 -3.3762 -1.9784  0.8788
 1384TIP3   OH225642   1.642   2.404   4.699  0.3650  0.4332  0.2694
 1384TIP3    H125643   1.719   2.452   4.672  1.5582 -0.2036  2.3029
 1384TIP3    H225644   1.616   2.444   4.782 -0.7080 -0.1999  0.2662
 1385TIP3   OH225645   6.853   6.386   4.870 -0.5564  0.4249 -0.5578
 1385TIP3    H125646   6.933   6.434   4.889 -1.1428  1.4336 -0.6073
 1385TIP3    H225647   6.867   6.300   4.910  0.9941  0.1876 -1.5216
 1386TIP3   OH225648   0.289   0.273   2.899 -0.1042  0.5000  0.3770
 1386TIP3    H125649   0.279   0.189   2.944 -1.3336  0.3588 -0.1099
 1386TIP3    H225650   0.199   0.299   2.878  0.3878  0.7660 -1.6069
 1387TIP3   OH225651   2.575   6.320   5.031 -0.2472 -0.3634  0.2068
 1387TIP3    H125652   2.526   6.306   4.951 -0.4815 -1.6374  0.5585
 1387TIP3    H225653   2.589   6.415   5.034 -2.1740 -0.0306 -0.1913
 1388TIP3   OH225654   3.545   2.420   0.001  0.3924  0.0455 -0.2558
 1388TIP3    H125655   3.616   2.484   0.010  1.4417 -1.1343  0.2404
 1388TIP3    H225656   3.477   2.451   0.060  0.0385  1.7558 -1.4842
 1389TIP3   OH225657   4.412   5.998   2.701  0.0529  0.9121 -0.0607
 1389TIP3    H125658   4.419   6.091   2.679  0.1445  0.6062 -1.4316
 1389TIP3    H225659   4.485   5.957   2.653 -0.8116 -0.0409 -0.5917
 1390TIP3   OH225660   6.713   3.770   1.889 -0.3853  0.2431  0.2832
 1390TIP3    H125661   6.807   3.753   1.897 -0.2804  0.9458  0.6980
 1390TIP3    H225662   6.673   3.713   1.955 -0.1808  0.4690  0.6082
 1391TIP3   OH225663   5.077   0.463   1.565 -0.6951  0.0065  0.1271
 1391TIP3    H125664   5.170   0.447   1.577 -0.2656  0.0724 -2.4833
 1391TIP3    H225665   5.064   0.555   1.586 -0.0805  0.1133  0.0353
 1392TIP3   OH225666   5.489   6.417   3.102 -0.1238  0.1502  0.5995
 1392TIP3    H125667   5.567   6.419   3.046 -0.0358  0.2291  0.7237
 1392TIP3    H225668   5.494   6.333   3.147 -0.0211  0.2284  0.7337
 1393TIP3   OH225669   4.994   4.827  11.252 -0.1901 -0.3725 -0.1599
 1393TIP3    H125670   5.003   4.821  11.157 -0.4278 -1.1095 -0.1383
 1393TIP3    H225671   4.930   4.897  11.265  0.9637  0.7843 -0.4877
 1394TIP3   OH225672   1.646   5.892   2.286  0.9903 -0.2460 -0.1570
 1394TIP3    H125673   1.729   5.936   2.304  0.0741  0.7480  1.8809
 1394TIP3    H225674   1.671   5.803   2.261  2.6522 -0.5670  2.2963
 1395TIP3   OH225675   3.834   1.453   1.131  0.2544 -0.0331  0.3315
 1395TIP3    H125676   3.821   1.387   1.199 -0.3869 -2.2809 -1.8567
 1395TIP3    H225677   3.751   1.457   1.085  0.7661  1.2272 -0.5533
 1396TIP3   OH225678   3.714   2.459  15.420 -0.4757 -0.7555 -0.1641
 1396TIP3    H125679   3.785   2.488  15.363  0.9754 -3.1748  0.2782
 1396TIP3    H225680   3.688   2.537  15.468  0.2621  0.6926 -2.0078
 1397TIP3   OH225681   2.655   1.240   3.401 -0.3334  0.2868 -0.2372
 1397TIP3    H125682   2.691   1.284   3.324  0.5446  0.4809  0.2766
 1397TIP3    H225683   2.717   1.169   3.419 -1.0743 -0.4016 -0.3085
 1398TIP3   OH225684   3.869   0.963  13.861 -0.5124  0.6597 -0.6083
 1398TIP3    H125685   3.848   0.999  13.947 -1.8549 -1.4342  0.0380
 1398TIP3    H225686   3.962   0.979  13.849 -0.0119 -0.0688  1.8152
 1399TIP3   OH225687   2.729   2.216  15.174 -0.0777  0.0527  0.3432
 1399TIP3    H125688   2.764   2.149  15.116  0.3327  1.5970 -1.2904
 1399TIP3    H225689   2.686   2.167  15.244 -0.8126 -1.9049 -1.3764
 1400TIP3   OH225690   1.773   5.470  14.829  0.0677  0.2693  0.0547
 1400TIP3    H125691   1.707   5.432  14.771  2.0501  0.2839 -2.4019
 1400TIP3    H225692   1.839   5.401  14.839  0.0388  0.4609  1.9419
 1401TIP3   OH225693   3.437   5.348   5.599 -0.2145  0.4802 -0.0539
 1401TIP3    H125694   3.450   5.387   5.513 -0.4686 -0.0187 -0.3230
 1401TIP3    H225695   3.519   5.366   5.646  1.0667 -1.6152 -1.3232
 1402TIP3   OH225696   4.893   1.754  12.741 -0.1997  0.4232  0.6021
 1402TIP3    H125697   4.893   1.790  12.652  0.0300 -2.1123 -0.5402
 1402TIP3    H225698   4.826   1.804  12.788 -0.7152  1.4823 -1.1604
 1403TIP3   OH225699   3.396   1.690  16.632  0.1377  0.6239  0.0968
 1403TIP3    H125700   3.351   1.774  16.618  1.2989  1.2918  0.2948
 1403TIP3    H225701   3.446   1.676  16.552 -0.1937  0.0083 -0.0102
 1404TIP3   OH225702   4.179   5.158   2.510 -0.1472  0.3351 -0.9962
 1404TIP3    H125703   4.182   5.067   2.481 -0.5434  0.4743 -1.4957
 1404TIP3    H225704   4.271   5.180   2.528 -0.0725 -0.2242 -0.6624
 1405TIP3   OH225705   2.475   4.641   0.826 -0.4022  0.7111  0.6331
 1405TIP3    H125706   2.403   4.585   0.854  1.0858 -1.3271  0.6256
 1405TIP3    H225707   2.541   4.632   0.895  0.3171  1.6137  0.0899
 1406TIP3   OH225708   1.876   2.657   5.863  0.4895 -0.0370  0.0988
 1406TIP3    H125709   1.798   2.693   5.905  0.5064  1.5257 -1.1229
 1406TIP3    H225710   1.949   2.703   5.905  0.6984 -0.6955  0.4697
 1407TIP3   OH225711   0.954   2.566  12.929 -0.0762  0.5640  0.5890
 1407TIP3    H125712   0.882   2.618  12.964 -0.8945 -1.0288  1.3794
 1407TIP3    H225713   1.029   2.588  12.984 -0.6949  0.0649  1.6527
 1408TIP3   OH225714   1.384   4.282   3.831  0.5908  0.0618  0.1946
 1408TIP3    H125715   1.449   4.348   3.808  2.0934 -1.6429 -0.6185
 1408TIP3    H225716   1.411   4.203   3.785 -2.0666 -0.7448 -0.1715
 1409TIP3   OH225717   5.512   2.777  15.319  0.2753 -0.4749 -0.4104
 1409TIP3    H125718   5.539   2.811  15.405  2.1390 -4.0828  0.6171
 1409TIP3    H225719   5.594   2.760  15.273 -0.6802  1.6679 -3.1992
 1410TIP3   OH225720   0.827   0.929   5.620  0.4148  0.2951 -0.5379
 1410TIP3    H125721   0.921   0.915   5.606  0.1676 -0.8401 -1.1713
 1410TIP3    H225722   0.822   0.967   5.708  1.4626  0.3163 -0.4695
 1411TIP3   OH225723   5.457   3.126  13.875  0.1128  0.2966  0.1410
 1411TIP3    H125724   5.378   3.073  13.882  0.2229 -0.0358 -0.9204
 1411TIP3    H225725   5.435   3.209  13.917 -0.5744 -0.0300  0.4365
 1412TIP3   OH225726   4.869   2.050  15.935 -0.0375 -0.2509 -0.0142
 1412TIP3    H125727   4.925   2.073  15.861 -1.4975 -0.6891 -1.3012
 1412TIP3    H225728   4.881   2.121  15.997  1.1376  0.1861 -0.6971
 1413TIP3   OH225729   2.736   4.048  16.503  0.2331 -0.0319  0.0775
 1413TIP3    H125730   2.823   4.084  16.519 -0.3047  1.2112  0.3755
 1413TIP3    H225731   2.679   4.097  16.562 -0.5892 -1.2789  0.3663
 1414TIP3   OH225732   2.474   1.735   5.568  0.1414  0.3628 -0.0388
 1414TIP3    H125733   2.395   1.780   5.539 -0.1947  0.1774  0.5798
 1414TIP3    H225734   2.505   1.786   5.643  0.8814  0.7105 -0.5585
 1415TIP3   OH225735   2.394   2.005  14.655 -0.1479 -0.0082 -0.3399
 1415TIP3    H125736   2.429   1.923  14.619  0.6383  1.0546 -2.1339
 1415TIP3    H225737   2.314   1.978  14.701  0.0017 -1.7662 -1.0091
 1416TIP3   OH225738   5.407   1.525   4.847 -0.5271 -0.0153 -0.0729
 1416TIP3    H125739   5.417   1.500   4.755  0.0036 -2.2305  0.5230
 1416TIP3    H225740   5.312   1.524   4.861 -0.7124  1.8337 -0.9304
 1417TIP3   OH225741   6.642   5.527  11.535 -0.0232 -0.0053 -0.6876
 1417TIP3    H125742   6.620   5.620  11.538 -0.6398 -0.1009 -1.8149
 1417TIP3    H225743   6.564   5.483  11.567  0.9794 -0.1034  1.9153
 1418TIP3   OH225744   0.137   1.626  12.003  0.2251 -0.1477  0.1327
 1418TIP3    H125745   0.186   1.590  12.077  0.6125 -0.1594 -0.1281
 1418TIP3    H225746   0.142   1.558  11.936 -0.7527 -0.4509  0.3482
 1419TIP3   OH225747   5.944   0.111  15.977 -0.6846 -0.7243  0.5364
 1419TIP3    H125748   5.901   0.175  15.921  1.2513  0.6474  0.5262
 1419TIP3    H225749   5.967   0.039  15.918 -0.7838 -0.3609  0.0517
 1420TIP3   OH225750   2.958   1.460   0.476 -0.3447  0.6506  0.1206
 1420TIP3    H125751   3.048   1.436   0.496 -0.6141 -1.5229 -1.0018
 1420TIP3    H225752   2.965   1.538   0.420  0.8687  0.2692 -0.2792
 1421TIP3   OH225753   5.383   3.848  12.649 -0.1677 -0.1322 -0.2616
 1421TIP3    H125754   5.306   3.885  12.692  0.3111  2.7039 -1.5986
 1421TIP3    H225755   5.379   3.755  12.669 -2.4573  0.3217  1.9455
 1422TIP3   OH225756   4.338   6.659   3.597 -0.1358 -0.0392  0.1419
 1422TIP3    H125757   4.429   6.640   3.573 -0.2001 -1.0395  0.6536
 1422TIP3    H225758   4.287   6.623   3.524 -0.0319  3.1926 -1.6824
 1423TIP3   OH225759   2.786   6.754  15.979  0.0661  0.5017  0.2939
 1423TIP3    H125760   2.745   6.787  16.059  0.5430  0.4780  0.5487
 1423TIP3    H225761   2.878   6.740  16.002  0.1089  0.0522 -0.1259
 1424TIP3   OH225762   0.759   1.872  12.416 -0.3746 -0.2878 -0.1815
 1424TIP3    H125763   0.728   1.877  12.506  0.7835  1.3698  0.1713
 1424TIP3    H225764   0.711   1.941  12.370 -0.6635 -0.8609 -0.7552
 1425TIP3   OH225765   2.754   1.081  14.980  0.1246  0.2750  0.1834
 1425TIP3    H125766   2.692   1.079  14.907 -0.3912  0.4630  0.6100
 1425TIP3    H225767   2.742   1.167  15.019  0.5569  0.2570  0.3525
 1426TIP3   OH225768   4.066   3.115   5.640 -0.1605  0.3739  0.2629
 1426TIP3    H125769   4.040   3.119   5.732 -0.2080  1.3362  0.2170
 1426TIP3    H225770   4.132   3.045   5.637 -1.3941 -0.8601  0.7063
 1427TIP3   OH225771   2.091   3.233  16.745 -0.0108 -0.1838  0.1691
 1427TIP3    H125772   2.134   3.274  16.671  0.3621 -1.5001 -0.3772
 1427TIP3    H225773   2.161   3.219  16.809 -0.1065 -0.1019  0.2929
 1428TIP3   OH225774   1.394   3.495   4.403  0.1214 -0.1589 -0.1145
 1428TIP3    H125775   1.467   3.434   4.413  0.0224 -0.1331  0.9123
 1428TIP3    H225776   1.327   3.461   4.463  0.5313  1.6257  1.4242
 1429TIP3   OH225777   0.739   0.542   3.382  0.8536  0.0922  0.1437
 1429TIP3    H125778   0.667   0.501   3.430  0.1328  1.7434  0.5504
 1429TIP3    H225779   0.804   0.472   3.372 -1.6038 -2.1099 -2.1035
 1430TIP3   OH225780   0.847   5.485   5.719 -0.2312 -0.3445 -0.0579
 1430TIP3    H125781   0.753   5.505   5.709 -0.4400 -1.0020  0.5520
 1430TIP3    H225782   0.872   5.448   5.634 -0.5699 -0.3565 -0.1579
 1431TIP3   OH225783   5.349   4.498  11.605  0.9348  0.2336 -0.6146
 1431TIP3    H125784   5.264   4.475  11.567 -0.0575  0.4613  1.3331
 1431TIP3    H225785   5.373   4.580  11.562 -1.2072  1.6582  0.6809
 1432TIP3   OH225786   0.243   4.716  14.438  0.4761  0.0575  0.0698
 1432TIP3    H125787   0.219   4.662  14.363  0.7872 -1.5322  1.0771
 1432TIP3    H225788   0.168   4.710  14.497  0.3353  1.1050  0.0238
 1433TIP3   OH225789   2.224   4.048  14.051  0.3361  0.0394 -0.2387
 1433TIP3    H125790   2.192   3.995  14.124 -0.4542  0.3436 -0.3564
 1433TIP3    H225791   2.206   3.994  13.974  1.2149 -0.3030 -0.2086
 1434TIP3   OH225792   3.660   2.911   2.374  0.0781 -0.4434 -0.0754
 1434TIP3    H125793   3.683   2.992   2.328  0.8002  0.1359  1.2243
 1434TIP3    H225794   3.709   2.842   2.328 -0.2548 -0.0913 -0.9722
 1435TIP3   OH225795   4.761   3.990  15.839 -0.6355  0.4929 -0.4484
 1435TIP3    H125796   4.855   3.983  15.821 -0.7922  1.9019 -2.0540
 1435TIP3    H225797   4.751   4.074  15.883 -1.0425 -0.1280  0.6771
 1436TIP3   OH225798   4.291   2.130  16.590  0.0823 -0.5561 -0.0843
 1436TIP3    H125799   4.222   2.196  16.589 -0.8148 -1.4673 -0.7939
 1436TIP3    H225800   4.366   2.174  16.629 -0.4636  0.8949 -0.6227
 1437TIP3   OH225801   1.506   2.515  12.267 -0.1694  0.0337  0.2768
 1437TIP3    H125802   1.518   2.432  12.222  0.4281 -0.0179  0.5285
 1437TIP3    H225803   1.526   2.497  12.359 -0.1935  0.4166  0.3617
 1438TIP3   OH225804   5.730   5.893  14.899 -0.3548 -0.1287  0.0133
 1438TIP3    H125805   5.679   5.825  14.942 -1.8996  0.0511 -1.4451
 1438TIP3    H225806   5.666   5.957  14.869  0.9248  1.1893 -0.0458
 1439TIP3   OH225807   1.861   3.130   0.860 -0.1424 -0.2812 -0.3546
 1439TIP3    H125808   1.910   3.072   0.802  0.1581  0.8754 -1.2930
 1439TIP3    H225809   1.866   3.217   0.819 -2.0361  0.1074  0.0944
 1440TIP3   OH225810   1.670   0.807   5.070 -0.2403 -0.0125 -0.3558
 1440TIP3    H125811   1.713   0.872   5.014 -0.7589 -0.4530 -1.3037
 1440TIP3    H225812   1.577   0.832   5.069 -0.0291  1.0257  1.8077
 1441TIP3   OH225813   4.351   2.529   0.889  0.2885 -0.0520 -0.0426
 1441TIP3    H125814   4.303   2.529   0.806 -1.0735  1.3078  0.6983
 1441TIP3    H225815   4.284   2.513   0.955  0.9225  1.3618  0.9858
 1442TIP3   OH225816   2.594   4.543  11.898 -0.2934  0.5494  0.2904
 1442TIP3    H125817   2.679   4.542  11.940  1.5364  0.4783 -3.0830
 1442TIP3    H225818   2.558   4.456  11.914 -0.3199  0.9370  2.6763
 1443TIP3   OH225819   1.074   5.695   6.236  0.4393  0.4350  0.0267
 1443TIP3    H125820   1.081   5.721   6.328 -0.3437 -1.3021  0.6101
 1443TIP3    H225821   1.135   5.754   6.191  0.0701  2.0258  1.4783
 1444TIP3   OH225822   1.768   4.242   3.572  0.4518 -0.0758 -0.6461
 1444TIP3    H125823   1.820   4.273   3.646 -0.3577  0.8140 -0.4321
 1444TIP3    H225824   1.762   4.317   3.513  0.9648 -0.7312 -1.5624
 1445TIP3   OH225825   1.369   6.829   2.424 -0.0693 -0.0844  0.3668
 1445TIP3    H125826   1.335   6.852   2.338 -1.4458 -0.5762  0.7559
 1445TIP3    H225827   1.448   6.883   2.433  0.2398 -0.2000 -1.2793
 1446TIP3   OH225828   5.805   0.059   1.217 -0.1557 -0.1446  0.1159
 1446TIP3    H125829   5.811  -0.036   1.230  1.5567 -0.1370 -0.3028
 1446TIP3    H225830   5.794   0.094   1.306 -1.9590 -0.7639  0.1734
 1447TIP3   OH225831   0.386   6.662  12.842 -0.2638 -0.1640 -0.6430
 1447TIP3    H125832   0.296   6.664  12.875  0.4322 -2.1610  1.5734
 1447TIP3    H225833   0.417   6.752  12.851 -1.3833  0.1274  0.4990
 1448TIP3   OH225834   0.728   5.277  13.365  0.4080  0.7514 -0.1509
 1448TIP3    H125835   0.658   5.247  13.307  0.6895 -1.8551  0.7573
 1448TIP3    H225836   0.684   5.298  13.448  0.6163 -0.6981  0.3569
 1449TIP3   OH225837   4.557   5.205  13.832  0.9048 -0.1551  0.1016
 1449TIP3    H125838   4.519   5.267  13.770 -1.3108 -1.7897 -0.3043
 1449TIP3    H225839   4.515   5.226  13.916  0.9615 -0.3940  0.1915
 1450TIP3   OH225840   3.058   3.736   1.956  0.3580 -0.3561 -0.1710
 1450TIP3    H125841   3.055   3.669   1.888 -1.1244  1.0903 -1.6329
 1450TIP3    H225842   2.989   3.711   2.018  1.2318 -1.2908  0.4426
 1451TIP3   OH225843   4.613   2.043   4.930 -0.5168 -0.2040  0.4196
 1451TIP3    H125844   4.688   1.985   4.916 -0.2938  0.4715 -1.4331
 1451TIP3    H225845   4.652   2.129   4.946 -0.8545  0.3651 -1.5869
 1452TIP3   OH225846   4.826   6.400   2.743 -0.1004  0.6198 -0.7334
 1452TIP3    H125847   4.784   6.477   2.780 -1.7403 -1.0399  1.0407
 1452TIP3    H225848   4.879   6.365   2.814 -1.4642 -1.3362 -0.6105
 1453TIP3   OH225849   6.822   5.814   1.822  0.1547  0.7035 -0.7297
 1453TIP3    H125850   6.850   5.835   1.911  2.3725 -2.0219 -0.6432
 1453TIP3    H225851   6.726   5.822   1.825  0.2228  1.6303  1.6073
 1454TIP3   OH225852   3.870   2.570  13.057  0.2903  0.7213 -0.2566
 1454TIP3    H125853   3.896   2.638  12.994  0.7263  0.8489  0.0526
 1454TIP3    H225854   3.811   2.614  13.117 -1.6887  0.1428 -1.6570
 1455TIP3   OH225855   3.561   6.785   0.429 -0.3137 -0.1147 -0.0200
 1455TIP3    H125856   3.553   6.872   0.391 -1.5350  0.3286  1.1812
 1455TIP3    H225857   3.471   6.756   0.442  0.0082 -2.4695 -2.3348
 1456TIP3   OH225858   4.408   0.911  12.045 -0.1388 -0.2888  0.4507
 1456TIP3    H125859   4.353   0.836  12.026  0.8527 -0.4034 -2.3678
 1456TIP3    H225860   4.351   0.987  12.033 -0.1954 -0.4751 -0.5077
 1457TIP3   OH225861   5.719   5.045   4.141 -0.1707  0.1587 -0.1284
 1457TIP3    H125862   5.693   5.088   4.060 -2.1064  0.7844  0.7757
 1457TIP3    H225863   5.738   5.117   4.201 -0.9310 -0.2569  0.6299
 1458TIP3   OH225864   1.080   1.940  14.779 -0.4841 -0.1142  0.4455
 1458TIP3    H125865   1.022   1.938  14.854 -2.4975  1.8101 -0.9156
 1458TIP3    H225866   1.139   2.014  14.796  0.1257 -0.6691  0.8075
 1459TIP3   OH225867   6.516   6.273  12.893 -0.1553  0.6665 -0.2111
 1459TIP3    H125868   6.444   6.212  12.876 -0.4678  0.7168  0.8304
 1459TIP3    H225869   6.587   6.243  12.836 -0.7255  0.1122 -0.6481
 1460TIP3   OH225870   5.156   2.595   5.836  0.2376  0.5639  0.2300
 1460TIP3    H125871   5.067   2.622   5.860  0.1827  1.3867 -0.8219
 1460TIP3    H225872   5.205   2.597   5.918 -1.1573 -1.9337  1.2487
 1461TIP3   OH225873   3.919   2.942   2.925  0.0183  0.0220 -0.1299
 1461TIP3    H125874   3.875   2.859   2.944 -0.7534  0.4380 -0.0266
 1461TIP3    H225875   3.987   2.920   2.862  0.0630 -0.7480  0.1853
 1462TIP3   OH225876   0.322   2.660   5.349 -0.6743 -0.0767 -0.2075
 1462TIP3    H125877   0.296   2.703   5.267 -2.1094 -0.2528  0.1302
 1462TIP3    H225878   0.415   2.681   5.358 -0.4859 -0.0213 -1.8548
 1463TIP3   OH225879   5.302   0.741  14.803 -0.6083  0.1575 -0.1249
 1463TIP3    H125880   5.283   0.768  14.893  0.2681 -0.6600  0.3188
 1463TIP3    H225881   5.369   0.803  14.774  1.0648 -1.1669  0.7351
 1464TIP3   OH225882   1.997   2.398   3.188  0.4857 -0.3085  0.2909
 1464TIP3    H125883   2.011   2.479   3.237  1.5367 -1.2147  1.5653
 1464TIP3    H225884   1.914   2.364   3.221  0.2864 -0.0083  0.1061
 1465TIP3   OH225885   4.522   0.651   3.679 -0.1461 -0.2786 -0.7248
 1465TIP3    H125886   4.510   0.556   3.675 -1.2484 -0.2063  0.1356
 1465TIP3    H225887   4.548   0.676   3.591  0.8442 -1.4596 -0.7848
 1466TIP3   OH225888   6.518   3.756  13.260  0.1414 -0.6460  0.2026
 1466TIP3    H125889   6.468   3.765  13.341 -1.1526 -1.9668 -0.4031
 1466TIP3    H225890   6.457   3.780  13.190  0.3389 -2.1671 -0.5470
 1467TIP3   OH225891   0.957   4.521   3.717  0.1103 -0.0126 -0.3047
 1467TIP3    H125892   0.983   4.533   3.809  0.7806 -0.0830 -0.4761
 1467TIP3    H225893   0.998   4.438   3.691  2.0694  1.2186 -1.3902
 1468TIP3   OH225894   2.240   3.487  12.452 -0.3418 -0.1191 -0.4816
 1468TIP3    H125895   2.268   3.570  12.491  0.3451 -0.2587 -0.6661
 1468TIP3    H225896   2.165   3.459  12.505 -0.1550  0.2831 -0.0035
 1469TIP3   OH225897   2.793   2.924   1.067 -0.0721 -0.4943  0.2583
 1469TIP3    H125898   2.791   2.923   1.163 -0.5325  0.6183  0.2701
 1469TIP3    H225899   2.767   3.012   1.043 -0.3223 -0.8685 -0.9125
 1470TIP3   OH225900   4.005   5.171   1.826  0.0448  0.7742 -0.1054
 1470TIP3    H125901   4.092   5.141   1.854 -0.1767  0.3490  0.1476
 1470TIP3    H225902   3.997   5.259   1.864  0.8250  1.2938 -1.1150
 1471TIP3   OH225903   3.506   4.784  11.022 -0.1610  0.2192  0.0324
 1471TIP3    H125904   3.525   4.711  10.964 -0.8923  0.5278 -0.6070
 1471TIP3    H225905   3.423   4.820  10.991 -1.0629 -0.1687  1.8351
 1472TIP3   OH225906   6.249   3.329   1.129 -0.2499  0.1799 -0.1807
 1472TIP3    H125907   6.308   3.354   1.200  0.1366 -0.3470 -0.3089
 1472TIP3    H225908   6.224   3.239   1.149 -0.8802  0.3460 -0.2169
 1473TIP3   OH225909   3.083   5.571   1.066 -0.3010  0.2984 -0.1148
 1473TIP3    H125910   3.068   5.600   1.156 -1.3496 -1.6349  0.3859
 1473TIP3    H225911   3.143   5.637   1.030  2.8598 -0.5258  2.9852
 1474TIP3   OH225912   3.481   4.300   0.394  0.1322 -0.0661  0.2043
 1474TIP3    H125913   3.406   4.357   0.411 -0.6233 -1.7286  3.0260
 1474TIP3    H225914   3.557   4.355   0.412 -0.5470  0.4820  1.5326
 1475TIP3   OH225915   0.271   0.317   3.389  0.0224 -0.5601 -0.6820
 1475TIP3    H125916   0.277   0.225   3.416  0.6250  0.0251  1.4294
 1475TIP3    H225917   0.207   0.355   3.449  0.2678  0.5387 -1.0940
 1476TIP3   OH225918   2.341   2.142   4.745 -0.0400 -0.2166 -0.5233
 1476TIP3    H125919   2.395   2.161   4.822 -0.2654 -0.4492 -0.3068
 1476TIP3    H225920   2.393   2.174   4.671  1.8856 -3.2276 -0.6550
 1477TIP3   OH225921   2.685   6.105   3.313 -0.1246  0.3496  0.4186
 1477TIP3    H125922   2.748   6.155   3.262 -0.8727  1.9911  1.0502
 1477TIP3    H225923   2.603   6.111   3.263 -0.1440 -0.5868  0.3104
 1478TIP3   OH225924   2.303   0.226  13.577 -0.4335 -0.0776  0.2009
 1478TIP3    H125925   2.263   0.140  13.569  0.6499 -0.8212  2.0738
 1478TIP3    H225926   2.229   0.286  13.591 -1.3284 -0.3801 -2.6045
 1479TIP3   OH225927   0.456   2.639   1.423  0.2610 -0.8767  0.4215
 1479TIP3    H125928   0.386   2.692   1.383 -0.6217 -2.6809 -0.5535
 1479TIP3    H225929   0.532   2.655   1.367 -0.1200 -0.9508 -0.1333
 1480TIP3   OH225930   4.950   4.921  13.791 -0.3393 -0.4767 -0.2967
 1480TIP3    H125931   4.859   4.923  13.760 -0.4507 -0.0661  0.0509
 1480TIP3    H225932   4.950   4.977  13.868  0.0400 -1.1305  0.1841
 1481TIP3   OH225933   1.163   5.676  14.058  0.3551  0.4497  0.0443
 1481TIP3    H125934   1.251   5.648  14.032  0.1263  0.6793 -1.0571
 1481TIP3    H225935   1.114   5.595  14.067  0.4155  0.3642 -0.3769
 1482TIP3   OH225936   0.603   0.644   4.325  0.0215 -0.0034 -0.4207
 1482TIP3    H125937   0.636   0.683   4.244  0.8548  1.4237  0.5684
 1482TIP3    H225938   0.680   0.636   4.381 -0.6168 -0.5816  0.3894
 1483TIP3   OH225939   1.306   6.251  12.456 -0.4270 -0.2385 -0.0542
 1483TIP3    H125940   1.344   6.268  12.370 -0.0430 -1.4577 -0.1448
 1483TIP3    H225941   1.366   6.189  12.497 -0.6940  0.2127  1.0288
 1484TIP3   OH225942   6.782   0.201   1.986 -0.5348 -0.3234  0.2716
 1484TIP3    H125943   6.768   0.107   1.973 -1.2467  0.0241 -1.7981
 1484TIP3    H225944   6.865   0.219   1.942 -0.6750  0.1090  0.1789
 1485TIP3   OH225945   6.157   2.020   2.597  0.4440 -0.6372  0.3889
 1485TIP3    H125946   6.146   2.114   2.586 -0.0309 -0.7543 -0.1654
 1485TIP3    H225947   6.250   2.009   2.618  0.5492 -0.0633  0.2346
 1486TIP3   OH225948   6.202   2.988  14.752  0.4479 -0.2561  0.1048
 1486TIP3    H125949   6.257   3.052  14.797  2.2046  0.1831 -2.4552
 1486TIP3    H225950   6.114   3.007  14.783  1.1000  2.3602  0.6537
 1487TIP3   OH225951   2.910   0.518   3.154  0.8901 -0.3315  0.1025
 1487TIP3    H125952   2.862   0.552   3.078  1.2124 -1.0353 -0.4325
 1487TIP3    H225953   2.861   0.441   3.181  1.3233 -0.6509 -0.0126
 1488TIP3   OH225954   6.569   5.477   4.200  0.0006  0.3117 -0.6102
 1488TIP3    H125955   6.582   5.570   4.181 -1.4342  0.2205 -2.3009
 1488TIP3    H225956   6.648   5.435   4.165  0.4787  0.8273 -0.1840
 1489TIP3   OH225957   2.041   4.372   1.347  0.5343  0.7792 -0.0691
 1489TIP3    H125958   2.097   4.304   1.384 -0.1199 -1.2731 -2.5627
 1489TIP3    H225959   1.953   4.351   1.379  0.3128  0.3213 -0.9351
 1490TIP3   OH225960   0.841   6.619  16.288  0.2234  0.1195 -0.3541
 1490TIP3    H125961   0.846   6.713  16.267  2.7400 -0.0341 -0.7808
 1490TIP3    H225962   0.883   6.612  16.373 -1.2390 -0.4830  0.3389
 1491TIP3   OH225963   2.184   1.414  15.068 -0.2948  0.6981 -0.2217
 1491TIP3    H125964   2.096   1.381  15.081  1.0438 -2.1845  2.8532
 1491TIP3    H225965   2.217   1.364  14.993 -0.5102  0.0422  0.1164
 1492TIP3   OH225966   2.366   4.669  15.749 -0.2249  0.2111  0.3830
 1492TIP3    H125967   2.448   4.718  15.756 -0.5047  0.5476  1.4821
 1492TIP3    H225968   2.384   4.602  15.683  0.6811  0.7732  0.0385
 1493TIP3   OH225969   4.611   6.185  15.434 -0.3076  0.2821 -0.0964
 1493TIP3    H125970   4.571   6.099  15.422 -0.7766  0.5584 -0.6035
 1493TIP3    H225971   4.704   6.171  15.419 -0.1835 -0.3882  1.1565
 1494TIP3   OH225972   1.040   1.228  16.207  0.2547 -0.9209  0.2997
 1494TIP3    H125973   1.003   1.275  16.133 -0.2476 -1.0079  0.4883
 1494TIP3    H225974   1.112   1.177  16.170  0.4178 -0.4723 -0.0083
 1495TIP3   OH225975   2.699   2.884  15.647 -0.8097  0.0914 -0.4541
 1495TIP3    H125976   2.724   2.897  15.555  1.9391  2.2118  0.4567
 1495TIP3    H225977   2.747   2.805  15.673  0.4168  0.8937 -0.2287
 1496TIP3   OH225978   3.918   1.435   4.335 -0.6669 -0.2148 -0.2198
 1496TIP3    H125979   3.849   1.437   4.401 -1.9909 -1.4028 -1.5130
 1496TIP3    H225980   3.872   1.450   4.252  0.7883  0.0457 -1.0067
 1497TIP3   OH225981   3.055   5.621  11.176  0.1512  0.1197  0.1043
 1497TIP3    H125982   3.018   5.607  11.263  1.0037  1.9486  0.8071
 1497TIP3    H225983   3.034   5.713  11.155  0.6520 -0.0488 -1.2740
 1498TIP3   OH225984   5.777   2.873  13.237 -0.2100  0.2647 -0.0475
 1498TIP3    H125985   5.825   2.836  13.163  0.0679  0.1929  0.1629
 1498TIP3    H225986   5.830   2.948  13.265 -0.0106 -0.0486  0.4347
 1499TIP3   OH225987   0.949   3.266  13.066 -0.3444 -0.0862 -0.5007
 1499TIP3    H125988   0.931   3.359  13.077  1.0788  0.8103 -4.1703
 1499TIP3    H225989   1.039   3.254  13.096 -0.4934 -0.2614 -0.1210
 1500TIP3   OH225990   2.876   6.730   3.490  0.6327 -0.1138 -0.8236
 1500TIP3    H125991   2.970   6.719   3.471  0.7999  0.3223 -0.2871
 1500TIP3    H225992   2.861   6.824   3.481  0.5279 -0.0106  0.3207
 1501TIP3   OH225993   4.112   3.730   1.595  0.3815 -0.0973 -0.2152
 1501TIP3    H125994   4.030   3.705   1.554  0.5284  0.6849 -1.0261
 1501TIP3    H225995   4.175   3.737   1.523  0.9004  0.3216  0.2593
 1502TIP3   OH225996   2.608   5.971  16.757  0.3573 -0.0866  0.1608
 1502TIP3    H125997   2.620   6.033  16.829  1.5042 -0.4937  0.3511
 1502TIP3    H225998   2.577   5.891  16.800 -4.2805  1.1345 -0.3855
 1503TIP3   OH225999   1.537   0.709  11.035 -0.0835 -0.3267 -0.3399
 1503TIP3    H126000   1.605   0.750  11.089  0.2295  1.0461 -1.6857
 1503TIP3    H226001   1.495   0.645  11.092  0.7202  0.5414  1.2764
 1504TIP3   OH226002   4.662   3.157  15.725 -0.0418 -0.4075  0.5638
 1504TIP3    H126003   4.705   3.074  15.704  0.7111 -0.0483  0.6553
 1504TIP3    H226004   4.683   3.171  15.818  0.8724  0.4778  0.2424
 1505TIP3   OH226005   5.811   5.482  12.927  0.7786  0.4816 -0.3131
 1505TIP3    H126006   5.739   5.527  12.972  1.1694  1.6438 -0.8226
 1505TIP3    H226007   5.842   5.417  12.991  0.1143  0.8332  0.3845
 1506TIP3   OH226008   4.215   3.854  11.336 -0.2849  0.0023  0.4408
 1506TIP3    H126009   4.245   3.891  11.253 -2.0734  0.1620 -0.1663
 1506TIP3    H226010   4.255   3.767  11.339 -0.2982 -0.0575 -0.6565
 1507TIP3   OH226011   6.445   5.967  11.620 -0.5077  0.0710  1.1683
 1507TIP3    H126012   6.484   5.925  11.544 -0.5946  2.0856 -0.0589
 1507TIP3    H226013   6.479   5.918  11.695  1.4745 -0.4909 -0.0393
 1508TIP3   OH226014   4.838   6.309  11.127 -0.7362  0.1163 -0.8936
 1508TIP3    H126015   4.799   6.396  11.124  1.2472  1.0602 -1.1040
 1508TIP3    H226016   4.821   6.272  11.041  0.7937  1.4575 -1.8314
 1509TIP3   OH226017   4.362   4.020  15.010  0.0181 -0.0331  0.0337
 1509TIP3    H126018   4.347   3.996  15.101 -0.0754 -1.3875 -0.3238
 1509TIP3    H226019   4.372   4.115  15.012 -1.2435  0.1121  1.2830
 1510TIP3   OH226020   1.839   0.589   0.250  0.1694  0.4814 -0.0829
 1510TIP3    H126021   1.914   0.625   0.298  0.4714 -0.5024  0.2109
 1510TIP3    H226022   1.878   0.534   0.182 -0.2550  1.8139 -1.4603
 1511TIP3   OH226023   2.587   1.512   3.434 -0.3203 -0.2079  0.0033
 1511TIP3    H126024   2.610   1.422   3.455 -1.7620 -0.4629  0.5939
 1511TIP3    H226025   2.617   1.524   3.343  0.3087 -1.1046  0.0786
 1512TIP3   OH226026   3.419   6.084   5.751 -0.1345  0.1054  0.3053
 1512TIP3    H126027   3.405   6.100   5.657 -0.1849  0.0280  0.2999
 1512TIP3    H226028   3.349   6.132   5.794  0.1994  0.5775  0.3293
 1513TIP3   OH226029   4.965   1.442  16.702 -0.3229 -0.4625  0.4288
 1513TIP3    H126030   4.910   1.481  16.634  1.5739  0.6941 -0.5380
 1513TIP3    H226031   4.903   1.407  16.766 -2.1864  1.6344 -0.0788
 1514TIP3   OH226032   0.701   0.741   4.077 -0.2433 -0.2192  0.3540
 1514TIP3    H126033   0.689   0.829   4.043 -1.1977 -0.8424 -1.0659
 1514TIP3    H226034   0.792   0.719   4.055 -0.3388  0.0180 -0.3118
 1515TIP3   OH226035   1.790   1.474   2.627 -0.6212  0.3564  0.2323
 1515TIP3    H126036   1.781   1.529   2.704  0.2435 -0.3403  0.8573
 1515TIP3    H226037   1.718   1.412   2.633  0.0697 -0.3903  1.0909
 1516TIP3   OH226038   1.481   5.345   4.416  0.1267 -0.0178  0.9947
 1516TIP3    H126039   1.524   5.423   4.382 -2.2599  0.3533 -1.5555
 1516TIP3    H226040   1.553   5.288   4.443  2.4347  0.1591 -3.7451
 1517TIP3   OH226041   6.132   4.452   2.420  0.5995 -0.3607  0.0731
 1517TIP3    H126042   6.163   4.499   2.342  1.2973 -1.2948 -0.2360
 1517TIP3    H226043   6.039   4.435   2.403  0.3811  0.7520  0.1220
 1518TIP3   OH226044   2.570   1.072  14.102  0.1072 -0.0801  0.0950
 1518TIP3    H126045   2.647   1.110  14.061  1.2616 -1.4131  0.9261
 1518TIP3    H226046   2.579   0.978  14.086 -1.6837 -0.2214 -0.3089
 1519TIP3   OH226047   3.525   6.862  11.458 -0.3011 -0.8224 -0.1658
 1519TIP3    H126048   3.564   6.836  11.374  1.3551  0.2872  0.2263
 1519TIP3    H226049   3.560   6.949  11.475 -2.2046 -0.1716  0.7232
 1520TIP3   OH226050   1.565   5.008   2.537 -0.3915  0.9950  0.2049
 1520TIP3    H126051   1.595   4.962   2.615 -0.0203 -0.8801 -0.9693
 1520TIP3    H226052   1.496   4.952   2.501 -0.2086  1.5433 -1.0700
 1521TIP3   OH226053   0.257   3.629   4.272  0.5181  0.2514 -0.3280
 1521TIP3    H126054   0.219   3.706   4.315  0.8572  0.0774  0.3014
 1521TIP3    H226055   0.213   3.555   4.312 -0.6107  0.1294 -1.7266
 1522TIP3   OH226056   6.250   3.104   2.763 -0.7906 -0.6277  0.0903
 1522TIP3    H126057   6.274   3.029   2.709 -0.0665  0.2113 -0.7782
 1522TIP3    H226058   6.259   3.180   2.705 -1.4269  0.1440  0.9739
 1523TIP3   OH226059   4.259   3.133  16.998  0.2200 -0.5862 -0.4870
 1523TIP3    H126060   4.311   3.076  16.942 -0.9871 -0.6324 -1.6166
 1523TIP3    H226061   4.321   3.167  17.063  2.2245  1.1365 -3.0814
 1524TIP3   OH226062   4.598   3.284   6.078 -0.1658 -0.0013  0.1091
 1524TIP3    H126063   4.632   3.338   6.149  3.0157 -0.7370 -0.6828
 1524TIP3    H226064   4.645   3.201   6.086 -0.5922 -0.5348 -2.1024
 1525TIP3   OH226065   4.868   1.905  16.644 -0.2404 -0.8613 -0.5936
 1525TIP3    H126066   4.839   1.993  16.620  2.0813 -0.0818 -0.8727
 1525TIP3    H226067   4.881   1.909  16.739  1.9656 -0.1017 -0.8464
 1526TIP3   OH226068   1.046   5.418   1.679  0.2482  0.1435  0.2436
 1526TIP3    H126069   1.084   5.461   1.603  0.3285  0.2194  0.3261
 1526TIP3    H226070   0.965   5.466   1.696 -0.9975 -1.3159 -1.2059
 1527TIP3   OH226071   5.705   6.640   4.986 -0.1622  0.1568  0.4021
 1527TIP3    H126072   5.636   6.574   4.984  0.2630 -0.3280  1.2726
 1527TIP3    H226073   5.689   6.690   5.067 -0.1157  0.7274  0.0668
 1528TIP3   OH226074   6.140   3.471  14.243  0.9976  0.1618 -0.0719
 1528TIP3    H126075   6.206   3.540  14.249  1.0075  0.2802 -1.3478
 1528TIP3    H226076   6.130   3.455  14.149 -0.4806 -0.1593  0.1135
 1529TIP3   OH226077   1.857   0.649  12.788 -0.2692  0.1589 -0.5356
 1529TIP3    H126078   1.785   0.708  12.764  0.9401  1.7273 -0.4676
 1529TIP3    H226079   1.897   0.625  12.705  1.8774  2.9521 -0.4445
 1530TIP3   OH226080   1.113   4.912   0.160 -0.1104  0.0691 -0.1512
 1530TIP3    H126081   1.095   4.974   0.231 -0.7680  0.5831 -0.7550
 1530TIP3    H226082   1.059   4.836   0.181 -0.4079  0.2739 -0.1791
 1531TIP3   OH226083   0.746   0.088   4.733  0.6487  0.0689 -0.1510
 1531TIP3    H126084   0.818   0.121   4.786 -0.3129  1.8012  0.1303
 1531TIP3    H226085   0.693   0.036   4.794  0.3534  0.8060  0.2218
 1532TIP3   OH226086   2.294   0.621  11.951  0.2344 -0.0908  0.3921
 1532TIP3    H126087   2.320   0.533  11.980  1.5369 -0.0246 -0.4802
 1532TIP3    H226088   2.360   0.644  11.885 -0.2406  1.4451  0.4338
 1533TIP3   OH226089   4.053   6.602  13.572  0.1257  0.1864 -0.1872
 1533TIP3    H126090   4.093   6.654  13.502 -0.5551 -0.3470 -1.0093
 1533TIP3    H226091   4.120   6.594  13.639  1.2304 -0.3179 -1.3284
 1534TIP3   OH226092   6.874   4.678   1.495 -0.7356  0.0342  0.4094
 1534TIP3    H126093   6.808   4.626   1.450 -0.3688  0.2389 -0.3924
 1534TIP3    H226094   6.945   4.616   1.514 -0.0217  0.3143 -1.1062
 1535TIP3   OH226095   0.545   0.680   2.876  0.0771  0.0887 -0.2030
 1535TIP3    H126096   0.608   0.742   2.913 -0.1210  0.1027  0.1110
 1535TIP3    H226097   0.461   0.724   2.883 -0.2755 -0.7599  1.2985
 1536TIP3   OH226098   2.574   0.892   0.220  0.1957  0.5611  1.1143
 1536TIP3    H126099   2.658   0.932   0.199 -0.9950  2.6008 -0.0448
 1536TIP3    H226100   2.544   0.938   0.298 -0.4715  0.8331  0.7058
 1537TIP3   OH226101   4.453   5.127  14.944 -0.1942 -0.0896  0.2623
 1537TIP3    H126102   4.457   5.045  14.894  1.9198  0.6711 -0.9871
 1537TIP3    H226103   4.539   5.134  14.985 -0.3309  1.4926  0.3371
 1538TIP3   OH226104   3.964   3.217   4.157 -0.0299 -0.1446  0.6314
 1538TIP3    H126105   3.924   3.250   4.077 -0.5559 -1.7381  0.2029
 1538TIP3    H226106   3.988   3.295   4.206  0.5335  0.8698 -1.1828
 1539TIP3   OH226107   5.348   4.751  15.124 -0.0599 -0.0272 -0.2619
 1539TIP3    H126108   5.352   4.836  15.080 -2.1933  0.6800  0.7418
 1539TIP3    H226109   5.255   4.740  15.146  0.2504 -2.3724  0.1585
 1540TIP3   OH226110   6.069   5.683  13.739 -0.4916  0.2996  0.5850
 1540TIP3    H126111   6.055   5.594  13.770  0.0730 -0.4496 -1.1686
 1540TIP3    H226112   5.982   5.720  13.728 -0.9387 -1.1956 -1.7023
 1541TIP3   OH226113   2.063   4.373   4.280  0.6570  0.8683  0.2776
 1541TIP3    H126114   2.140   4.389   4.226  0.4721 -0.4237 -0.4093
 1541TIP3    H226115   2.029   4.289   4.250 -1.5738  1.8193 -0.0877
 1542TIP3   OH226116   5.273   2.464   0.373 -0.0607  0.0550 -0.1822
 1542TIP3    H126117   5.308   2.465   0.284 -0.4414 -1.0012 -0.3623
 1542TIP3    H226118   5.179   2.480   0.363  0.0252  0.7737  0.1106
 1543TIP3   OH226119   4.229   5.348   5.105  0.4572  0.2965 -0.3778
 1543TIP3    H126120   4.263   5.437   5.112  0.3905  0.4581 -1.9229
 1543TIP3    H226121   4.213   5.322   5.196  1.7314  1.3624  0.1916
 1544TIP3   OH226122   1.356   1.304  16.154  0.0241  0.0663  0.7819
 1544TIP3    H126123   1.375   1.394  16.127 -2.1647  0.2720 -0.2704
 1544TIP3    H226124   1.262   1.304  16.173 -0.5075 -2.4984 -1.3611
 1545TIP3   OH226125   0.169   6.037   4.482  0.2364 -0.2969  0.4773
 1545TIP3    H126126   0.191   6.087   4.561 -0.3862  0.1523  0.3766
 1545TIP3    H226127   0.234   6.065   4.417 -0.7558  1.2521  0.0880
 1546TIP3   OH226128   0.214   3.306   0.382 -0.5392  0.1086  0.2427
 1546TIP3    H126129   0.171   3.391   0.382 -0.2106  0.2949 -0.7555
 1546TIP3    H226130   0.274   3.310   0.307 -1.7661 -1.6104 -0.9037
 1547TIP3   OH226131   4.337   4.861  15.131 -0.5554 -0.3709  1.3429
 1547TIP3    H126132   4.430   4.878  15.146  0.1661 -2.3597 -0.4169
 1547TIP3    H226133   4.325   4.768  15.151 -1.4515 -0.9009 -1.2421
 1548TIP3   OH226134   1.452   5.523  16.030 -0.4098  0.7218  0.1499
 1548TIP3    H126135   1.479   5.534  15.939 -0.6631 -1.0326 -0.1712
 1548TIP3    H226136   1.377   5.582  16.040  0.1242  1.5367 -0.5175
 1549TIP3   OH226137   5.972   6.771   0.182 -0.6331 -0.3112  0.3595
 1549TIP3    H126138   5.958   6.854   0.136 -1.1667  0.2913  1.5666
 1549TIP3    H226139   6.067   6.767   0.195 -0.5384 -0.2058 -0.2598
 1550TIP3   OH226140   3.231   2.218  13.997 -0.0661  0.1431  1.0883
 1550TIP3    H126141   3.271   2.155  14.057 -2.2488 -2.4950 -0.0111
 1550TIP3    H226142   3.167   2.166  13.947  0.4422  2.5211 -2.3528
 1551TIP3   OH226143   2.354   6.165  16.066 -0.3321  0.1709  0.1866
 1551TIP3    H126144   2.271   6.128  16.037 -1.4683  1.9304  0.9900
 1551TIP3    H226145   2.343   6.260  16.055  1.3754  0.4832  0.8153
 1552TIP3   OH226146   6.102   2.686  15.836 -0.5195  0.0717  0.1196
 1552TIP3    H126147   6.187   2.712  15.801 -0.3220 -0.8472 -0.1268
 1552TIP3    H226148   6.057   2.644  15.762  0.9113 -4.2969  1.4122
 1553TIP3   OH226149   5.140   5.596  12.420  0.1766  0.1657 -0.1882
 1553TIP3    H126150   5.066   5.656  12.412 -0.9824 -1.3249 -1.0415
 1553TIP3    H226151   5.101   5.509  12.411  1.9844 -0.6725 -0.1964
 1554TIP3   OH226152   5.743   5.859  13.404  0.2010  0.3324 -0.0634
 1554TIP3    H126153   5.676   5.877  13.470 -0.5450  2.0926 -1.2375
 1554TIP3    H226154   5.826   5.879  13.448 -0.1424 -0.1990  0.8628
 1555TIP3   OH226155   0.688   0.227  12.888  0.4878 -0.0094 -0.0916
 1555TIP3    H126156   0.781   0.210  12.901  0.0868 -1.5694  0.9128
 1555TIP3    H226157   0.645   0.144  12.905 -0.9776  0.2054 -2.2555
 1556TIP3   OH226158   0.019   1.981   4.311  0.2296 -0.4986  0.1719
 1556TIP3    H126159   0.087   2.024   4.260  1.2458 -0.3840  1.5759
 1556TIP3    H226160   0.029   1.888   4.290  0.3676 -0.4198 -0.1240
 1557TIP3   OH226161   2.957   2.942  11.840 -0.6169 -0.8794 -0.6999
 1557TIP3    H126162   2.905   2.890  11.779  0.1694 -1.0981 -1.1985
 1557TIP3    H226163   2.957   2.892  11.921 -1.2611 -0.8259 -0.6606
 1558TIP3   OH226164   5.281   2.632  13.992  0.6584  0.0317 -0.1779
 1558TIP3    H126165   5.260   2.700  14.056  1.3070  1.4936 -1.4363
 1558TIP3    H226166   5.257   2.550  14.034  0.2106  1.0134  1.5565
 1559TIP3   OH226167   4.661   6.721   6.106  0.1925 -0.2163 -0.3758
 1559TIP3    H126168   4.691   6.686   6.189  0.0190  2.7032  1.0477
 1559TIP3    H226169   4.704   6.806   6.099 -0.7047  0.1232 -2.7199
 1560TIP3   OH226170   5.296   0.167  16.605  0.7121  0.1863  0.2071
 1560TIP3    H126171   5.264   0.178  16.516  0.3754 -0.1942  0.2801
 1560TIP3    H226172   5.364   0.234  16.614  1.5381 -0.4953 -0.7001
 1561TIP3   OH226173   1.855   5.855   3.718 -0.1355 -0.0272 -0.3697
 1561TIP3    H126174   1.764   5.825   3.713  0.2656 -1.1614 -1.1809
 1561TIP3    H226175   1.851   5.948   3.695 -1.0939 -0.0486 -0.3164
 1562TIP3   OH226176   5.940   5.061  11.394 -0.0417 -0.0081 -0.0242
 1562TIP3    H126177   5.981   5.000  11.332 -0.7523 -1.3166  0.7510
 1562TIP3    H226178   5.910   5.006  11.466  0.3301  1.4301  1.2703
 1563TIP3   OH226179   6.036   5.749  14.270  0.0698  0.2830 -0.2209
 1563TIP3    H126180   5.954   5.702  14.256 -0.0799  0.6340 -0.5478
 1563TIP3    H226181   6.060   5.781  14.183 -1.0769  2.8439  0.3311
 1564TIP3   OH226182   1.778   2.664   4.655  0.2917 -0.4561  0.6485
 1564TIP3    H126183   1.837   2.617   4.595 -0.2723 -2.6211  1.7088
 1564TIP3    H226184   1.823   2.662   4.739 -0.4054 -0.3395  1.0269
 1565TIP3   OH226185   4.009   3.759   2.853  0.6508 -0.6526 -0.3974
 1565TIP3    H126186   3.966   3.679   2.821  0.2314 -0.8334  0.6074
 1565TIP3    H226187   4.048   3.734   2.936 -0.2513  0.4259  0.3751
 1566TIP3   OH226188   0.959   3.626   6.128 -0.2173 -0.2477  0.4271
 1566TIP3    H126189   0.879   3.610   6.178  0.0796  1.0338  1.3686
 1566TIP3    H226190   1.029   3.602   6.187  0.1558  1.7854  0.8832
 1567TIP3   OH226191   1.664   1.710  13.595  0.3451  0.3850 -0.9698
 1567TIP3    H126192   1.729   1.764  13.640  1.2120 -0.8600 -0.6730
 1567TIP3    H226193   1.651   1.635  13.654  0.9393 -0.9060 -2.4257
 1568TIP3   OH226194   3.093   1.319   4.203  0.1092 -0.0855  0.2458
 1568TIP3    H126195   3.089   1.315   4.299  0.8590 -0.6771  0.2635
 1568TIP3    H226196   3.166   1.261   4.180  0.4454  0.6666 -0.6343
 1569TIP3   OH226197   6.016   3.929  15.982  0.4349  0.1074  0.4215
 1569TIP3    H126198   6.048   4.007  16.026 -0.8961  0.0679  1.5191
 1569TIP3    H226199   5.921   3.928  15.999 -0.0367 -0.2969 -1.8562
 1570TIP3   OH226200   3.227   2.395  15.031  0.1687  0.8580  0.0828
 1570TIP3    H126201   3.315   2.395  14.993  0.6901  1.2892  1.2650
 1570TIP3    H226202   3.235   2.447  15.110 -0.3622 -1.7620  1.9981
 1571TIP3   OH226203   2.625   5.860  14.970 -0.1838  0.5209 -0.1100
 1571TIP3    H126204   2.584   5.786  14.925  2.1855 -0.3604 -0.9878
 1571TIP3    H226205   2.626   5.835  15.062 -0.0663 -0.2368 -0.3077
 1572TIP3   OH226206   2.434   4.655  13.547  0.7338  0.3204  0.1298
 1572TIP3    H126207   2.417   4.635  13.455  0.9363  1.1763 -0.1036
 1572TIP3    H226208   2.362   4.613  13.594  0.2096  0.5032 -0.4896
 1573TIP3   OH226209   5.464   4.578  14.755 -0.3862 -0.5227  0.0129
 1573TIP3    H126210   5.399   4.538  14.697 -1.2335 -0.2646  0.7557
 1573TIP3    H226211   5.422   4.579  14.841  0.8192 -0.8396  0.6344
 1574TIP3   OH226212   4.571   6.037   5.740  0.1390 -0.7715  0.2571
 1574TIP3    H126213   4.625   6.104   5.781  1.2937  0.4890 -3.0046
 1574TIP3    H226214   4.622   5.957   5.749  0.7386 -0.3689  0.5224
 1575TIP3   OH226215   2.279   4.679  12.511  0.0360 -0.0527 -0.1640
 1575TIP3    H126216   2.328   4.607  12.472  2.1365  1.3847 -0.3181
 1575TIP3    H226217   2.301   4.676  12.604  0.4266  0.5707 -0.2259
 1576TIP3   OH226218   3.507   3.773   1.914  0.4950 -0.0665  0.3950
 1576TIP3    H126219   3.420   3.814   1.916  0.2761 -0.5504  1.1666
 1576TIP3    H226220   3.565   3.843   1.885 -0.0427  0.4780  0.6007
 1577TIP3   OH226221   6.827   1.702  10.386 -0.1677  0.2441 -0.1826
 1577TIP3    H126222   6.746   1.750  10.370  0.0665  0.0306 -2.2512
 1577TIP3    H226223   6.833   1.697  10.482 -1.5732  1.9568  0.0481
 1578TIP3   OH226224   6.037   5.539   1.278 -0.3669 -0.1799 -0.5813
 1578TIP3    H126225   5.996   5.488   1.348  1.0489  0.3696  0.7103
 1578TIP3    H226226   5.991   5.511   1.198 -1.4922 -1.4140  0.4375
 1579TIP3   OH226227   1.138   4.912   2.820  0.5021 -0.2864  0.8474
 1579TIP3    H126228   1.071   4.868   2.873  1.2732 -1.7233  0.6867
 1579TIP3    H226229   1.115   4.891   2.730 -0.8020  2.1463  0.5212
 1580TIP3   OH226230   2.369   1.612   5.123 -0.2312  0.0390 -0.4375
 1580TIP3    H126231   2.414   1.690   5.155 -1.5157  0.2354  1.0199
 1580TIP3    H226232   2.438   1.547   5.112  0.5119  0.5369  1.0437
 1581TIP3   OH226233   6.554   1.258   5.097 -0.3349 -0.1231  0.1134
 1581TIP3    H126234   6.472   1.270   5.146  0.5857  1.6535  1.2919
 1581TIP3    H226235   6.542   1.309   5.017 -0.2137  0.5248  0.5043
 1582TIP3   OH226236   3.208   1.344   0.534  0.0578  0.2494 -0.0656
 1582TIP3    H126237   3.224   1.352   0.439 -2.0264  0.4488 -0.4501
 1582TIP3    H226238   3.294   1.322   0.571  1.0388  0.7278 -1.9252
 1583TIP3   OH226239   4.856   5.432  13.251 -0.1306 -0.4076  0.4601
 1583TIP3    H126240   4.769   5.472  13.245 -0.2047 -0.5693  0.4460
 1583TIP3    H226241   4.915   5.505  13.271 -0.5286 -0.5814  2.4105
 1584TIP3   OH226242   0.820   3.429  12.560  0.1900  0.3895 -0.0027
 1584TIP3    H126243   0.849   3.341  12.538  0.3710  0.2818  0.6492
 1584TIP3    H226244   0.768   3.457  12.484  1.3464  0.2942 -0.8496
 1585TIP3   OH226245   4.623   1.305   1.164  0.2841  0.9251 -0.2327
 1585TIP3    H126246   4.551   1.289   1.103  2.0225 -1.1206 -1.9063
 1585TIP3    H226247   4.613   1.237   1.231  0.9939  0.2117 -0.8345
 1586TIP3   OH226248   1.797   2.099   0.151 -0.2856  0.3476 -0.1471
 1586TIP3    H126249   1.704   2.109   0.133  0.0195  2.1177 -1.0481
 1586TIP3    H226250   1.802   2.090   0.247 -1.3251  1.5779  0.0617
 1587TIP3   OH226251   5.635   0.556   3.887  0.2911 -0.4818  0.2096
 1587TIP3    H126252   5.592   0.509   3.816 -0.9868  2.1934 -0.9266
 1587TIP3    H226253   5.632   0.648   3.861 -2.6370  1.0553  4.8002
 1588TIP3   OH226254   2.140   2.204  14.925 -0.0539  0.0666  0.4264
 1588TIP3    H126255   2.172   2.188  15.014 -0.1065 -1.3426  0.2178
 1588TIP3    H226256   2.187   2.282  14.896 -0.5401  0.9646  1.9264
 1589TIP3   OH226257   1.773   2.288   2.447  0.1525 -0.0586  0.6444
 1589TIP3    H126258   1.844   2.293   2.511  1.3767 -0.7088 -0.6009
 1589TIP3    H226259   1.757   2.194   2.435  0.7464 -0.0149 -0.7953
 1590TIP3   OH226260   1.629   1.405  11.552 -0.5241  0.1811  0.3671
 1590TIP3    H126261   1.632   1.398  11.647 -0.1066 -1.5623  0.2610
 1590TIP3    H226262   1.705   1.459  11.529 -0.4753  0.3888  0.9991
 1591TIP3   OH226263   2.177   2.314  11.898  0.3802  0.2536  0.3431
 1591TIP3    H126264   2.169   2.409  11.886  0.8212  0.5137  1.8337
 1591TIP3    H226265   2.271   2.299  11.906  0.3399 -0.3848 -0.3115
 1592TIP3   OH226266   4.428   2.508   2.870 -0.6413  0.1223 -0.2554
 1592TIP3    H126267   4.499   2.563   2.902  1.0703 -2.6033  0.9355
 1592TIP3    H226268   4.456   2.481   2.783 -0.5094 -0.4212 -0.0492
 1593TIP3   OH226269   1.888   4.216  16.807  0.1775 -0.2426  0.3792
 1593TIP3    H126270   1.796   4.209  16.832  0.0885  1.6028  0.6639
 1593TIP3    H226271   1.886   4.243  16.715  0.3222  2.6384  1.1308
 1594TIP3   OH226272   6.100   2.538  14.011  0.1682 -0.1929  0.6702
 1594TIP3    H126273   6.050   2.460  13.986 -0.9615  0.4048  0.9991
 1594TIP3    H226274   6.084   2.600  13.940  2.3938 -0.7773 -0.4349
 1595TIP3   OH226275   2.943   3.716  10.492  0.3963  0.0973 -0.4521
 1595TIP3    H126276   2.920   3.769  10.415 -0.6764  0.9128  0.3938
 1595TIP3    H226277   3.008   3.769  10.538 -0.5838  0.6561  0.3284
 1596TIP3   OH226278   1.348   5.838   6.727 -0.0604  0.1006  0.0590
 1596TIP3    H126279   1.384   5.921   6.695 -0.3623 -0.0262 -0.6088
 1596TIP3    H226280   1.275   5.819   6.668  1.0267 -1.4966 -0.8338
 1597TIP3   OH226281   2.174   4.386  12.223 -0.2239 -0.0099  0.8932
 1597TIP3    H126282   2.080   4.399  12.231 -0.2746 -0.5366  1.1976
 1597TIP3    H226283   2.206   4.465  12.179 -0.8241  0.1062  0.6622
 1598TIP3   OH226284   1.746   5.737   0.224  0.1946  0.1324 -0.6236
 1598TIP3    H126285   1.728   5.645   0.238  0.1348  0.5956  3.7466
 1598TIP3    H226286   1.835   5.739   0.189  1.8369 -1.6793  2.9281
 1599TIP3   OH226287   3.770   3.406  14.032  0.2244 -0.0917  0.2798
 1599TIP3    H126288   3.708   3.337  14.054 -0.4191  0.4977  0.3357
 1599TIP3    H226289   3.725   3.488  14.055  1.9152  0.2909  2.6304
 1600TIP3   OH226290   4.974   6.869  17.027 -0.1345  0.1118 -0.8070
 1600TIP3    H126291   4.966   6.815  16.949  0.4593  0.9097 -1.4384
 1600TIP3    H226292   4.886   6.904  17.042  0.2918  2.3068 -2.8759
 1601TIP3   OH226293   1.911   2.617  14.188  0.2696  0.4179  0.6271
 1601TIP3    H126294   1.912   2.648  14.278 -0.6096  2.1447  0.0753
 1601TIP3    H226295   1.992   2.652  14.150  1.7555 -2.0680  1.2305
 1602TIP3   OH226296   1.361   5.380   6.161 -0.4690 -0.1762  0.5212
 1602TIP3    H126297   1.380   5.464   6.202 -2.5499  0.3727  0.4394
 1602TIP3    H226298   1.270   5.386   6.132 -0.8665 -2.6530  1.0005
 1603TIP3   OH226299   5.013   1.090   0.842  0.3410  0.3409  0.6815
 1603TIP3    H126300   4.958   1.076   0.920 -0.9256 -0.9979 -0.3972
 1603TIP3    H226301   5.102   1.076   0.874 -0.0906  0.4724  2.0284
 1604TIP3   OH226302   3.687   5.734   3.242  0.2368 -0.0195  0.3395
 1604TIP3    H126303   3.779   5.741   3.218  0.2692 -0.0760  0.4429
 1604TIP3    H226304   3.645   5.693   3.167  0.2991 -0.0089  0.2991
 1605TIP3   OH226305   3.454   2.640   4.912 -0.2772  0.0148  0.4423
 1605TIP3    H126306   3.414   2.598   4.836  0.3302 -0.8592  0.5916
 1605TIP3    H226307   3.480   2.567   4.968 -0.9965  0.6415  1.6462
 1606TIP3   OH226308   1.833   4.719  13.736  0.4752 -0.4866 -0.0511
 1606TIP3    H126309   1.809   4.627  13.752 -0.6644 -0.2675 -0.3927
 1606TIP3    H226310   1.784   4.742  13.657  1.7847  0.0356 -0.7426
 1607TIP3   OH226311   4.951   5.189   4.199 -0.0154  0.0885 -0.7828
 1607TIP3    H126312   5.037   5.172   4.239 -0.7800 -0.1807  0.8145
 1607TIP3    H226313   4.957   5.278   4.167  1.4470 -0.5049 -2.3027
 1608TIP3   OH226314   1.609   3.227  14.637  0.7769 -0.1634  0.2248
 1608TIP3    H126315   1.524   3.188  14.660 -0.7306  1.5761 -1.9519
 1608TIP3    H226316   1.632   3.185  14.554  2.3276 -0.9502  1.0230
 1609TIP3   OH226317   6.450   4.891   4.299  0.4079  0.7487  0.1272
 1609TIP3    H126318   6.521   4.955   4.309  0.1398  0.8456  1.6394
 1609TIP3    H226319   6.424   4.870   4.388  0.2948 -1.2851 -0.3396
 1610TIP3   OH226320   0.099   5.433   0.483 -0.7921  0.1701  0.5008
 1610TIP3    H126321   0.151   5.453   0.561  0.6389 -0.2476 -0.3101
 1610TIP3    H226322   0.044   5.359   0.509 -1.2721  0.8346  1.4773
 1611TIP3   OH226323   3.964   4.816  15.196  0.7661 -0.0869  0.1871
 1611TIP3    H126324   3.931   4.856  15.116  0.6431  1.0014  0.7589
 1611TIP3    H226325   3.934   4.874  15.266  1.4196 -0.6617  0.9667
 1612TIP3   OH226326   2.991   0.622  12.865  0.1617 -0.5489 -0.4166
 1612TIP3    H126327   3.011   0.660  12.950 -1.4283 -3.0242  1.1802
 1612TIP3    H226328   3.014   0.690  12.802  0.9048  1.5551  1.9913
 1613TIP3   OH226329   3.103   5.572   2.637  0.0789 -0.0321 -0.3837
 1613TIP3    H126330   3.166   5.572   2.708  0.0438 -0.0392 -0.3521
 1613TIP3    H226331   3.039   5.639   2.662 -0.1390 -0.2984 -0.2252
 1614TIP3   OH226332   2.599   4.685  12.268  0.1216  0.2212 -0.7296
 1614TIP3    H126333   2.549   4.610  12.299 -0.5631  1.4931  1.5092
 1614TIP3    H226334   2.549   4.761  12.300  2.7135  1.5676  0.4136
 1615TIP3   OH226335   1.450   0.723   2.736  0.1680 -0.9235 -0.0805
 1615TIP3    H126336   1.526   0.669   2.715 -0.9873 -2.2259 -1.1321
 1615TIP3    H226337   1.375   0.672   2.705 -1.1722  0.1772  1.1869
 1616TIP3   OH226338   0.837   4.858  16.900 -0.1379 -0.9369  0.4037
 1616TIP3    H126339   0.888   4.778  16.911  1.1273 -0.3899 -1.0025
 1616TIP3    H226340   0.898   4.919  16.858 -1.6672  0.0891 -0.4224
 1617TIP3   OH226341   2.022   0.062  13.821  0.0344  0.0013 -0.2525
 1617TIP3    H126342   2.115   0.046  13.809  0.0533 -1.0225  1.0184
 1617TIP3    H226343   1.982  -0.024  13.814 -1.0712  0.6191 -2.4908
 1618TIP3   OH226344   4.947   0.125  12.962  0.1683  0.5728  0.2612
 1618TIP3    H126345   4.954   0.185  12.889 -1.1287  0.2804 -0.1369
 1618TIP3    H226346   4.853   0.106  12.969  0.4230 -0.5394  1.0679
 1619TIP3   OH226347   5.682   5.147   3.879 -0.6622  0.5235  0.2050
 1619TIP3    H126348   5.739   5.074   3.858 -0.4496  0.5370  0.7327
 1619TIP3    H226349   5.689   5.205   3.803 -0.5027  0.2029 -0.0273
 1620TIP3   OH226350   3.023   1.114   3.235 -0.2879  0.1065  0.3614
 1620TIP3    H126351   2.975   1.083   3.312 -0.5235 -0.9458 -0.1944
 1620TIP3    H226352   2.983   1.068   3.162  0.8302  0.0601 -0.2397
 1621TIP3   OH226353   1.821   6.638   4.887 -0.5720 -0.1736  0.0516
 1621TIP3    H126354   1.900   6.682   4.918 -0.1133  0.9721 -2.5071
 1621TIP3    H226355   1.766   6.708   4.854 -1.3303 -1.2117 -0.9842
 1622TIP3   OH226356   1.760   3.035  13.678  0.2455 -0.2947 -0.1813
 1622TIP3    H126357   1.664   3.038  13.678  0.2289 -0.6652 -0.5757
 1622TIP3    H226358   1.783   2.985  13.756  0.1356  0.1878  0.1639
 1623TIP3   OH226359   2.825   0.385  13.094 -0.0348  0.7430  0.2865
 1623TIP3    H126360   2.784   0.470  13.106 -0.1722  0.8733 -0.9557
 1623TIP3    H226361   2.754   0.322  13.107  0.1179  0.7826  1.4476
 1624TIP3   OH226362   3.139   0.957   1.344  0.5621 -0.5107  0.2943
 1624TIP3    H126363   3.058   0.918   1.310 -0.7049  0.6014  1.8701
 1624TIP3    H226364   3.137   1.048   1.315 -0.0297  0.1790  2.3364
 1625TIP3   OH226365   5.501   2.042   0.372 -0.1001  0.0381 -0.4487
 1625TIP3    H126366   5.569   1.988   0.412  0.3025  0.7654 -0.1371
 1625TIP3    H226367   5.459   1.984   0.308  2.1663  0.1230 -2.1670
 1626TIP3   OH226368   1.319   4.227   0.647  0.0420 -0.3407  0.2495
 1626TIP3    H126369   1.300   4.206   0.556 -0.8174 -1.7507  0.7257
 1626TIP3    H226370   1.286   4.316   0.658  1.9634  0.6372 -1.3152
 1627TIP3   OH226371   1.246   1.411   1.027 -0.0003  0.1757 -0.4595
 1627TIP3    H126372   1.261   1.359   1.105  3.1151  0.5166 -0.7078
 1627TIP3    H226373   1.225   1.498   1.060  1.3836  0.3377  0.0766
 1628TIP3   OH226374   0.011   3.534   1.508 -0.0450  0.4899 -0.3923
 1628TIP3    H126375   0.068   3.471   1.464  2.4546  3.0632 -1.0799
 1628TIP3    H226376  -0.009   3.494   1.592  2.3836 -0.7748 -0.3311
 1629TIP3   OH226377   3.061   0.926  10.658 -0.3955 -0.1265 -0.2608
 1629TIP3    H126378   2.977   0.964  10.685 -0.7266 -1.1229  0.1839
 1629TIP3    H226379   3.076   0.958  10.570  0.9263  3.6326  1.1514
 1630TIP3   OH226380   3.800   3.614   4.914 -0.2540  0.1439 -0.5331
 1630TIP3    H126381   3.788   3.520   4.930  1.7581 -0.1179 -0.3588
 1630TIP3    H226382   3.892   3.631   4.936 -0.1417  1.8295 -2.0967
 1631TIP3   OH226383   6.071   2.917   2.080 -0.1311  0.0988 -0.5644
 1631TIP3    H126384   6.061   2.869   2.162 -1.4785 -0.8916 -1.2714
 1631TIP3    H226385   5.982   2.941   2.055  0.3835  1.5545 -1.0642
 1632TIP3   OH226386   5.195   5.478   0.971  0.1963  0.2903 -0.3956
 1632TIP3    H126387   5.280   5.521   0.959  0.3686 -0.4725 -2.2796
 1632TIP3    H226388   5.156   5.478   0.884 -0.5038 -1.8863 -0.1451
 1633TIP3   OH226389   2.491   6.729  12.735 -0.4544  0.1816 -0.6038
 1633TIP3    H126390   2.418   6.765  12.685 -1.4379  0.9439  1.2689
 1633TIP3    H226391   2.569   6.768  12.696 -1.2571  1.6352 -0.8333
 1634TIP3   OH226392   4.135   1.939  13.439 -0.3080  0.6028  0.5376
 1634TIP3    H126393   4.150   1.977  13.352  0.0264  2.1307  1.2385
 1634TIP3    H226394   4.223   1.923  13.473 -0.2312 -4.4300 -1.1431
 1635TIP3   OH226395   4.349   2.768   4.774  0.2979 -0.4243  0.5208
 1635TIP3    H126396   4.361   2.678   4.803  0.5145  0.0116  1.8816
 1635TIP3    H226397   4.396   2.820   4.839 -2.6975  0.8848  1.8509
 1636TIP3   OH226398   0.666   5.833  12.230 -0.3135 -0.0109  0.0208
 1636TIP3    H126399   0.599   5.876  12.175  0.0688  0.7077  0.0975
 1636TIP3    H226400   0.621   5.759  12.269 -1.5653  1.3685  1.3575
 1637TIP3   OH226401   2.569   5.063  11.883 -0.0451 -0.0511  0.7855
 1637TIP3    H126402   2.575   4.975  11.920  0.0470 -0.9180 -1.1595
 1637TIP3    H226403   2.653   5.104  11.901  0.9240 -1.3600 -0.5856
 1638TIP3   OH226404   3.572   2.201   1.677  0.1144  0.7442  0.5922
 1638TIP3    H126405   3.597   2.117   1.716  1.7708  0.4693 -0.9049
 1638TIP3    H226406   3.497   2.180   1.621  2.8849 -0.8258 -3.0300
 1639TIP3   OH226407   3.466   5.839   2.821 -0.1785 -0.2985 -0.2399
 1639TIP3    H126408   3.481   5.749   2.851 -1.2973 -0.3948  0.1061
 1639TIP3    H226409   3.483   5.893   2.898 -0.1641 -0.2807 -0.2559
 1640TIP3   OH226410   5.839   3.150  10.817  0.4737 -0.2072  0.2138
 1640TIP3    H126411   5.922   3.198  10.820  0.3749 -0.0094 -0.1662
 1640TIP3    H226412   5.861   3.062  10.850  0.6442  0.1104  0.9604
 1641TIP3   OH226413   3.049   3.026   4.533 -0.2933 -0.3050 -0.2677
 1641TIP3    H126414   3.141   3.003   4.548  0.2857  1.8570 -0.1251
 1641TIP3    H226415   3.001   2.945   4.547  1.5013 -1.2796  0.5697
 1642TIP3   OH226416   5.956   6.692  12.983  0.3583 -0.1587  0.1094
 1642TIP3    H126417   5.952   6.697  12.887 -0.6999 -0.5027  0.1138
 1642TIP3    H226418   5.911   6.610  13.004 -1.3615  0.9340  0.9772
 1643TIP3   OH226419   3.606   3.622  12.451 -0.2805 -0.2951  0.2060
 1643TIP3    H126420   3.517   3.653  12.467 -0.0763  0.0542  0.6677
 1643TIP3    H226421   3.625   3.563  12.524  0.2863  0.5338  0.7450
 1644TIP3   OH226422   2.851   4.693   4.146 -0.0968 -0.6476  0.1232
 1644TIP3    H126423   2.869   4.599   4.140  1.1472 -0.3813 -0.7052
 1644TIP3    H226424   2.936   4.734   4.133 -0.4547  0.5879  1.4415
 1645TIP3   OH226425   2.270   5.640  13.690 -0.4281 -0.1758  0.1490
 1645TIP3    H126426   2.234   5.560  13.728 -0.7948  0.5887  1.4508
 1645TIP3    H226427   2.250   5.632  13.596  1.3932 -2.5655 -0.1321
 1646TIP3   OH226428   1.709   2.086  11.063 -0.3737 -0.4058 -0.2201
 1646TIP3    H126429   1.617   2.099  11.086 -0.4928 -1.2313 -0.1787
 1646TIP3    H226430   1.716   2.115  10.972 -0.9975 -1.6063 -0.6753
 1647TIP3   OH226431   5.511   0.231  11.312 -0.0128 -0.7898 -0.0903
 1647TIP3    H126432   5.509   0.154  11.369 -1.7586 -1.4668 -1.0150
 1647TIP3    H226433   5.435   0.283  11.338  0.0041 -0.3762 -0.8393
 1648TIP3   OH226434   4.090   2.988  16.007 -0.1459  0.0986 -0.2996
 1648TIP3    H126435   4.144   2.914  16.035  0.2642  0.2161 -0.7503
 1648TIP3    H226436   4.015   2.988  16.067  0.0782 -0.4030 -0.0135
 1649TIP3   OH226437   6.278   5.996   1.802 -0.5067 -0.0257 -0.3357
 1649TIP3    H126438   6.274   6.053   1.879 -2.3470 -0.4630 -0.0598
 1649TIP3    H226439   6.322   6.049   1.735  1.8696  0.0805  1.2115
 1650TIP3   OH226440   5.956   4.351  11.463  0.7382  0.3574  0.0265
 1650TIP3    H126441   5.983   4.318  11.377  1.4326  1.0810 -0.0459
 1650TIP3    H226442   5.957   4.273  11.519 -2.7363 -0.7825 -1.2343
 1651TIP3   OH226443   5.652   1.027   4.304  0.7435  0.2487  0.3351
 1651TIP3    H126444   5.575   1.018   4.247  0.6683  3.2865 -0.2070
 1651TIP3    H226445   5.727   1.012   4.245  0.6127  0.2473  0.1672
 1652TIP3   OH226446   5.705   0.629   4.433 -0.0397  0.2612 -0.1584
 1652TIP3    H126447   5.610   0.616   4.430 -0.1500  0.9074  0.2529
 1652TIP3    H226448   5.717   0.707   4.488  0.6127  1.4132 -1.8364
 1653TIP3   OH226449   5.368   4.942  12.643  0.6552 -0.0874 -0.0068
 1653TIP3    H126450   5.310   4.876  12.604  0.0033  0.9986 -0.9336
 1653TIP3    H226451   5.412   4.981  12.568 -0.3475  1.8083  0.3505
 1654TIP3   OH226452   4.758   2.837  12.099 -0.2624  0.3014  0.4203
 1654TIP3    H126453   4.825   2.842  12.031 -0.3882 -1.9293  0.0509
 1654TIP3    H226454   4.680   2.875  12.058  0.0210  0.2426 -0.1948
 1655TIP3   OH226455   6.855   5.538  10.446 -0.6471 -0.3046  0.0767
 1655TIP3    H126456   6.855   5.497  10.532  0.5608  0.2398  0.3547
 1655TIP3    H226457   6.947   5.543  10.421 -0.9159  0.3697 -0.8467
 1656TIP3   OH226458   4.609   1.308   1.657  0.4789 -0.2535  0.2885
 1656TIP3    H126459   4.545   1.367   1.697  0.6882 -0.8996  1.6265
 1656TIP3    H226460   4.684   1.364   1.637 -0.1903  0.3621 -0.5932
 1657TIP3   OH226461   2.529   0.319   0.263 -0.0855 -0.0366  0.2775
 1657TIP3    H126462   2.533   0.311   0.359  0.9486 -0.5969  0.1998
 1657TIP3    H226463   2.493   0.407   0.248  0.2267  0.2587  1.1816
 1658TIP3   OH226464   1.007   0.969   6.470  0.2625  0.2671  0.1669
 1658TIP3    H126465   1.011   0.907   6.397 -1.8646  0.8393 -0.5083
 1658TIP3    H226466   0.934   1.027   6.448  1.6419  2.5264  1.1702
 1659TIP3   OH226467   1.326   0.602  12.270  0.6985  0.5543 -0.2176
 1659TIP3    H126468   1.382   0.551  12.212 -0.7420  1.6998 -2.7449
 1659TIP3    H226469   1.347   0.693  12.250  1.1578  1.0405  2.1429
 1660TIP3   OH226470   6.365   1.436  15.603 -0.0688  0.2936  0.4250
 1660TIP3    H126471   6.365   1.342  15.624 -2.1721 -0.2995 -1.7549
 1660TIP3    H226472   6.291   1.471  15.653 -0.0799  0.5412  0.2339
 1661TIP3   OH226473   2.200   5.063  14.625 -0.2667  0.0174 -0.2728
 1661TIP3    H126474   2.269   4.998  14.610 -1.1520 -0.9408 -0.2969
 1661TIP3    H226475   2.201   5.077  14.720  0.9820  1.1951 -0.4224
 1662TIP3   OH226476   2.692   0.562   5.448 -0.3960 -0.0658 -0.3499
 1662TIP3    H126477   2.667   0.593   5.535 -1.4230  0.0044 -0.6589
 1662TIP3    H226478   2.760   0.497   5.465 -0.8177 -0.2980  0.5362
 1663TIP3   OH226479   5.634   4.983   0.065 -0.1253 -0.1813 -0.1700
 1663TIP3    H126480   5.606   4.905   0.113  1.2438  0.1258  1.2096
 1663TIP3    H226481   5.608   4.966  -0.025 -1.3417 -1.4926  0.3954
 1664TIP3   OH226482   3.006   6.847   0.895  0.0801  0.7921 -0.4664
 1664TIP3    H126483   2.955   6.786   0.841  0.1641  0.4654 -0.1770
 1664TIP3    H226484   2.968   6.841   0.982  2.6967 -2.0549  0.6800
 1665TIP3   OH226485   1.445   6.247   5.066 -0.3538 -0.0328 -0.1929
 1665TIP3    H126486   1.368   6.260   5.010 -0.2601  1.0191 -0.0997
 1665TIP3    H226487   1.472   6.336   5.091 -1.0297 -0.4716  2.3906
 1666TIP3   OH226488   4.087   2.249   5.162  0.3162  0.7031  0.1748
 1666TIP3    H126489   4.007   2.216   5.202 -0.6325  2.2352 -0.4049
 1666TIP3    H226490   4.089   2.209   5.076 -0.0792  1.0431  0.0085
 1667TIP3   OH226491   1.423   2.269  14.696 -0.5772  0.0352  0.0709
 1667TIP3    H126492   1.472   2.212  14.636 -0.3472 -0.1964  0.4736
 1667TIP3    H226493   1.491   2.310  14.749 -0.8811 -1.5793  1.7945
 1668TIP3   OH226494   3.757   0.254   1.190 -0.6342 -0.0079 -0.0511
 1668TIP3    H126495   3.802   0.249   1.106 -1.7442 -2.4127 -0.5985
 1668TIP3    H226496   3.790   0.180   1.240 -0.2306  1.1968  1.5768
 1669TIP3   OH226497   5.517   6.048  16.747 -0.2129 -0.0105 -0.3182
 1669TIP3    H126498   5.541   6.106  16.819  0.8788 -1.9657  0.9721
 1669TIP3    H226499   5.577   6.072  16.676 -0.9670  1.5875 -0.4797
 1670TIP3   OH226500   4.041   0.734   6.493  0.1217 -0.4697  0.5497
 1670TIP3    H126501   4.107   0.798   6.520 -1.1627  1.4569 -0.5928
 1670TIP3    H226502   4.051   0.729   6.398  1.2111 -3.2544  0.7059
 1671TIP3   OH226503   0.581   4.837   0.493 -0.5814  0.4147 -0.2621
 1671TIP3    H126504   0.521   4.912   0.492 -0.2717  0.6529 -1.1368
 1671TIP3    H226505   0.634   4.847   0.415 -2.1769 -2.0415 -1.7844
 1672TIP3   OH226506   4.570   3.350   1.249  0.2790  0.2214 -0.3483
 1672TIP3    H126507   4.662   3.358   1.225  0.9486 -0.6873  1.6657
 1672TIP3    H226508   4.537   3.440   1.250  0.7038  0.4440 -2.5186
 1673TIP3   OH226509   1.438   5.048  14.843 -0.4208 -0.3309 -0.1013
 1673TIP3    H126510   1.345   5.067  14.847 -0.4191 -0.5638  2.2192
 1673TIP3    H226511   1.443   4.953  14.834 -0.4131 -0.2921 -0.4962
 1674TIP3   OH226512   2.842   5.234  11.136 -0.1436 -0.2430  0.5569
 1674TIP3    H126513   2.857   5.228  11.041 -0.6038 -0.3594  0.4869
 1674TIP3    H226514   2.929   5.244  11.174  0.0997 -0.8215  0.1683
 1675TIP3   OH226515   3.959   0.185  14.869 -0.2811 -0.0280  0.2930
 1675TIP3    H126516   3.915   0.109  14.831  1.3040 -0.9189  0.1654
 1675TIP3    H226517   3.902   0.211  14.941 -0.1193 -2.3259  1.3519
 1676TIP3   OH226518   0.237   2.594   0.019 -0.3365 -0.5733  0.4174
 1676TIP3    H126519   0.321   2.618   0.058  0.0182 -0.5267 -0.3478
 1676TIP3    H226520   0.212   2.671  -0.032 -1.6038 -0.0055  1.8619
 1677TIP3   OH226521   3.072   3.640   5.796  0.1295 -0.7042 -0.2105
 1677TIP3    H126522   3.161   3.672   5.788  0.5581 -1.8448 -0.1624
 1677TIP3    H226523   3.049   3.654   5.888 -0.1187  0.5159 -0.4471
 1678TIP3   OH226524   3.844   4.478  13.228 -0.3021  0.4828 -0.1499
 1678TIP3    H126525   3.753   4.452  13.237 -1.0769  2.3970 -1.8027
 1678TIP3    H226526   3.850   4.515  13.140  1.6331  1.9971  0.5363
 1679TIP3   OH226527   0.570   6.406   2.934 -0.2152  0.0356 -0.2362
 1679TIP3    H126528   0.655   6.412   2.978 -1.0381  2.3486  1.2098
 1679TIP3    H226529   0.518   6.349   2.990 -0.1951  0.1565 -0.0944
 1680TIP3   OH226530   6.797   0.769   2.724 -0.0542 -0.5108 -0.2620
 1680TIP3    H126531   6.858   0.696   2.708  0.8678 -0.4114  2.2892
 1680TIP3    H226532   6.837   0.844   2.680  1.1812 -0.6944  0.4867
 1681TIP3   OH226533   3.558   6.250  11.734 -1.0250 -0.2199  0.5476
 1681TIP3    H126534   3.581   6.250  11.641  1.9276 -0.2062  1.1973
 1681TIP3    H226535   3.552   6.158  11.758 -0.8527 -0.2338  0.5375
 1682TIP3   OH226536   6.854   4.255  14.095 -0.1238  0.6493  0.1615
 1682TIP3    H126537   6.917   4.248  14.024 -0.3217  1.3167 -0.0795
 1682TIP3    H226538   6.871   4.177  14.149  0.9429  0.8490  0.1359
 1683TIP3   OH226539   2.272   2.206   1.587 -0.2978  0.0682 -0.4690
 1683TIP3    H126540   2.238   2.200   1.498  1.5375 -1.5380 -1.1286
 1683TIP3    H226541   2.314   2.292   1.591  0.2327 -0.1436 -1.3824
 1684TIP3   OH226542   4.432   4.335  12.253  0.3088 -0.4415  0.6916
 1684TIP3    H126543   4.513   4.346  12.204 -0.3046  0.0138 -0.2386
 1684TIP3    H226544   4.452   4.265  12.315  2.0695  1.0496  1.9332
 1685TIP3   OH226545   1.545   3.283   1.799  0.4327  0.1189  0.1529
 1685TIP3    H126546   1.559   3.196   1.838 -0.0326  0.1151  0.3084
 1685TIP3    H226547   1.600   3.282   1.721  0.0190 -0.5220 -0.1442
 1686TIP3   OH226548   2.212   6.667   2.938  0.1377  0.1347 -0.7057
 1686TIP3    H126549   2.224   6.724   2.862 -1.4997  0.4074 -0.7961
 1686TIP3    H226550   2.138   6.705   2.986  0.3539 -0.7292  0.3627
 1687TIP3   OH226551   0.500   2.489   4.112 -0.0542  0.4615 -0.0318
 1687TIP3    H126552   0.531   2.398   4.104  3.0840  1.4246 -0.3784
 1687TIP3    H226553   0.504   2.507   4.205 -0.8384  0.2242  0.0548
 1688TIP3   OH226554   1.286   6.625  11.617  0.1904 -0.4162 -0.2397
 1688TIP3    H126555   1.306   6.634  11.524  1.3212 -0.2462  0.0012
 1688TIP3    H226556   1.357   6.571  11.651  0.2121  0.1643  0.6627
 1689TIP3   OH226557   4.058   1.973  16.589 -0.2711  0.4680 -0.2228
 1689TIP3    H126558   4.085   1.901  16.646  0.0304  1.7257  1.2900
 1689TIP3    H226559   4.140   2.016  16.563 -0.4871  0.7274 -0.4957
 1690TIP3   OH226560   5.195   2.992  16.359  0.2700  0.3373 -0.1172
 1690TIP3    H126561   5.289   3.007  16.348  0.1928  1.0839  0.2218
 1690TIP3    H226562   5.185   2.897  16.350  1.1779  0.1481  0.7362
 1691TIP3   OH226563   3.977   1.099   6.238  0.5134  0.4972  0.9872
 1691TIP3    H126564   3.978   1.006   6.262 -1.3509  0.0590 -0.4040
 1691TIP3    H226565   4.058   1.134   6.275  3.2845 -2.5225 -1.5552
 1692TIP3   OH226566   1.567   3.887   5.404  0.3196  0.3420  0.2270
 1692TIP3    H126567   1.601   3.941   5.475 -1.9190  1.5515  0.4990
 1692TIP3    H226568   1.474   3.909   5.400  0.2455 -0.0337 -2.7769
 1693TIP3   OH226569   2.675   6.570   5.054  0.1268  0.1451  0.2673
 1693TIP3    H126570   2.634   6.652   5.083  0.6382  0.7515 -0.6609
 1693TIP3    H226571   2.734   6.547   5.125  2.0168  2.0778 -0.5513
 1694TIP3   OH226572   6.112   5.765  15.879  0.0058  0.4123 -0.6185
 1694TIP3    H126573   6.106   5.672  15.858 -0.1670  0.5131 -1.0213
 1694TIP3    H226574   6.023   5.789  15.907 -0.0572  0.5545 -0.9352
 1695TIP3   OH226575   5.436   5.550  16.991  0.0960 -0.4441 -0.0699
 1695TIP3    H126576   5.407   5.526  16.903  0.1353 -0.1662 -0.1592
 1695TIP3    H226577   5.525   5.583  16.978 -0.2314  0.4695 -0.0547
 1696TIP3   OH226578   6.582   5.657   0.539  0.2480 -0.3804 -0.0965
 1696TIP3    H126579   6.612   5.581   0.489 -0.8302  0.1261 -1.5833
 1696TIP3    H226580   6.654   5.720   0.532  0.3555 -0.5455 -0.4814
 1697TIP3   OH226581   3.595   4.952  13.800 -0.1982  0.6498  0.9051
 1697TIP3    H126582   3.543   4.893  13.854 -1.2837  1.3861  0.6927
 1697TIP3    H226583   3.588   5.037  13.844  0.4447  0.8588  0.6121
 1698TIP3   OH226584   3.021   4.840  13.814  0.9636  0.5104  0.3807
 1698TIP3    H126585   3.018   4.935  13.808 -2.8389  0.7887  3.0086
 1698TIP3    H226586   3.053   4.823  13.903  0.3388 -0.5681  0.4160
 1699TIP3   OH226587   3.751   4.940   3.881  0.0837 -0.0167 -0.1950
 1699TIP3    H126588   3.823   4.924   3.820  0.4590  1.4885 -0.1804
 1699TIP3    H226589   3.792   4.981   3.957 -0.7797  0.8955 -0.1960
 1700TIP3   OH226590   6.433   1.352  11.597  0.3197 -0.2750 -0.3066
 1700TIP3    H126591   6.357   1.372  11.542  0.4847 -0.5239 -0.6284
 1700TIP3    H226592   6.444   1.430  11.651 -0.7824 -0.6229  0.4573
 1701TIP3   OH226593   5.577   2.027   4.325 -0.2864  1.2283 -0.3775
 1701TIP3    H126594   5.585   2.061   4.236  1.1258  0.1611 -0.6989
 1701TIP3    H226595   5.515   1.955   4.317  2.5540 -1.3317 -1.3658
 1702TIP3   OH226596   4.861   4.897   3.634 -0.2624 -0.3993 -0.2770
 1702TIP3    H126597   4.807   4.872   3.709 -0.2223  0.2743 -0.0125
 1702TIP3    H226598   4.798   4.930   3.570 -0.2797 -0.7998 -0.4662
 1703TIP3   OH226599   3.824   6.117   4.700 -1.0102  0.3627  0.4284
 1703TIP3    H126600   3.869   6.035   4.720  2.3221  1.4007 -1.9200
 1703TIP3    H226601   3.831   6.168   4.781 -1.3854 -0.9073  1.2894
 1704TIP3   OH226602   4.808   6.038   1.776  0.2060 -0.0708  0.2131
 1704TIP3    H126603   4.820   5.967   1.712  1.0143  0.5532 -0.3594
 1704TIP3    H226604   4.893   6.045   1.820  0.4889  1.2418 -0.4899
 1705TIP3   OH226605   4.152   3.496  12.391  0.3061  0.1006 -0.6958
 1705TIP3    H126606   4.069   3.521  12.350  0.1747  1.8957  0.5715
 1705TIP3    H226607   4.218   3.517  12.325 -0.1736 -0.6891 -1.4479
 1706TIP3   OH226608   2.734   0.677  14.272  0.6423  0.0403 -0.2018
 1706TIP3    H126609   2.675   0.668  14.346  0.4632 -0.0264 -0.3518
 1706TIP3    H226610   2.761   0.587  14.252  0.3122  0.0139 -0.5244
 1707TIP3   OH226611   6.694   4.075  15.311  0.2828 -0.2386 -0.1400
 1707TIP3    H126612   6.698   4.083  15.215 -0.9217 -0.5512 -0.2251
 1707TIP3    H226613   6.662   3.987  15.326  0.3292 -0.1370  0.5612
 1708TIP3   OH226614   1.214   2.525   0.525 -0.0525 -0.3287 -0.7278
 1708TIP3    H126615   1.205   2.488   0.437  0.5865  1.4407 -1.5845
 1708TIP3    H226616   1.125   2.547   0.552 -0.0283  2.2256 -2.3999
 1709TIP3   OH226617   3.870   5.385  16.577  0.3240  0.0980 -0.2067
 1709TIP3    H126618   3.780   5.391  16.545  0.4649 -0.5669 -0.7580
 1709TIP3    H226619   3.920   5.442  16.518  0.5536 -0.9844 -1.0990
 1710TIP3   OH226620   5.555   2.715   3.496  0.1846  0.0296  0.4252
 1710TIP3    H126621   5.613   2.686   3.425  0.8732  1.4422  0.3634
 1710TIP3    H226622   5.613   2.723   3.572  0.1274  1.5279  0.3492
 1711TIP3   OH226623   5.919   4.139  11.626  0.0232  0.2704  0.3870
 1711TIP3    H126624   5.973   4.090  11.688 -1.2615 -2.4233 -0.4695
 1711TIP3    H226625   5.829   4.120  11.653 -0.6594 -2.2195 -2.9505
 1712TIP3   OH226626   5.209   0.842   2.514  0.1235  0.4801 -0.5683
 1712TIP3    H126627   5.145   0.913   2.523 -1.5496 -0.9199 -1.0986
 1712TIP3    H226628   5.229   0.840   2.421  1.4309  1.2696 -0.3383
 1713TIP3   OH226629   1.679   4.733   1.578 -0.2816 -0.8420 -0.4478
 1713TIP3    H126630   1.772   4.713   1.566  0.9684  3.1881  0.9418
 1713TIP3    H226631   1.665   4.813   1.528 -2.4230 -0.1287  1.1556
 1714TIP3   OH226632   3.202   4.862  12.477 -0.6286  0.1718  0.1167
 1714TIP3    H126633   3.108   4.880  12.467 -0.6029  0.0637 -0.3820
 1714TIP3    H226634   3.205   4.780  12.527 -0.8483 -0.5672 -1.0282
 1715TIP3   OH226635   6.695   2.558   0.513 -0.1429 -0.0298 -0.7465
 1715TIP3    H126636   6.618   2.609   0.488  1.4728  1.5652 -2.9864
 1715TIP3    H226637   6.768   2.604   0.471  2.2140 -0.7621  2.2094
 1716TIP3   OH226638   0.413   3.742   4.912  0.5505 -0.5152  0.3765
 1716TIP3    H126639   0.318   3.734   4.920  0.4685  0.3608  0.3459
 1716TIP3    H226640   0.426   3.782   4.826  0.7654  2.3337  1.6450
 1717TIP3   OH226641   3.597   5.536  14.667  0.1993 -0.0027 -0.0415
 1717TIP3    H126642   3.532   5.499  14.726  0.3303  0.1349  0.1894
 1717TIP3    H226643   3.613   5.467  14.602 -0.0809 -0.0849 -0.0271
 1718TIP3   OH226644   4.364   5.757  14.090  0.7488  0.4285  0.0733
 1718TIP3    H126645   4.394   5.836  14.135  1.4836  0.3879 -0.3247
 1718TIP3    H226646   4.292   5.787  14.035  0.5174  0.6722  0.5063
 1719TIP3   OH226647   6.809   0.497  14.114  0.0964  0.3835  0.1692
 1719TIP3    H126648   6.821   0.471  14.205  0.4950 -0.5036 -0.1196
 1719TIP3    H226649   6.891   0.541  14.090  0.5200 -0.5369 -0.1245
 1720TIP3   OH226650   5.816   4.019  14.713 -0.1190  0.4627  0.4147
 1720TIP3    H126651   5.777   4.106  14.724 -0.9865  0.0428  0.7216
 1720TIP3    H226652   5.809   4.002  14.619  3.2960  2.1877 -0.3254
 1721TIP3   OH226653   4.404   4.523  13.405 -0.2562 -0.0253 -0.0503
 1721TIP3    H126654   4.462   4.569  13.466  0.2586 -0.0775 -0.5003
 1721TIP3    H226655   4.361   4.593  13.356 -0.5584  0.0124  0.2584
 1722TIP3   OH226656   5.219   0.832   3.645  0.2197  0.1521  0.5118
 1722TIP3    H126657   5.255   0.918   3.667 -1.5146  1.1466 -0.3126
 1722TIP3    H226658   5.221   0.829   3.550 -2.5004  0.6170  0.3628
 1723TIP3   OH226659   6.616   3.472   5.069 -0.1270 -0.1585  0.3179
 1723TIP3    H126660   6.681   3.417   5.112  0.1047 -0.3243 -0.2239
 1723TIP3    H226661   6.605   3.548   5.126 -0.2036 -0.6091  0.9070
 1724TIP3   OH226662   0.560   4.627   4.784 -0.1440 -0.3399 -0.5306
 1724TIP3    H126663   0.591   4.713   4.814  0.5699 -1.0622  0.8574
 1724TIP3    H226664   0.585   4.624   4.691  1.4097  0.2602 -0.1622
 1725TIP3   OH226665   1.995   5.193  15.257  0.4930  0.6856 -0.2005
 1725TIP3    H126666   2.074   5.235  15.222  0.6168  1.4423  0.9141
 1725TIP3    H226667   2.021   5.161  15.344 -0.1832  0.1313 -0.1906
 1726TIP3   OH226668   0.704   1.526  14.464 -0.1221  0.0069 -0.3880
 1726TIP3    H126669   0.653   1.531  14.545  0.9547  1.3360  0.2479
 1726TIP3    H226670   0.691   1.611  14.422 -0.8760 -0.7534 -1.7786
 1727TIP3   OH226671   0.636   0.621  16.115  0.2548  0.1799 -0.4932
 1727TIP3    H126672   0.588   0.553  16.068  0.1352 -0.0536 -0.0378
 1727TIP3    H226673   0.625   0.599  16.208  1.7388 -0.2383 -0.3819
 1728TIP3   OH226674   3.698   5.759  11.396  0.3560 -0.2396 -0.0848
 1728TIP3    H126675   3.752   5.722  11.327 -0.0987 -2.2629  0.5794
 1728TIP3    H226676   3.612   5.719  11.385 -0.2860  0.9112  0.4696
 1729TIP3   OH226677   1.194   0.502  16.320 -0.2422 -0.1064  0.6069
 1729TIP3    H126678   1.251   0.575  16.293  1.0296 -1.5164 -0.6695
 1729TIP3    H226679   1.141   0.483  16.243 -3.8057  2.2303  2.2138
 1730TIP3   OH226680   6.816   2.808  15.545  0.0884 -0.2741 -0.3154
 1730TIP3    H126681   6.741   2.749  15.540  0.0569 -0.2997  0.3858
 1730TIP3    H226682   6.873   2.770  15.611 -0.0657  0.6212  0.3454
 1731TIP3   OH226683   2.663   6.501  16.795  0.0928 -0.3915 -0.0636
 1731TIP3    H126684   2.671   6.415  16.754  1.9586 -0.4230  0.2549
 1731TIP3    H226685   2.580   6.498  16.843  0.3154 -2.1699  0.2829
 1732TIP3   OH226686   5.902   1.274  11.487 -0.1766  0.6416  0.3045
 1732TIP3    H126687   5.816   1.236  11.469  0.2226 -0.4683  0.6415
 1732TIP3    H226688   5.920   1.329  11.410  0.0659 -1.4232 -1.2106
 1733TIP3   OH226689   1.487   4.771  12.502 -0.3081 -0.3656 -0.3677
 1733TIP3    H126690   1.459   4.860  12.481  0.2824  0.2055  1.1769
 1733TIP3    H226691   1.406   4.721  12.508 -1.1676  1.1636  3.6011
 1734TIP3   OH226692   1.146   0.294  11.126  0.3457  0.5780 -0.4179
 1734TIP3    H126693   1.109   0.237  11.193 -0.5419  2.1024  0.4670
 1734TIP3    H226694   1.230   0.322  11.162  0.2669  0.7007 -0.3257
 1735TIP3   OH226695   1.460   5.872   2.759 -0.2446 -0.6821  0.1355
 1735TIP3    H126696   1.532   5.920   2.800 -1.0615  2.1780 -1.5087
 1735TIP3    H226697   1.495   5.845   2.673 -0.4048 -1.4075  0.2871
 1736TIP3   OH226698   0.615   2.438   1.942  0.1495 -0.2129  0.1031
 1736TIP3    H126699   0.618   2.394   2.027 -0.7845  1.1848  0.9042
 1736TIP3    H226700   0.699   2.482   1.934 -0.5721  1.5034  1.3890
 1737TIP3   OH226701   0.111   1.445  16.305  0.0718 -0.2418 -0.3019
 1737TIP3    H126702   0.130   1.363  16.259  0.0831 -0.2111 -0.3535
 1737TIP3    H226703   0.194   1.469  16.346 -0.6179 -1.7757  2.1926
 1738TIP3   OH226704   2.634   4.911   3.779 -0.1197 -0.7426  0.1459
 1738TIP3    H126705   2.550   4.933   3.738 -0.8401 -2.9367  0.3357
 1738TIP3    H226706   2.698   4.964   3.732 -1.5071  0.4367 -0.4982
 1739TIP3   OH226707   3.150   6.198   1.500  0.5706  0.5330 -0.0866
 1739TIP3    H126708   3.115   6.219   1.587  0.3050 -0.0617 -0.0432
 1739TIP3    H226709   3.245   6.203   1.511  0.5300  1.0066  0.0936
 1740TIP3   OH226710   1.865   6.454   5.765 -0.3788 -0.0312  0.1590
 1740TIP3    H126711   1.920   6.532   5.753 -0.6382  0.0311 -0.6380
 1740TIP3    H226712   1.783   6.488   5.801 -1.0935  0.2798 -1.6732
 1741TIP3   OH226713   3.815   5.461   3.096  0.6760  0.0685 -0.1109
 1741TIP3    H126714   3.835   5.370   3.118  0.6893  0.2106  0.4928
 1741TIP3    H226715   3.885   5.511   3.136  1.8978  0.2128 -2.2843
 1742TIP3   OH226716   3.061   3.417   2.368  0.5216  0.2018  0.3786
 1742TIP3    H126717   3.116   3.457   2.435 -0.6254  2.1679  0.2048
 1742TIP3    H226718   2.975   3.408   2.409 -0.3568  1.9621 -0.9326
 1743TIP3   OH226719   4.335   3.484  14.869 -0.3657  0.1259 -1.2673
 1743TIP3    H126720   4.287   3.565  14.855 -0.6330  0.4602  1.0958
 1743TIP3    H226721   4.274   3.414  14.847 -0.5655  0.5571 -2.0888
 1744TIP3   OH226722   6.667   1.761   3.278 -0.2884  0.3949 -0.2385
 1744TIP3    H126723   6.634   1.790   3.363  3.0166  1.0051  0.9918
 1744TIP3    H226724   6.656   1.837   3.220 -1.1317  0.5167  0.0782
 1745TIP3   OH226725   5.529   0.524   5.194 -0.1543 -0.3814 -0.2129
 1745TIP3    H126726   5.471   0.553   5.264 -1.3071  1.0835 -1.6761
 1745TIP3    H226727   5.581   0.454   5.232 -1.4381 -0.3140  1.7786
 1746TIP3   OH226728   2.924   6.558  14.691 -0.1981 -0.0624  0.4318
 1746TIP3    H126729   2.926   6.651  14.717  0.5675 -0.2828  1.1825
 1746TIP3    H226730   3.012   6.526  14.709  0.1437 -0.4738 -1.6452
 1747TIP3   OH226731   2.581   0.364   6.112 -0.4862  0.2458  0.0137
 1747TIP3    H126732   2.642   0.400   6.176 -2.8261  1.0705  1.9500
 1747TIP3    H226733   2.605   0.272   6.105  0.0654  0.2032  1.8710
 1748TIP3   OH226734   0.201   5.151  14.956  0.9152 -0.4905  0.3560
 1748TIP3    H126735   0.149   5.215  14.906  1.7593  0.1332  0.2505
 1748TIP3    H226736   0.291   5.165  14.926  1.4032 -0.3049  1.8300
 1749TIP3   OH226737   5.370   5.334  10.755  0.2550 -0.0263  0.0618
 1749TIP3    H126738   5.382   5.373  10.669 -1.6713  1.2413  0.3046
 1749TIP3    H226739   5.302   5.268  10.741  0.0725  0.0504  0.5762
 1750TIP3   OH226740   4.633   4.556   2.093 -0.6367 -0.0161 -0.1703
 1750TIP3    H126741   4.539   4.540   2.095 -0.5805 -0.2871  0.5676
 1750TIP3    H226742   4.670   4.488   2.149  0.1038 -0.5695 -1.2905
 1751TIP3   OH226743   1.752   6.848   4.385 -0.0081  0.4896  1.0157
 1751TIP3    H126744   1.842   6.860   4.354  0.1255 -3.4770 -0.7086
 1751TIP3    H226745   1.700   6.911   4.334  1.1245 -1.2576 -2.6564
 1752TIP3   OH226746   5.580   2.462  12.447  0.6212 -0.3017 -0.2383
 1752TIP3    H126747   5.519   2.402  12.405 -1.4651  0.1165  2.0396
 1752TIP3    H226748   5.561   2.547  12.406 -1.2119  0.0528  1.2460
 1753TIP3   OH226749   5.467   5.646   1.124  0.1787  0.0582  0.4271
 1753TIP3    H126750   5.562   5.659   1.125 -0.0860  2.3944  1.0093
 1753TIP3    H226751   5.445   5.630   1.032  1.1013 -0.2166  0.2480
 1754TIP3   OH226752   1.087   5.024  15.111 -0.2742 -0.4448  0.3149
 1754TIP3    H126753   1.166   4.983  15.077  1.1193  1.2962  1.2574
 1754TIP3    H226754   1.047   4.957  15.167  0.4194 -1.4059 -0.3117
 1755TIP3   OH226755   5.014   5.586   5.785  0.1557  0.1349 -0.1208
 1755TIP3    H126756   4.987   5.613   5.872  0.4730  0.2813 -0.0684
 1755TIP3    H226757   4.967   5.504   5.770 -1.3030  1.0028 -0.5281
 1756TIP3   OH226758   1.851   3.873  15.033  0.0346  0.4059  0.5394
 1756TIP3    H126759   1.772   3.908  15.073  0.2701  0.7757  0.6831
 1756TIP3    H226760   1.905   3.950  15.014 -0.7227  0.4145 -1.9249
 1757TIP3   OH226761   3.946   4.786   5.413 -0.0213 -0.8517  0.1066
 1757TIP3    H126762   3.852   4.804   5.419 -0.0767 -0.6741 -1.0203
 1757TIP3    H226763   3.975   4.837   5.338  1.0793 -0.5427  0.7224
 1758TIP3   OH226764   5.405   1.911  15.013 -0.2316 -0.6216  0.1209
 1758TIP3    H126765   5.414   1.924  14.919 -0.2474 -1.0967  0.0470
 1758TIP3    H226766   5.342   1.978  15.042  0.5654  0.1975 -0.0252
 1759TIP3   OH226767   5.986   6.663  12.313  0.0943  0.1123 -0.1844
 1759TIP3    H126768   5.939   6.624  12.387  0.7524 -0.8018 -0.2305
 1759TIP3    H226769   5.927   6.731  12.280  1.1574  3.1120  3.4011
 1760TIP3   OH226770   4.549   4.693   4.489 -0.1879 -0.3079 -0.3887
 1760TIP3    H126771   4.566   4.769   4.545 -0.6976  0.0392 -0.6999
 1760TIP3    H226772   4.560   4.726   4.400 -0.6318 -0.5399 -0.5335
 1761TIP3   OH226773   4.955   4.052  16.148  0.7430 -0.2974  0.1481
 1761TIP3    H126774   4.935   4.007  16.230 -2.6131 -0.2192 -0.4737
 1761TIP3    H226775   4.987   3.983  16.090 -0.0665 -1.0553  0.5678
 1762TIP3   OH226776   6.190   2.887  10.735 -0.0309  0.2083  0.4663
 1762TIP3    H126777   6.167   2.913  10.645 -1.3947  1.9543  1.2534
 1762TIP3    H226778   6.178   2.966  10.786 -2.2338 -1.4033  2.6956
 1763TIP3   OH226779   6.284   0.968  14.254  0.0652  0.1372 -0.2015
 1763TIP3    H126780   6.232   0.978  14.333 -0.0881  1.5631 -0.4659
 1763TIP3    H226781   6.220   0.965  14.183  0.0487 -2.9952 -0.2276
 1764TIP3   OH226782   4.519   4.568   0.364 -0.4946  0.1429  0.6438
 1764TIP3    H126783   4.522   4.657   0.399 -1.4601  0.6394 -0.4670
 1764TIP3    H226784   4.576   4.570   0.288 -0.6342 -0.1452  0.5274
 1765TIP3   OH226785   3.264   3.380  12.355 -0.2477 -0.1415  0.2661
 1765TIP3    H126786   3.342   3.347  12.400  0.3831  0.1022 -0.6352
 1765TIP3    H226787   3.280   3.473  12.344 -1.2251  0.1560  1.1769
 1766TIP3   OH226788   2.778   5.313   3.160 -0.0622  0.5169  0.2693
 1766TIP3    H126789   2.801   5.232   3.116  2.4377  1.3936 -0.2114
 1766TIP3    H226790   2.683   5.322   3.146 -0.4451 -2.2939  0.4254
 1767TIP3   OH226791   6.441   0.834   1.096 -0.4542  0.4171 -0.0090
 1767TIP3    H126792   6.503   0.824   1.024 -2.7038 -0.4642 -1.9513
 1767TIP3    H226793   6.445   0.750   1.143  0.2123  0.5876  0.2553
 1768TIP3   OH226794   5.448   3.480  12.032  0.4990 -0.0001 -0.4378
 1768TIP3    H126795   5.521   3.456  11.975  0.1948  1.3867 -1.4758
 1768TIP3    H226796   5.374   3.491  11.973  0.2749  1.9218  0.1248
 1769TIP3   OH226797   5.811   4.440   2.045 -0.6223  0.2012 -0.1718
 1769TIP3    H126798   5.874   4.474   1.982 -1.5642  0.5227 -0.9610
 1769TIP3    H226799   5.739   4.407   1.992 -1.5635  0.7305  0.7430
 1770TIP3   OH226800   5.252   0.028   1.906 -0.4329  0.1068 -0.3953
 1770TIP3    H126801   5.283   0.117   1.920  2.0973 -0.7486 -0.0667
 1770TIP3    H226802   5.224  -0.002   1.993  0.6340 -0.0643 -0.0986
 1771TIP3   OH226803   4.225   1.214   1.744  0.6446  0.8935  0.5995
 1771TIP3    H126804   4.176   1.163   1.808 -1.0881  1.7398  0.0061
 1771TIP3    H226805   4.275   1.149   1.694 -1.0282 -0.1882  0.2665
 1772TIP3   OH226806   0.251   0.658  15.832  0.4705  0.2203 -0.4233
 1772TIP3    H126807   0.174   0.691  15.877  0.7805  0.1256  0.1865
 1772TIP3    H226808   0.298   0.736  15.803 -0.0922  0.2737 -1.2178
 1773TIP3   OH226809   0.372   1.130   0.227  0.1601  0.0187  0.0694
 1773TIP3    H126810   0.381   1.094   0.139  0.1690  0.6705 -0.2089
 1773TIP3    H226811   0.427   1.075   0.281  3.2912  1.8313 -0.9970
 1774TIP3   OH226812   3.031   5.095   3.474 -0.3383  0.2445 -0.6299
 1774TIP3    H126813   2.942   5.060   3.481 -0.3603  0.0932 -1.5565
 1774TIP3    H226814   3.020   5.189   3.465 -0.2918  0.5168  1.5332
 1775TIP3   OH226815   1.139   4.013   4.198  0.1386  0.0818 -0.2683
 1775TIP3    H126816   1.207   3.946   4.195  1.1892  1.1093 -0.2664
 1775TIP3    H226817   1.104   4.008   4.287 -0.5044 -1.1255 -0.5760
 1776TIP3   OH226818   6.832   5.666  16.377 -0.2861  0.2727 -0.3983
 1776TIP3    H126819   6.914   5.649  16.424 -1.6149 -2.9421  1.0305
 1776TIP3    H226820   6.788   5.732  16.430  0.4678  0.5062 -0.0380
 1777TIP3   OH226821   5.975   2.328  10.695 -0.1841 -0.6895  0.3986
 1777TIP3    H126822   6.005   2.419  10.700 -1.7016 -0.2362  2.1242
 1777TIP3    H226823   6.023   2.292  10.620  0.0218  1.6876 -0.7318
 1778TIP3   OH226824   0.557   6.541  16.506 -0.3341  0.0696  0.3098
 1778TIP3    H126825   0.626   6.497  16.557 -0.7550 -1.7723 -0.6370
 1778TIP3    H226826   0.591   6.630  16.493  1.9671 -0.8027 -0.2530
 1779TIP3   OH226827   2.002   4.794  12.628  0.1235  0.0780 -0.8607
 1779TIP3    H126828   2.014   4.760  12.540  0.1651  2.1991 -1.7426
 1779TIP3    H226829   2.090   4.813  12.660  0.1756 -1.4740  0.0233
 1780TIP3   OH226830   4.294   6.261   5.614  0.9696  0.0948 -0.0327
 1780TIP3    H126831   4.349   6.339   5.617  0.6231  0.4419 -1.7600
 1780TIP3    H226832   4.209   6.290   5.644  0.6269  0.6197 -1.4229
 1781TIP3   OH226833   4.099   0.408   3.280  0.6779  0.0482  0.1882
 1781TIP3    H126834   4.027   0.453   3.236 -0.6253 -0.9547  1.2054
 1781TIP3    H226835   4.070   0.317   3.286  1.7299 -0.2438  1.2244
 1782TIP3   OH226836   2.433   2.522   0.593 -1.0123  0.2591 -0.5004
 1782TIP3    H126837   2.423   2.467   0.671  0.8736  0.5094 -0.0501
 1782TIP3    H226838   2.393   2.470   0.522 -0.0869 -1.3018  0.0747
 1783TIP3   OH226839   5.142   6.617  11.588 -1.0957  0.1468  0.3984
 1783TIP3    H126840   5.210   6.568  11.542 -0.9074  0.5307  0.2648
 1783TIP3    H226841   5.114   6.559  11.659 -0.2998  0.1682  0.7427
 1784TIP3   OH226842   6.720   6.285   1.647 -0.6524  0.0787  0.5338
 1784TIP3    H126843   6.746   6.337   1.571  2.4189  1.4732  2.3597
 1784TIP3    H226844   6.746   6.196   1.624  1.8347  0.7372  0.4821
 1785TIP3   OH226845   2.985   0.512  13.282  0.0818  0.5876  0.2691
 1785TIP3    H126846   2.951   0.487  13.196  2.1889  2.9826 -1.4154
 1785TIP3    H226847   3.070   0.469  13.288  2.0002  3.7884 -1.0003
 1786TIP3   OH226848   2.575   1.077  16.374  0.1253  0.8140 -0.2596
 1786TIP3    H126849   2.589   1.171  16.358  1.2813  0.4855 -1.3322
 1786TIP3    H226850   2.491   1.073  16.419  0.2569  2.4029  0.1941
 1787TIP3   OH226851   5.797   5.304   0.235 -0.8958  0.1923 -0.0545
 1787TIP3    H126852   5.777   5.362   0.162  0.6948  1.1527  0.2320
 1787TIP3    H226853   5.873   5.254   0.206 -0.8870 -0.1593  0.5573
 1788TIP3   OH226854   2.904   1.342   3.139  0.3725 -0.0182  0.6251
 1788TIP3    H126855   2.957   1.273   3.178 -0.0865 -0.2923  0.7757
 1788TIP3    H226856   2.914   1.417   3.199  0.4559 -0.1201  0.7387
 1789TIP3   OH226857   3.619   3.120   2.797  0.1687 -0.3573  0.5749
 1789TIP3    H126858   3.534   3.103   2.756 -0.4415  1.2611  1.1047
 1789TIP3    H226859   3.631   3.046   2.857 -1.1014 -0.3618  0.8502
 1790TIP3   OH226860   6.580   4.905  12.183 -0.3516  0.1263 -0.0856
 1790TIP3    H126861   6.592   4.934  12.273  0.7438  0.3171 -0.2749
 1790TIP3    H226862   6.644   4.835  12.171 -3.3104 -2.9516  0.5360
 1791TIP3   OH226863   4.357   1.822  14.003  0.1090 -0.8217  0.4869
 1791TIP3    H126864   4.428   1.884  14.018  0.9415 -1.5741 -0.2115
 1791TIP3    H226865   4.278   1.868  14.032  0.4569  1.1851 -1.4712
 1792TIP3   OH226866   3.039   0.785  12.347 -0.2008  0.1069  0.4472
 1792TIP3    H126867   2.965   0.744  12.301  0.7023 -1.2068  0.0914
 1792TIP3    H226868   3.115   0.736  12.317  1.3200  3.4516 -1.6981
 1793TIP3   OH226869   2.991   5.603  16.739  0.1164  0.5633  0.0746
 1793TIP3    H126870   2.927   5.642  16.799 -0.0961 -2.3687  1.9463
 1793TIP3    H226871   2.942   5.591  16.658 -1.4121 -0.4824  1.0860
 1794TIP3   OH226872   1.057   4.426   5.860  0.2356  0.1308  0.0064
 1794TIP3    H126873   1.063   4.381   5.944 -0.5783  0.2548  0.1419
 1794TIP3    H226874   1.083   4.360   5.796  1.3621  0.1888  0.3883
 1795TIP3   OH226875   5.440   5.479  15.223  0.3317 -0.0816 -0.0488
 1795TIP3    H126876   5.457   5.551  15.162 -2.8302 -0.8780 -2.1161
 1795TIP3    H226877   5.523   5.466  15.269  2.1677  2.2228 -2.4195
 1796TIP3   OH226878   1.428   2.575  11.388 -0.8025  0.4110 -0.4985
 1796TIP3    H126879   1.521   2.567  11.367 -0.3168  1.2652  1.1496
 1796TIP3    H226880   1.404   2.664  11.360 -1.9505 -0.7354 -3.6241
 1797TIP3   OH226881   3.443   4.784  15.759  0.3637  0.0983 -0.0459
 1797TIP3    H126882   3.463   4.784  15.852 -0.7002 -0.4033  0.1961
 1797TIP3    H226883   3.528   4.789  15.716  1.0460 -1.9618  0.9245
 1798TIP3   OH226884   2.030   3.110  11.479 -0.5287 -0.5104 -0.2031
 1798TIP3    H126885   1.967   3.047  11.443 -0.3966 -0.2335 -0.9363
 1798TIP3    H226886   2.113   3.063  11.478 -0.3447 -0.1914 -1.1683
 1799TIP3   OH226887   2.823   0.648   1.759  0.2418  0.6958 -0.0386
 1799TIP3    H126888   2.738   0.670   1.798 -0.7316 -0.1096 -1.5795
 1799TIP3    H226889   2.836   0.714   1.691  0.3879  0.2968 -0.4096
 1800TIP3   OH226890   0.651   4.054   3.550 -0.3901 -0.2217 -0.4424
 1800TIP3    H126891   0.669   4.021   3.462  2.7947  0.2279 -0.0571
 1800TIP3    H226892   0.670   4.147   3.545  3.6898 -0.7613  1.4780
 1801TIP3   OH226893   2.577   6.652  13.775 -0.1057 -0.0093  0.9470
 1801TIP3    H126894   2.598   6.745  13.780  0.7748 -0.2284  1.4757
 1801TIP3    H226895   2.660   6.610  13.752 -0.9369 -0.4661 -1.5001
 1802TIP3   OH226896   2.397   4.883   2.436 -0.6017  0.4326  0.0847
 1802TIP3    H126897   2.428   4.858   2.349 -1.9683 -0.2914 -0.2213
 1802TIP3    H226898   2.302   4.875   2.431 -0.7475  0.9630  1.4770
 1803TIP3   OH226899   1.959   4.209  14.687 -0.7718 -0.2647 -0.2741
 1803TIP3    H126900   1.923   4.278  14.631 -0.5183  0.9576  1.0243
 1803TIP3    H226901   1.882   4.166  14.725 -0.9280 -0.6220 -0.9857
 1804TIP3   OH226902   4.467   2.805   2.670  0.1969 -0.4427 -0.6109
 1804TIP3    H126903   4.530   2.848   2.728  1.1012 -0.1618 -1.7401
 1804TIP3    H226904   4.402   2.873   2.650  0.9144  0.0515 -1.3697
 1805TIP3   OH226905   5.250   6.841  12.631  0.1652  0.2489  0.5265
 1805TIP3    H126906   5.260   6.836  12.727 -1.3863 -1.0756  0.6508
 1805TIP3    H226907   5.161   6.872  12.618  1.0133  2.4291 -0.5372
 1806TIP3   OH226908   4.287   1.153  12.028  0.7480 -0.4540 -0.1252
 1806TIP3    H126909   4.309   1.240  12.061 -0.4007 -0.2085  0.0217
 1806TIP3    H226910   4.216   1.123  12.085  1.3677 -1.6315  0.0480
 1807TIP3   OH226911   1.257   2.706  12.284  0.1681 -0.2318 -0.3729
 1807TIP3    H126912   1.305   2.789  12.276  1.5987 -1.1752 -2.4375
 1807TIP3    H226913   1.262   2.683  12.376 -1.7998  2.7913  0.6483
 1808TIP3   OH226914   1.419   4.826   0.713  0.1270  0.0123 -0.3511
 1808TIP3    H126915   1.337   4.870   0.737 -0.1820 -1.0028  0.5515
 1808TIP3    H226916   1.461   4.885   0.650 -1.7462  0.1271 -1.5783
 1809TIP3   OH226917   0.902   0.801   1.576 -0.0407  0.1775 -0.3000
 1809TIP3    H126918   0.814   0.773   1.601 -0.9726  0.3960 -3.0213
 1809TIP3    H226919   0.957   0.724   1.591 -0.5493  0.1627  1.8134
 1810TIP3   OH226920   2.243   3.603   1.670  0.0680 -0.6380  0.1230
 1810TIP3    H126921   2.326   3.557   1.660 -0.4270 -1.3932 -0.6349
 1810TIP3    H226922   2.264   3.679   1.725  1.5011 -0.1306 -1.0644
 1811TIP3   OH226923   3.335   2.051   0.183 -0.4604 -0.3345 -0.5420
 1811TIP3    H126924   3.285   1.986   0.134 -0.6289 -0.3874 -0.2993
 1811TIP3    H226925   3.414   2.065   0.131  0.1771 -1.6742  0.0239
 1812TIP3   OH226926   4.002   3.076   1.191  0.4746 -0.1857 -0.0451
 1812TIP3    H126927   4.010   3.026   1.273  0.2624 -0.4923 -0.2120
 1812TIP3    H226928   4.065   3.147   1.201 -0.5456  0.6338  1.0109
 1813TIP3   OH226929   6.480   4.135   4.243 -0.0984  0.2304 -0.1341
 1813TIP3    H126930   6.511   4.155   4.331  0.6135 -1.7345  0.0918
 1813TIP3    H226931   6.385   4.127   4.253  0.1275 -1.7763  0.8794
 1814TIP3   OH226932   1.605   4.215  10.988 -0.0438  0.0416  0.0490
 1814TIP3    H126933   1.513   4.204  10.964  0.4409  0.4685 -2.1899
 1814TIP3    H226934   1.622   4.309  10.978  0.8974 -0.1858 -0.6397
 1815TIP3   OH226935   5.089   0.544  11.425  0.0570  0.0507 -0.5986
 1815TIP3    H126936   5.144   0.579  11.355  1.8904 -0.0818  0.6811
 1815TIP3    H226937   5.076   0.617  11.485  1.8673 -0.7037  0.8539
 1816TIP3   OH226938   0.575   1.651  10.306 -0.1039 -0.5709 -0.3764
 1816TIP3    H126939   0.561   1.618  10.395 -1.7702  0.1653 -0.3059
 1816TIP3    H226940   0.491   1.637  10.262  0.5024 -0.3672 -1.6473
 1817TIP3   OH226941   4.375   3.152  14.949  0.4938  0.0491  0.0310
 1817TIP3    H126942   4.283   3.127  14.937  1.0781 -2.4464  0.2949
 1817TIP3    H226943   4.409   3.159  14.860  0.0426  1.0985 -0.0706
 1818TIP3   OH226944   3.139   6.666  13.425 -0.3914 -0.3769 -0.2407
 1818TIP3    H126945   3.079   6.733  13.391 -0.0163  0.5095  0.7963
 1818TIP3    H226946   3.226   6.707  13.417 -0.1845 -0.6283  0.6398
 1819TIP3   OH226947   6.620   0.668   2.198  0.3834  0.0088 -0.3475
 1819TIP3    H126948   6.683   0.599   2.176  0.8862  0.7396 -1.2744
 1819TIP3    H226949   6.670   0.730   2.251 -0.0914 -0.3686  0.5611
 1820TIP3   OH226950   3.959   4.454   1.599 -0.5008 -0.2533  0.6574
 1820TIP3    H126951   4.001   4.528   1.555 -0.7927  0.8525  2.1387
 1820TIP3    H226952   3.982   4.378   1.546 -0.9476  1.0023 -1.4229
 1821TIP3   OH226953   3.685   1.424   3.156 -0.6138 -0.0328 -0.0877
 1821TIP3    H126954   3.727   1.506   3.130 -0.3032 -0.5517 -1.2810
 1821TIP3    H226955   3.662   1.438   3.248 -1.6541  1.8368 -0.5731
 1822TIP3   OH226956   1.652   5.894   4.748 -0.0350  0.3389  0.1619
 1822TIP3    H126957   1.644   5.960   4.679  0.2369  0.6715  0.4441
 1822TIP3    H226958   1.621   5.939   4.827 -0.9750 -0.2439  0.1399
 1823TIP3   OH226959   2.588   2.513  13.322 -0.1319  0.2327 -0.2018
 1823TIP3    H126960   2.573   2.557  13.239  1.4178 -0.2284 -0.7646
 1823TIP3    H226961   2.608   2.422  13.298  0.9344  0.2240  0.5984
 1824TIP3   OH226962   5.221   3.498  14.905 -0.4223 -0.8557 -0.2916
 1824TIP3    H126963   5.194   3.499  14.996 -0.4015 -0.0219 -0.2949
 1824TIP3    H226964   5.255   3.409  14.892  1.0911 -0.4933  0.9522
 1825TIP3   OH226965   0.283   4.751  13.284  0.1660 -0.3089  0.2001
 1825TIP3    H126966   0.214   4.690  13.309 -2.1076  2.3108  0.7888
 1825TIP3    H226967   0.314   4.720  13.199 -3.3947 -0.3469 -1.2200
 1826TIP3   OH226968   6.544   1.883   1.496  0.6262 -0.9399 -0.2119
 1826TIP3    H126969   6.629   1.918   1.471 -0.2826  0.7624 -1.0858
 1826TIP3    H226970   6.500   1.864   1.413 -0.9176  1.0084  0.0818
 1827TIP3   OH226971   0.774   5.959  13.893  0.4084 -1.0695 -0.1287
 1827TIP3    H126972   0.805   5.904  13.821 -3.3346 -2.4018 -0.9405
 1827TIP3    H226973   0.785   5.905  13.971  0.9541 -1.1164 -0.2312
 1828TIP3   OH226974   3.179   4.192  10.953 -0.1479 -0.4913  0.2492
 1828TIP3    H126975   3.176   4.104  10.991 -0.5607 -0.9467 -0.7697
 1828TIP3    H226976   3.168   4.176  10.859 -3.2781  0.8211  0.2707
 1829TIP3   OH226977   6.532   1.708   4.399 -0.1881 -0.4798  0.0642
 1829TIP3    H126978   6.448   1.662   4.397 -1.8138  2.3034 -1.1690
 1829TIP3    H226979   6.544   1.732   4.490 -1.7853  0.7387  0.0039
 1830TIP3   OH226980   0.774   1.577  12.412  0.3597  0.0992 -0.1181
 1830TIP3    H126981   0.754   1.665  12.444  1.1335 -0.9125  3.7273
 1830TIP3    H226982   0.708   1.522  12.454  1.4834 -1.4337 -0.2873
 1831TIP3   OH226983   5.821   1.032  16.959  0.4868 -0.1688  0.4589
 1831TIP3    H126984   5.904   1.071  16.984  0.1754  0.4264  0.5876
 1831TIP3    H226985   5.837   0.996  16.871  0.6978  0.5204  0.2089
 1832TIP3   OH226986   5.897   6.211   2.555  0.4652 -0.2914  0.3958
 1832TIP3    H126987   5.925   6.261   2.631  0.8096  0.5893 -0.2848
 1832TIP3    H226988   5.803   6.224   2.550  0.4055 -0.5725  0.8270
 1833TIP3   OH226989   5.118   3.356  16.290 -0.1890 -0.0964 -0.0669
 1833TIP3    H126990   5.135   3.414  16.364 -0.8424 -1.5753  1.2908
 1833TIP3    H226991   5.144   3.269  16.320 -1.2782 -0.8821 -1.2468
 1834TIP3   OH226992   2.927   1.063   4.774  0.4237  0.0536 -0.6129
 1834TIP3    H126993   2.883   1.046   4.690  2.3274  0.3161 -1.7214
 1834TIP3    H226994   2.885   1.142   4.807 -1.6720 -1.1118 -0.3286
 1835TIP3   OH226995   2.223   3.693  16.255 -0.4917  0.0610 -0.1488
 1835TIP3    H126996   2.235   3.712  16.162  0.7811 -0.9807 -0.2200
 1835TIP3    H226997   2.218   3.780  16.296  1.6408  0.5918 -0.8734
 1836TIP3   OH226998   5.818   5.820  15.984  0.1846  0.4015 -0.4603
 1836TIP3    H126999   5.792   5.743  16.034 -0.3559 -0.0419 -1.3982
 1836TIP3    H227000   5.739   5.873  15.979 -0.7701 -1.0742 -3.5546
 1837TIP3   OH227001   3.029   0.583  14.141 -0.4322  0.1416 -0.8097
 1837TIP3    H127002   3.072   0.517  14.087 -0.6091  0.1892 -1.0089
 1837TIP3    H227003   2.963   0.534  14.191  0.6249 -0.1449  0.3836
 1838TIP3   OH227004   0.912   5.372   2.125  0.5536  0.2135  0.0680
 1838TIP3    H127005   0.991   5.416   2.157  1.2933 -0.4334 -0.8033
 1838TIP3    H227006   0.942   5.284   2.101 -0.8320 -0.7183  1.5447
 1839TIP3   OH227007   0.762   1.107   2.156 -0.0350  0.1131 -0.7317
 1839TIP3    H127008   0.815   1.184   2.177  0.5235 -0.4181 -0.1166
 1839TIP3    H227009   0.794   1.078   2.071  2.1374 -1.3587  0.4653
 1840TIP3   OH227010   6.788   2.408   2.680 -0.4731  0.2103 -0.0792
 1840TIP3    H127011   6.784   2.497   2.715  1.1223 -0.6516  2.6608
 1840TIP3    H227012   6.849   2.413   2.607 -0.2939  1.3597  0.1302
 1841TIP3   OH227013   0.389   0.572   6.628 -0.3496 -0.2247 -0.0583
 1841TIP3    H127014   0.479   0.539   6.632 -0.1185  0.2259 -1.1477
 1841TIP3    H227015   0.383   0.615   6.542 -1.7695 -0.7266 -0.2341
 1842TIP3   OH227016   6.254   1.718  16.834  0.0861  0.2599 -0.3841
 1842TIP3    H127017   6.164   1.746  16.854 -0.3622 -0.8683 -0.7685
 1842TIP3    H227018   6.309   1.777  16.886 -0.9091  0.3953  0.5540
 1843TIP3   OH227019   2.793   3.198  11.056  0.3649  0.5347  0.3080
 1843TIP3    H127020   2.790   3.194  10.960  0.0556  1.3832  0.2763
 1843TIP3    H227021   2.825   3.112  11.082 -0.6971 -0.1282 -0.4985
 1844TIP3   OH227022   6.537   0.212   5.514 -0.2518  0.5875  0.7840
 1844TIP3    H127023   6.591   0.204   5.436 -0.2323  0.1887  0.8338
 1844TIP3    H227024   6.567   0.293   5.556 -0.0593  0.6472  0.5335
 1845TIP3   OH227025   4.924   2.241   4.071  0.9233  0.1078 -0.7204
 1845TIP3    H127026   4.953   2.150   4.064 -1.0794 -0.7091  0.6315
 1845TIP3    H227027   4.859   2.251   4.002  1.0076  0.4790 -0.7504
 1846TIP3   OH227028   4.625   0.040   5.340 -0.2839  0.5086  0.0909
 1846TIP3    H127029   4.576  -0.040   5.357 -2.5056  1.8277  0.2193
 1846TIP3    H227030   4.680   0.020   5.264 -0.5984 -1.1845  0.2819
 1847TIP3   OH227031   2.129   3.720   3.228  0.3601  0.7278  0.4154
 1847TIP3    H127032   2.164   3.652   3.286 -0.1002  0.5994  0.5523
 1847TIP3    H227033   2.141   3.685   3.140  1.8388  1.2922  0.3677
 1848TIP3   OH227034   4.047   3.167   6.085 -0.0411 -0.2372 -0.4748
 1848TIP3    H127035   4.119   3.110   6.112 -0.5944 -1.0555 -0.6784
 1848TIP3    H227036   4.085   3.222   6.016  0.4419 -0.5199 -0.4423
 1849TIP3   OH227037   5.401   2.508   3.538 -0.1259 -0.0756  1.0593
 1849TIP3    H127038   5.454   2.584   3.512  0.5763 -1.5715 -2.5763
 1849TIP3    H227039   5.315   2.545   3.558 -0.0510  1.7241 -1.4157
 1850TIP3   OH227040   6.445   2.567  15.145  0.4039 -0.0837 -0.0739
 1850TIP3    H127041   6.378   2.591  15.081 -0.6135  1.1961  1.4051
 1850TIP3    H227042   6.491   2.649  15.164  0.7582 -0.4603  0.7564
 1851TIP3   OH227043   1.333   0.488   3.489  0.2967 -0.5146 -0.0294
 1851TIP3    H127044   1.319   0.561   3.428 -2.0598 -0.9055 -0.0554
 1851TIP3    H227045   1.350   0.530   3.573  1.1752  0.0346 -0.4633
 1852TIP3   OH227046   0.969   2.769  12.223 -0.7248 -0.0162  0.0921
 1852TIP3    H127047   0.910   2.695  12.236 -0.2374 -0.5526 -0.6620
 1852TIP3    H227048   1.056   2.729  12.211 -0.6937  0.5520 -1.9190
 1853TIP3   OH227049   4.023   2.672  11.940 -0.0193 -0.0011  0.4620
 1853TIP3    H127050   4.008   2.757  11.897 -0.6781  0.7291  2.0701
 1853TIP3    H227051   3.950   2.618  11.909  1.2431 -0.5433 -1.8018
 1854TIP3   OH227052   4.162   2.319   0.070 -0.4806 -0.5226  0.1559
 1854TIP3    H127053   4.157   2.348  -0.021  0.5756  0.2338  0.3168
 1854TIP3    H227054   4.208   2.235   0.066 -1.2254 -0.9292 -0.0751
 1855TIP3   OH227055   0.942   3.991   5.694  0.3578  0.4625 -0.4326
 1855TIP3    H127056   0.894   4.011   5.614  1.6164 -0.2771 -1.4169
 1855TIP3    H227057   0.881   3.940   5.747 -1.0523  2.2986 -0.1830
 1856TIP3   OH227058   2.494   2.858  11.085 -0.0471 -0.2672 -0.1623
 1856TIP3    H127059   2.437   2.918  11.133  1.0081  1.4077 -0.9343
 1856TIP3    H227060   2.531   2.801  11.152  0.1038  0.9403  0.8068
 1857TIP3   OH227061   6.413   1.570   2.340 -0.2081 -0.1030  0.0495
 1857TIP3    H127062   6.455   1.555   2.256  0.2612  0.5677  0.1559
 1857TIP3    H227063   6.325   1.600   2.318  0.0549  0.4957 -0.2268
 1858TIP3   OH227064   3.568   5.518   4.216 -0.4604  0.0204  0.2627
 1858TIP3    H127065   3.618   5.593   4.184 -0.9725  0.5329  0.6195
 1858TIP3    H227066   3.493   5.558   4.262 -1.1191 -0.7122 -0.1453
 1859TIP3   OH227067   2.478   4.067  10.366 -0.2824 -0.4843 -0.2408
 1859TIP3    H127068   2.408   4.093  10.427 -0.3380 -2.4719  0.6415
 1859TIP3    H227069   2.557   4.064  10.420  0.2103  0.2830 -0.8962
 1860TIP3   OH227070   5.146   6.203  14.970  0.3666 -0.0079 -0.2226
 1860TIP3    H127071   5.097   6.255  14.908  0.0597 -1.8680 -1.6261
 1860TIP3    H227072   5.080   6.166  15.029  0.4478  0.2419  0.0238
 1861TIP3   OH227073   1.703   2.717   5.553  0.4921  0.0964  0.3588
 1861TIP3    H127074   1.665   2.760   5.476 -1.2641 -0.2015  0.9980
 1861TIP3    H227075   1.726   2.789   5.611  3.7470  0.4662 -1.1593
 1862TIP3   OH227076   2.809   0.659   2.925 -0.2279  0.0902 -0.4670
 1862TIP3    H127077   2.761   0.624   2.850 -1.1809  1.9459 -0.7686
 1862TIP3    H227078   2.868   0.724   2.887  0.8649 -0.4825  0.1814
 1863TIP3   OH227079   4.650   6.435  12.292  0.1278  0.5180  0.0563
 1863TIP3    H127080   4.561   6.470  12.301  0.7588  2.3209 -0.2516
 1863TIP3    H227081   4.671   6.450  12.199  0.7994  0.2116  0.1601
 1864TIP3   OH227082   0.281   3.744   5.403 -0.3424 -0.0169  0.1085
 1864TIP3    H127083   0.313   3.802   5.472  1.6472  0.9749 -1.5243
 1864TIP3    H227084   0.361   3.703   5.368 -1.4147 -1.4039 -0.8227
 1865TIP3   OH227085   4.210   3.639   4.043  0.0353  0.5240 -0.7904
 1865TIP3    H127086   4.124   3.609   4.073  0.1135  0.7583 -0.3136
 1865TIP3    H227087   4.191   3.695   3.967 -0.1956  0.1974 -0.9735
 1866TIP3   OH227088   5.587   4.164   4.019 -0.3544  0.2230 -0.1015
 1866TIP3    H127089   5.594   4.184   3.926 -1.4398  0.7177 -0.0936
 1866TIP3    H227090   5.524   4.227   4.052 -0.9641 -0.7816  0.7111
 1867TIP3   OH227091   2.078   2.683  16.046 -0.7983 -0.0454  0.1399
 1867TIP3    H127092   2.085   2.601  15.997  0.7925 -0.2314  0.6202
 1867TIP3    H227093   2.166   2.699  16.077 -0.8725  2.3426 -0.7012
 1868TIP3   OH227094   3.432   0.833   5.572 -0.5478 -0.2601  0.1723
 1868TIP3    H127095   3.527   0.830   5.579 -0.5652  1.2765  1.7650
 1868TIP3    H227096   3.410   0.926   5.577 -2.1014 -0.5149 -1.0476
 1869TIP3   OH227097   1.360   6.070  12.191 -0.2293 -0.0571  0.0883
 1869TIP3    H127098   1.348   6.165  12.186  1.4373  0.3263  2.0515
 1869TIP3    H227099   1.307   6.035  12.119  0.4026  2.4506 -1.7093
 1870TIP3   OH227100   2.549   5.624   2.499 -0.1915 -0.6494  0.3495
 1870TIP3    H127101   2.624   5.572   2.526 -0.3930 -1.2043 -0.1523
 1870TIP3    H227102   2.525   5.591   2.413 -1.0973 -0.5785  0.5560
 1871TIP3   OH227103   6.284   6.233  11.944  0.4911 -0.9267  0.0518
 1871TIP3    H127104   6.302   6.207  11.854  0.2465 -0.5172 -0.1181
 1871TIP3    H227105   6.282   6.329  11.942  3.0103 -0.7815  0.9643
 1872TIP3   OH227106   0.744   2.430  14.361  0.0464 -0.0514  0.0558
 1872TIP3    H127107   0.831   2.424  14.401  0.2747  0.2944 -0.3886
 1872TIP3    H227108   0.684   2.436  14.436  0.6988  4.3901  0.4585
 1873TIP3   OH227109   3.088   2.218   5.718 -0.6621 -0.0091  0.3616
 1873TIP3    H127110   3.129   2.209   5.804 -0.8811 -0.2399  0.4432
 1873TIP3    H227111   2.997   2.242   5.738 -0.4178  1.1323  0.1754
 1874TIP3   OH227112   5.011   6.044   5.628 -0.0091  0.0354  0.2107
 1874TIP3    H127113   5.094   6.092   5.638 -1.0322  1.9587 -0.1006
 1874TIP3    H227114   5.011   6.016   5.536  0.8693 -1.1406  0.5493
 1875TIP3   OH227115   1.404   1.346  14.565  0.2505 -0.4217  0.5227
 1875TIP3    H127116   1.416   1.277  14.500 -0.8865 -1.1201  1.0363
 1875TIP3    H227117   1.487   1.350  14.612  1.1464  0.1784 -1.0191
 1876TIP3   OH227118   6.288   0.687  11.208  0.5703 -0.1832 -0.0448
 1876TIP3    H127119   6.226   0.637  11.154  1.8750 -1.2870 -0.5916
 1876TIP3    H227120   6.254   0.776  11.209 -1.0890 -0.7883 -0.2046
 1877TIP3   OH227121   5.377   2.008  13.320 -0.1102 -0.9730 -0.3880
 1877TIP3    H127122   5.430   1.935  13.352 -0.4455  0.0966  2.9777
 1877TIP3    H227123   5.288   1.974  13.317 -0.0366 -1.1584 -0.4980
 1878TIP3   OH227124   5.722   4.278   4.685 -0.4396  0.2288 -0.3076
 1878TIP3    H127125   5.715   4.296   4.591  0.3770  2.3429 -0.0182
 1878TIP3    H227126   5.776   4.199   4.690 -3.6202 -2.2520 -1.6598
 1879TIP3   OH227127   2.718   6.668   0.638  0.2775  0.3714 -0.1055
 1879TIP3    H127128   2.698   6.683   0.546  1.6593 -1.3274 -0.7316
 1879TIP3    H227129   2.810   6.641   0.640 -0.0525 -0.8655  1.5950
 1880TIP3   OH227130   1.328   0.765  13.182  0.2221  0.4242  0.3567
 1880TIP3    H127131   1.265   0.709  13.137  0.1116  1.9179 -1.5186
 1880TIP3    H227132   1.320   0.850  13.137  1.6106  1.4409  1.9060
 1881TIP3   OH227133   5.732   0.225  16.325 -0.4569 -0.6022 -0.1235
 1881TIP3    H127134   5.807   0.262  16.371  0.3016 -1.0526 -0.9745
 1881TIP3    H227135   5.765   0.144  16.286 -0.8200  0.1934 -2.1917
 1882TIP3   OH227136   6.076   0.606  13.066  0.0191  0.1897  0.2444
 1882TIP3    H127137   6.083   0.689  13.018  0.8207  0.4939  0.8706
 1882TIP3    H227138   6.145   0.551  13.030 -0.4461 -0.1804 -0.0988
 1883TIP3   OH227139   0.226   2.785  15.672  0.4423 -0.8618 -0.0861
 1883TIP3    H127140   0.267   2.826  15.748 -0.2296  0.0291 -0.1835
 1883TIP3    H227141   0.285   2.713  15.649  2.6152  1.0845 -0.9760
 1884TIP3   OH227142   1.400   5.777   4.065  0.0747 -0.0945  0.1712
 1884TIP3    H127143   1.362   5.721   3.996  1.2870  1.1406 -1.5852
 1884TIP3    H227144   1.493   5.756   4.064  1.0447  3.4619 -2.2325
 1885TIP3   OH227145   5.968   2.695  10.585 -0.1468  0.0531  0.1166
 1885TIP3    H127146   5.883   2.662  10.614  0.7124 -1.8193  0.6372
 1885TIP3    H227147   6.029   2.671  10.655  0.8486  1.2592 -0.2922
 1886TIP3   OH227148   4.543   2.528   5.214  1.0020 -0.0262 -0.2143
 1886TIP3    H127149   4.584   2.557   5.132  1.7273  1.2120  0.5540
 1886TIP3    H227150   4.488   2.454   5.188  0.2528  1.1042 -2.0258
 1887TIP3   OH227151   1.336   4.573   3.487  0.1870 -0.3781 -0.0700
 1887TIP3    H127152   1.415   4.520   3.499  1.3619  0.9340 -1.4656
 1887TIP3    H227153   1.275   4.515   3.441  1.3132 -0.6750 -1.2693
 1888TIP3   OH227154   5.883   2.876  10.392 -0.5374  0.1440  0.3944
 1888TIP3    H127155   5.895   2.838  10.304  0.8937  1.2425  0.0822
 1888TIP3    H227156   5.906   2.805  10.452  2.2527  0.4659 -0.1770
 1889TIP3   OH227157   1.990   5.918  11.037  0.2846 -0.4062 -0.2258
 1889TIP3    H127158   1.999   5.838  10.985 -2.1201 -2.0421  1.6561
 1889TIP3    H227159   2.023   5.894  11.124  1.0343  1.1938 -0.0322
 1890TIP3   OH227160   5.942   6.280  16.585  0.6948  0.6706 -0.2084
 1890TIP3    H127161   5.998   6.323  16.649  2.0832  2.0385 -2.2143
 1890TIP3    H227162   5.887   6.350  16.550 -0.8939 -0.2790  0.2919
 1891TIP3   OH227163   0.099   4.309  12.577  0.4598  0.2816 -0.4166
 1891TIP3    H127164   0.088   4.400  12.602  0.5060  0.4804 -1.1021
 1891TIP3    H227165   0.194   4.294  12.583  0.2759 -0.3069  1.6492
 1892TIP3   OH227166   2.277   6.523  12.175  0.5594 -0.3058  0.0524
 1892TIP3    H127167   2.198   6.572  12.194  0.2799 -0.2452 -1.1596
 1892TIP3    H227168   2.293   6.470  12.253 -0.7604 -0.4331  0.2572
 1893TIP3   OH227169   4.224   5.223   0.904 -0.2987  0.3490 -0.3870
 1893TIP3    H127170   4.141   5.197   0.863 -0.3239  1.2965 -0.9606
 1893TIP3    H227171   4.275   5.261   0.832  1.2235 -1.5081 -0.3617
 1894TIP3   OH227172   6.422   6.671  10.478 -0.1751  0.0239  0.5677
 1894TIP3    H127173   6.385   6.652  10.564 -0.3135  0.1787  0.5425
 1894TIP3    H227174   6.352   6.649  10.417 -0.5679  1.2182  0.5744
 1895TIP3   OH227175   0.628   0.131  13.831  0.6915  0.0552 -0.2558
 1895TIP3    H127176   0.705   0.187  13.817  0.7251  0.3094  0.8513
 1895TIP3    H227177   0.665   0.045  13.851  0.6470 -0.2721 -1.5391
 1896TIP3   OH227178   3.087   1.364  15.013 -0.0665  0.3158  0.5108
 1896TIP3    H127179   3.036   1.332  14.939  0.1828 -1.0692  0.8955
 1896TIP3    H227180   3.106   1.455  14.992 -1.1664  0.3432 -0.4700
 1897TIP3   OH227181   3.200   6.840   3.942  0.1442 -0.3065 -0.1709
 1897TIP3    H127182   3.110   6.811   3.926  0.1997  0.4665 -2.1891
 1897TIP3    H227183   3.252   6.795   3.875  1.2396 -0.5939  0.8468
 1898TIP3   OH227184   0.907   5.359   3.918 -0.0761 -0.1039  0.1986
 1898TIP3    H127185   0.963   5.423   3.875  1.5578 -0.6081  1.4935
 1898TIP3    H227186   0.838   5.411   3.959 -0.9570  0.4809 -1.8638
 1899TIP3   OH227187   1.396   6.551   3.819 -0.1740 -0.0955  0.0942
 1899TIP3    H127188   1.388   6.456   3.817  1.0151 -0.1990 -1.2993
 1899TIP3    H227189   1.310   6.582   3.788 -0.6584 -0.6837  0.8047
 1900TIP3   OH227190   1.506   4.007  14.591 -0.3369  0.0907 -0.1548
 1900TIP3    H127191   1.460   3.928  14.619 -2.2000 -0.3436 -3.8924
 1900TIP3    H227192   1.456   4.079  14.630 -0.1052 -0.4516  1.2185
 1901TIP3   OH227193   1.457   2.072  11.944  0.1383 -0.2100  0.4401
 1901TIP3    H127194   1.453   2.138  11.874  0.1381 -0.0713  0.5696
 1901TIP3    H227195   1.366   2.060  11.971 -0.0554 -1.4867 -0.7120
 1902TIP3   OH227196   1.062   6.855  15.424 -0.5955 -0.3985  0.4078
 1902TIP3    H127197   1.004   6.830  15.496 -0.9735  0.0554  0.2665
 1902TIP3    H227198   1.049   6.950  15.414 -0.0649 -0.3467  0.1676
 1903TIP3   OH227199   2.956   5.945   0.162 -0.3843 -0.0757  0.6374
 1903TIP3    H127200   3.007   5.869   0.188 -1.7034 -0.6809  1.6005
 1903TIP3    H227201   2.865   5.916   0.169 -0.8769  0.7740 -1.5724
 1904TIP3   OH227202   1.014   2.996  12.033 -0.2440  0.0190 -0.4683
 1904TIP3    H127203   0.978   2.928  12.090 -0.9335  0.4982 -0.3251
 1904TIP3    H227204   1.054   3.059  12.093 -2.1685  1.2359 -0.3757
 1905TIP3   OH227205   2.697   0.212   2.094  0.1536 -0.3885 -0.1421
 1905TIP3    H127206   2.615   0.169   2.118  0.1257 -0.4278 -0.3090
 1905TIP3    H227207   2.735   0.155   2.027  0.8319 -0.9430  0.6911
 1906TIP3   OH227208   3.584   5.586   0.657 -0.1313  0.2671  0.0348
 1906TIP3    H127209   3.623   5.499   0.653 -0.1766  0.3087 -1.7293
 1906TIP3    H227210   3.531   5.584   0.737  0.8084 -0.8983  0.6671
 1907TIP3   OH227211   2.558   5.864   3.252 -0.3375 -0.1904  0.3876
 1907TIP3    H127212   2.578   5.937   3.193 -1.2870  0.5323  0.9385
 1907TIP3    H227213   2.493   5.812   3.205 -0.0183 -0.4187  0.1962
 1908TIP3   OH227214   3.298   5.662   6.205  0.5462 -0.0874 -0.3951
 1908TIP3    H127215   3.279   5.573   6.174  1.6237 -0.8143  0.9296
 1908TIP3    H227216   3.307   5.653   6.300 -1.2235  1.8054  0.0259
 1909TIP3   OH227217   3.802   4.208   3.155  0.0858 -0.3634  0.1951
 1909TIP3    H127218   3.818   4.119   3.124 -1.5281 -0.9481  0.9657
 1909TIP3    H227219   3.857   4.217   3.233  1.6299 -0.0176 -0.8726
 1910TIP3   OH227220   0.739   0.885  16.448 -0.7562 -0.2731 -0.1833
 1910TIP3    H127221   0.710   0.890  16.539 -1.3115  0.6767 -0.3931
 1910TIP3    H227222   0.812   0.824  16.449  1.2609  1.9830  1.4337
 1911TIP3   OH227223   4.159   5.632   0.984  0.0656 -0.1513 -0.2930
 1911TIP3    H127224   4.220   5.650   1.055  0.9357 -0.8786 -0.8416
 1911TIP3    H227225   4.202   5.667   0.906  1.2152 -3.3080 -1.1891
 1912TIP3   OH227226   4.492   2.151  13.974  0.2985  0.3491  0.0108
 1912TIP3    H127227   4.554   2.100  14.027 -2.0834 -1.4304  1.2497
 1912TIP3    H227228   4.520   2.137  13.884  1.4438 -0.7325  0.5094
 1913TIP3   OH227229   0.722   5.602  13.083  0.3674  0.3354 -0.2352
 1913TIP3    H127230   0.699   5.690  13.052  0.5927  0.3673 -0.3162
 1913TIP3    H227231   0.692   5.601  13.174  0.8156  0.6752 -0.0778
 1914TIP3   OH227232   4.085   3.871   1.120  0.3585  0.7373  0.1716
 1914TIP3    H127233   4.170   3.913   1.129  1.3754 -1.5674  2.5771
 1914TIP3    H227234   4.105   3.781   1.095 -1.2267 -0.2010  1.9898
 1915TIP3   OH227235   5.020   0.390   2.754  0.3017  0.1394  0.0777
 1915TIP3    H127236   5.091   0.426   2.808  0.7308 -0.3202 -0.1682
 1915TIP3    H227237   4.985   0.318   2.806 -0.0113  0.3918  0.2155
 1916TIP3   OH227238   4.357   3.374   4.062  0.1704  0.4455  0.6938
 1916TIP3    H127239   4.283   3.435   4.054  0.2484  0.4317 -0.2255
 1916TIP3    H227240   4.402   3.379   3.977  0.9166  0.0560  1.0585
 1917TIP3   OH227241   5.229   2.633   1.177  0.0483 -0.3322 -0.4658
 1917TIP3    H127242   5.322   2.627   1.155  0.1992 -0.3321  0.1611
 1917TIP3    H227243   5.190   2.676   1.102  0.1607 -2.4362 -1.8265
 1918TIP3   OH227244   1.953   0.541   0.824 -0.1944  0.0685 -0.1893
 1918TIP3    H127245   1.994   0.588   0.896 -0.1187  0.7622 -0.6686
 1918TIP3    H227246   1.979   0.450   0.836  0.1416  0.2402  0.4299
 1919TIP3   OH227247   1.096   5.104   4.396 -1.0230 -0.3531  0.1909
 1919TIP3    H127248   1.054   5.072   4.475 -0.0824  0.7065  1.1574
 1919TIP3    H227249   1.189   5.084   4.408 -1.1223 -2.5764 -1.8529
 1920TIP3   OH227250   1.093   4.886   0.529 -0.2411 -0.2459 -0.2157
 1920TIP3    H127251   1.085   4.790   0.534  1.6800 -0.4570 -0.2584
 1920TIP3    H227252   1.066   4.916   0.615  1.9754 -1.1404  0.8860
 1921TIP3   OH227253   1.894   1.511   4.402 -0.3980 -0.0172  0.1095
 1921TIP3    H127254   1.852   1.563   4.471  0.5389 -0.4315  1.0100
 1921TIP3    H227255   1.927   1.433   4.446 -0.5311 -0.7118 -0.9708
 1922TIP3   OH227256   2.880   0.516  16.080 -0.2817  0.6771 -0.7086
 1922TIP3    H127257   2.921   0.531  15.995  0.9162  0.0796 -0.2579
 1922TIP3    H227258   2.929   0.572  16.140 -0.6689  0.5674 -0.2901
 1923TIP3   OH227259   1.492   4.892   1.920 -0.1312  0.8886  0.3549
 1923TIP3    H127260   1.559   4.941   1.872  0.0776 -0.8317 -1.2238
 1923TIP3    H227261   1.412   4.944   1.909  0.2802  1.3872 -0.4050
 1924TIP3   OH227262   6.601   1.941  12.825  0.5624 -0.7670 -0.0894
 1924TIP3    H127263   6.572   1.873  12.765  3.0637 -0.6115 -1.6291
 1924TIP3    H227264   6.695   1.925  12.836  1.0757  1.9081  0.1521
 1925TIP3   OH227265   1.565   0.225  12.510 -0.3678  0.3486  0.6052
 1925TIP3    H127266   1.540   0.141  12.549 -4.7891  0.9425 -0.3984
 1925TIP3    H227267   1.561   0.210  12.416  0.1181  1.3643  0.4118
 1926TIP3   OH227268   1.176   1.058  15.520  0.1432 -0.4034  0.1529
 1926TIP3    H127269   1.266   1.025  15.513  0.2343  0.0741 -1.1482
 1926TIP3    H227270   1.172   1.095  15.609  0.5241 -2.3999  1.0551
 1927TIP3   OH227271   4.140   4.172  16.904 -0.3064 -0.8568  0.0327
 1927TIP3    H127272   4.139   4.268  16.904  0.9640 -0.8059  1.9311
 1927TIP3    H227273   4.048   4.148  16.897 -0.5663  0.4188 -2.3511
 1928TIP3   OH227274   2.956   4.712  10.947  0.0139 -0.0090 -0.4658
 1928TIP3    H127275   3.007   4.691  10.868 -1.3798 -0.7041 -1.2248
 1928TIP3    H227276   3.021   4.717  11.017  1.6046  2.5974 -1.9341
 1929TIP3   OH227277   2.670   6.763  16.237  0.3505  0.0980 -0.3013
 1929TIP3    H127278   2.725   6.742  16.313  0.3653 -0.6056 -0.4966
 1929TIP3    H227279   2.643   6.853  16.252 -1.0287 -0.5292  1.4012
 1930TIP3   OH227280   6.287   4.544   0.489  0.1570  0.3503 -0.3212
 1930TIP3    H127281   6.325   4.460   0.516 -0.0414  0.1282 -0.7179
 1930TIP3    H227282   6.202   4.520   0.451  1.1460  0.4595 -2.7513
 1931TIP3   OH227283   1.377   4.312  16.094 -0.2621 -0.7659  0.2283
 1931TIP3    H127284   1.402   4.224  16.067  0.6119 -0.5760  0.3842
 1931TIP3    H227285   1.449   4.368  16.063 -0.1098 -0.2994  1.3838
 1932TIP3   OH227286   2.085   6.737  12.868  0.8790  0.1466  0.0148
 1932TIP3    H127287   2.069   6.806  12.804 -1.7293 -0.6147 -0.2599
 1932TIP3    H227288   2.121   6.664  12.817  1.8943  0.6370  0.0044
 1933TIP3   OH227289   2.490   1.461  12.677  0.2082 -0.0650 -0.1210
 1933TIP3    H127290   2.481   1.390  12.615  1.3921  0.5280 -1.0083
 1933TIP3    H227291   2.582   1.459  12.704 -0.0895  0.2021  0.9923
 1934TIP3   OH227292   5.479   3.098   5.517  0.2239  0.1524  0.2457
 1934TIP3    H127293   5.549   3.068   5.575 -0.0612 -2.2795 -0.5476
 1934TIP3    H227294   5.437   3.017   5.487 -1.5164  1.4626 -1.0279
 1935TIP3   OH227295   3.076   4.444   3.144 -0.3172 -0.0436 -0.0176
 1935TIP3    H127296   3.046   4.534   3.138 -0.6064 -0.1898 -0.9872
 1935TIP3    H227297   3.160   4.443   3.098  0.3774  0.0099  1.2105
 1936TIP3   OH227298   6.738   1.257   6.247  0.4675 -0.2012 -0.5694
 1936TIP3    H127299   6.806   1.196   6.216  1.6366  1.0103 -0.4792
 1936TIP3    H227300   6.695   1.287   6.167 -0.6380 -1.6857 -0.5714
 1937TIP3   OH227301   4.962   6.463  16.942 -0.3158  0.0831  0.0068
 1937TIP3    H127302   4.946   6.426  17.028  1.8835  1.5474  1.1433
 1937TIP3    H227303   5.030   6.407  16.903  0.5128  0.8457  0.3106
 1938TIP3   OH227304   0.717   0.513   1.470 -0.0004 -0.4425  0.0622
 1938TIP3    H127305   0.654   0.568   1.515 -0.4330 -1.0979  0.2740
 1938TIP3    H227306   0.716   0.430   1.518 -0.2952 -1.0719 -0.9862
 1939TIP3   OH227307   5.032   6.552   3.853  0.0450  0.2675  0.1626
 1939TIP3    H127308   5.089   6.584   3.783  1.8629 -2.2107  0.3396
 1939TIP3    H227309   4.957   6.514   3.808  0.6557 -0.3047 -0.3978
 1940TIP3   OH227310   6.750   2.409   0.809  0.0990  0.0130 -0.1213
 1940TIP3    H127311   6.740   2.315   0.798 -0.9495  0.2868 -1.9233
 1940TIP3    H227312   6.722   2.446   0.725  0.1087  1.9476  0.6762
 1941TIP3   OH227313   5.882   1.235  12.936  0.1046  0.3672  0.4440
 1941TIP3    H127314   5.852   1.144  12.931  0.4212  0.3320 -1.1703
 1941TIP3    H227315   5.885   1.265  12.845 -1.2885  2.4409  1.0048
 1942TIP3   OH227316   3.345   4.026   5.299 -0.3713 -0.1952  0.4472
 1942TIP3    H127317   3.279   3.958   5.309  0.2746 -1.2357 -1.7714
 1942TIP3    H227318   3.428   3.984   5.323 -0.2762  0.6721  1.7797
 1943TIP3   OH227319   2.470   0.205   2.636 -0.4499 -0.2260  0.1197
 1943TIP3    H127320   2.405   0.273   2.624  0.0889 -0.0643 -2.3762
 1943TIP3    H227321   2.434   0.128   2.592  0.5275 -0.4674 -0.3009
 1944TIP3   OH227322   0.322   1.987  13.662  0.6996  0.1818 -0.0283
 1944TIP3    H127323   0.252   1.984  13.727  0.0137  0.3223 -0.7426
 1944TIP3    H227324   0.278   1.974  13.578  1.6505 -0.6649 -0.4216
 1945TIP3   OH227325   0.950   4.753   1.524  0.4996  1.0997 -0.2047
 1945TIP3    H127326   0.879   4.688   1.524  2.5184 -1.3483  2.1241
 1945TIP3    H227327   1.002   4.731   1.447  1.2096 -0.1925  0.6088
 1946TIP3   OH227328   4.301   5.982   2.288  0.6361  0.0060 -0.3540
 1946TIP3    H127329   4.279   5.919   2.357  1.4759 -1.3498 -1.2922
 1946TIP3    H227330   4.218   6.001   2.245  0.0900  0.8988  1.0170
 1947TIP3   OH227331   4.549   4.790   1.918 -0.2363 -0.5164  0.5396
 1947TIP3    H127332   4.606   4.859   1.953  0.3251 -1.5267  1.6802
 1947TIP3    H227333   4.594   4.709   1.939 -1.3195 -1.2827 -0.0030
 1948TIP3   OH227334   4.462   6.055  13.855 -0.7148 -0.3141  0.3476
 1948TIP3    H127335   4.543   6.005  13.849 -0.3784  0.2521  0.1171
 1948TIP3    H227336   4.473   6.110  13.932  0.6454  2.3931 -1.6277
 1949TIP3   OH227337   0.862   5.283  10.196  0.4052  0.1739  0.4995
 1949TIP3    H127338   0.936   5.325  10.240  1.2876 -0.8400  0.0192
 1949TIP3    H227339   0.786   5.307  10.249  1.1195  0.9341  1.2119
 1950TIP3   OH227340   0.245   2.293   3.116 -0.1259 -0.6812 -0.0181
 1950TIP3    H127341   0.267   2.263   3.204  3.9288 -0.1467 -0.6504
 1950TIP3    H227342   0.215   2.215   3.070 -0.9655 -1.2333  1.4272
 1951TIP3   OH227343   0.564   5.357   0.862  0.0003 -0.2893  0.3595
 1951TIP3    H127344   0.531   5.271   0.838  2.6400 -1.9583  2.1690
 1951TIP3    H227345   0.654   5.358   0.830 -0.0375  1.9882  0.1230
 1952TIP3   OH227346   3.454   4.871   4.291 -0.7730  0.2664  0.3039
 1952TIP3    H127347   3.474   4.802   4.228  1.2620  1.3405 -0.3269
 1952TIP3    H227348   3.359   4.879   4.288 -0.9345 -1.4639 -0.7155
 1953TIP3   OH227349   2.914   5.629  15.152 -0.0796  0.2570 -0.3116
 1953TIP3    H127350   2.989   5.570  15.164 -0.2072  0.1969  0.2337
 1953TIP3    H227351   2.869   5.627  15.237 -1.0942 -0.2519 -0.8420
 1954TIP3   OH227352   4.651   6.078  16.207 -0.5549  0.0951  0.1388
 1954TIP3    H127353   4.725   6.101  16.263  0.0391 -1.9364  0.2603
 1954TIP3    H227354   4.690   6.030  16.133 -1.6603 -0.3928 -0.1537
 1955TIP3   OH227355   3.824   6.471   0.705 -0.3389  0.0860 -0.4561
 1955TIP3    H127356   3.824   6.448   0.798  2.4453  0.2396 -0.3450
 1955TIP3    H227357   3.901   6.526   0.694 -1.9313  2.0980 -2.4326
 1956TIP3   OH227358   1.440   0.190   1.305 -0.0363 -0.1910  0.2067
 1956TIP3    H127359   1.428   0.175   1.211  2.8289 -2.2258  0.0455
 1956TIP3    H227360   1.516   0.248   1.310 -0.9323  0.9388  1.3013
 1957TIP3   OH227361   2.097   2.786  13.883 -0.4488  0.8096  0.2123
 1957TIP3    H127362   2.058   2.828  13.960  0.7604  0.9439  0.7816
 1957TIP3    H227363   2.169   2.734  13.919  0.1867  0.9516 -0.8317
 1958TIP3   OH227364   4.230   3.016  12.653  0.2858  0.9583  0.1998
 1958TIP3    H127365   4.299   3.005  12.588 -0.1455  0.9113 -0.2534
 1958TIP3    H227366   4.236   2.939  12.709 -0.3783  0.2041 -0.7563
 1959TIP3   OH227367   1.556   5.417   1.802  0.0070 -0.1376  0.4571
 1959TIP3    H127368   1.540   5.505   1.768 -0.5569  0.4280  2.0673
 1959TIP3    H227369   1.479   5.367   1.776  0.9209 -0.5512 -1.5981
 1960TIP3   OH227370   5.065   3.642  12.731 -0.5476 -0.1976 -0.2047
 1960TIP3    H127371   5.033   3.619  12.644 -0.5291 -0.5067 -0.1318
 1960TIP3    H227372   5.074   3.558  12.776 -0.4995 -0.0428  0.0753
 1961TIP3   OH227373   2.352   1.927   1.765  0.2373 -0.2168  0.5428
 1961TIP3    H127374   2.412   1.971   1.705  1.1934 -1.4963  0.4979
 1961TIP3    H227375   2.266   1.961   1.743  0.8150  0.8589 -0.1512
 1962TIP3   OH227376   2.210   5.402  11.150  0.1877  0.2071  0.1216
 1962TIP3    H127377   2.241   5.327  11.201  0.2416  0.6410  0.7277
 1962TIP3    H227378   2.149   5.363  11.087  0.8002 -0.4506 -0.0920
 1963TIP3   OH227379   0.089   5.756   0.190  0.1010 -0.2852  0.2654
 1963TIP3    H127380   0.112   5.683   0.131  2.2270 -1.1160  1.9989
 1963TIP3    H227381   0.037   5.715   0.259 -3.1466  0.8372 -1.3219
 1964TIP3   OH227382   2.151   5.605   1.820  0.5570  0.6387  0.3637
 1964TIP3    H127383   2.184   5.518   1.798  1.3868  0.8094  0.8947
 1964TIP3    H227384   2.058   5.592   1.838  0.7571 -0.2023  0.8232
 1965TIP3   OH227385   2.779   0.300   5.676 -0.2594  0.3544  0.2237
 1965TIP3    H127386   2.777   0.368   5.743  0.7852  1.3534 -0.7044
 1965TIP3    H227387   2.857   0.320   5.624  0.4726 -1.9302  0.2894
 1966TIP3   OH227388   2.123   6.056   0.056  0.2222  0.4933 -0.7701
 1966TIP3    H127389   2.176   5.995   0.003  1.4831  1.9890 -1.3008
 1966TIP3    H227390   2.035   6.051   0.017  0.1133 -1.4573 -0.3742
 1967TIP3   OH227391   4.991   6.820  12.233  0.0780  0.7940  0.2014
 1967TIP3    H127392   5.071   6.785  12.194 -0.3666  1.7818 -1.6883
 1967TIP3    H227393   4.922   6.759  12.206 -0.1636  1.2258 -0.1661
 1968TIP3   OH227394   0.272   6.792  14.754 -1.0962  0.1410 -0.1762
 1968TIP3    H127395   0.254   6.860  14.819 -1.4264 -0.6109  0.5287
 1968TIP3    H227396   0.366   6.776  14.762 -0.0759  3.3474 -3.1636
 1969TIP3   OH227397   3.887   6.681  16.602 -0.3248  0.1085 -0.3712
 1969TIP3    H127398   3.945   6.682  16.678  0.3787 -0.3253 -0.8932
 1969TIP3    H227399   3.814   6.624  16.628 -0.1448  0.0577  0.0241
 1970TIP3   OH227400   4.482   3.255   5.107 -0.8724  0.0953 -0.8308
 1970TIP3    H127401   4.460   3.341   5.071 -0.1751  0.0968 -1.2550
 1970TIP3    H227402   4.510   3.274   5.197  2.0129  0.6939 -1.7584
 1971TIP3   OH227403   5.839   3.865   3.194  0.4244 -0.9728  0.5826
 1971TIP3    H127404   5.911   3.928   3.195  0.3311 -0.7900 -1.5155
 1971TIP3    H227405   5.877   3.786   3.155  0.3435 -2.0272  2.5148
 1972TIP3   OH227406   0.384   3.318  10.940  0.3100  0.0769 -0.0843
 1972TIP3    H127407   0.288   3.311  10.942  0.3055 -0.9094 -1.5797
 1972TIP3    H227408   0.403   3.406  10.972 -1.2052  0.8873 -1.2967
 1973TIP3   OH227409   1.569   6.823  14.318  0.1228 -0.6955  0.3230
 1973TIP3    H127410   1.538   6.892  14.259 -1.0247  0.3456  2.0574
 1973TIP3    H227411   1.525   6.744  14.288  0.1976 -0.3632 -0.7000
 1974TIP3   OH227412   0.553   5.355  11.787 -0.4854 -0.5026 -0.3637
 1974TIP3    H127413   0.615   5.316  11.726 -0.4138 -0.9016 -0.0396
 1974TIP3    H227414   0.487   5.287  11.802  0.4624 -1.0832  1.3865
 1975TIP3   OH227415   2.305   3.860   4.500  0.2915  0.8204 -0.6710
 1975TIP3    H127416   2.339   3.868   4.411 -1.5943  0.0052 -1.5351
 1975TIP3    H227417   2.338   3.775   4.531  0.0161  0.5766 -1.0402
 1976TIP3   OH227418   3.498   2.889   0.935 -0.0359 -0.3988 -0.3749
 1976TIP3    H127419   3.576   2.927   0.895  0.4628  0.1995  1.0880
 1976TIP3    H227420   3.528   2.807   0.974 -0.1137 -0.1675  0.1935
 1977TIP3   OH227421   1.974   3.900  12.482 -0.1398  0.2892  0.2941
 1977TIP3    H127422   2.023   3.917  12.562 -1.6072 -0.2516  1.3420
 1977TIP3    H227423   1.923   3.822  12.501 -0.1447 -0.1457 -1.3581
 1978TIP3   OH227424   0.770   0.506  10.523 -0.1045 -0.0930  0.3622
 1978TIP3    H127425   0.816   0.573  10.574  1.6423  0.5191 -1.8802
 1978TIP3    H227426   0.831   0.481  10.454 -1.8931 -1.7595 -0.7343
 1979TIP3   OH227427   5.718   6.132  12.781  0.2857 -0.7891  0.1213
 1979TIP3    H127428   5.783   6.135  12.711  1.2247  0.6206  0.9983
 1979TIP3    H227429   5.645   6.081  12.745  2.0887 -2.9490 -0.7063
 1980TIP3   OH227430   0.079   1.940  17.019 -0.1827 -0.2690  0.0308
 1980TIP3    H127431   0.150   1.881  16.992  0.1159  0.2431 -0.3113
 1980TIP3    H227432   0.124   2.017  17.054 -0.5544  0.3319 -0.7729
 1981TIP3   OH227433   5.622   5.804  15.442 -0.0247  0.0014 -0.3506
 1981TIP3    H127434   5.643   5.711  15.431  0.2314  0.1815 -1.4271
 1981TIP3    H227435   5.637   5.820  15.536 -0.9474 -1.2433  0.0421
 1982TIP3   OH227436   4.096   2.773   3.769 -0.3125  0.3605 -0.4434
 1982TIP3    H127437   4.048   2.767   3.851  0.4164  1.3912  0.0950
 1982TIP3    H227438   4.054   2.711   3.710 -2.5896  1.5387 -0.1521
 1983TIP3   OH227439   1.554   0.925  15.751 -0.2759  0.1934 -0.3382
 1983TIP3    H127440   1.565   0.991  15.820  0.4705 -0.7400  0.4559
 1983TIP3    H227441   1.626   0.864  15.764  0.2107  0.2986 -2.3253
 1984TIP3   OH227442   3.934   1.733   5.877  0.1053  0.4187  0.3006
 1984TIP3    H127443   3.855   1.678   5.874  0.4510 -0.3789  2.9106
 1984TIP3    H227444   3.906   1.813   5.922  0.5236  0.6414  0.1688
 1985TIP3   OH227445   5.649   3.235   3.207  0.1113 -0.0979 -0.6042
 1985TIP3    H127446   5.609   3.188   3.280 -1.6588  1.2947 -0.6000
 1985TIP3    H227447   5.633   3.179   3.131  0.5788 -0.8149 -0.1879
 1986TIP3   OH227448   6.003   1.489   0.031 -0.3882 -0.1225  0.5314
 1986TIP3    H127449   6.094   1.504   0.058 -0.1917  1.7851 -0.9728
 1986TIP3    H227450   5.983   1.563  -0.027 -3.3299  0.1852  1.8046
 1987TIP3   OH227451   2.920   0.109  11.842  0.3429  0.3293 -0.5460
 1987TIP3    H127452   2.919   0.105  11.937 -0.7082  0.0547 -0.5519
 1987TIP3    H227453   3.008   0.140  11.820  0.8404 -0.3029  0.4758
 1988TIP3   OH227454   5.793   1.333  16.456 -0.2183 -0.0142  0.1898
 1988TIP3    H127455   5.748   1.249  16.464  0.4472 -0.4381 -0.4215
 1988TIP3    H227456   5.886   1.310  16.450  0.0509  0.8135  0.8808
 1989TIP3   OH227457   1.423   2.315  15.762  0.4608 -0.6596  0.2251
 1989TIP3    H127458   1.456   2.328  15.673  1.0728  0.0976  0.5461
 1989TIP3    H227459   1.338   2.273  15.751 -0.6620  1.7296 -0.8333
 1990TIP3   OH227460   0.906   1.811   4.727 -0.2783  0.1414  0.2106
 1990TIP3    H127461   0.893   1.905   4.715  0.3711  0.0999 -0.9707
 1990TIP3    H227462   0.992   1.794   4.688 -1.2637 -1.2728 -1.4734
 1991TIP3   OH227463   3.493   6.110   3.674 -0.2555 -0.5982  0.7550
 1991TIP3    H127464   3.548   6.132   3.749 -0.2874 -1.8044  1.1440
 1991TIP3    H227465   3.407   6.147   3.696  0.8357  3.4472 -0.9059
 1992TIP3   OH227466   1.066   3.882  15.403 -0.5091  0.8507  0.1821
 1992TIP3    H127467   1.013   3.871  15.324  0.8448 -0.1698 -0.6332
 1992TIP3    H227468   1.143   3.931  15.375  0.3062 -0.0803  0.6791
 1993TIP3   OH227469   2.995   3.903   0.014 -0.2462 -0.0808 -0.2078
 1993TIP3    H127470   2.946   3.821   0.012 -0.9172  0.3186 -1.2803
 1993TIP3    H227471   3.081   3.879   0.049 -0.4465 -1.2232 -0.4586
 1994TIP3   OH227472   4.593   1.493  13.568  0.4710  0.8199 -0.2958
 1994TIP3    H127473   4.674   1.492  13.619  0.2398  0.1604  0.0651
 1994TIP3    H227474   4.559   1.404  13.574 -0.8813  1.3526  0.5274
 1995TIP3   OH227475   4.360   2.366   5.451  0.9465  0.8381  0.5728
 1995TIP3    H127476   4.354   2.319   5.534  0.2660 -0.5298 -0.2193
 1995TIP3    H227477   4.442   2.337   5.412 -0.9898 -2.4605 -1.4550
 1996TIP3   OH227478   2.209   0.176  12.504  0.3968  0.2798 -0.1242
 1996TIP3    H127479   2.143   0.245  12.515  1.3759  1.6564 -2.2127
 1996TIP3    H227480   2.165   0.096  12.532 -2.2522  1.1070 -1.5810
 1997TIP3   OH227481   5.680   2.239   2.701  0.3566 -0.2002 -0.3453
 1997TIP3    H127482   5.759   2.194   2.730  1.9037  1.8736 -1.0746
 1997TIP3    H227483   5.646   2.184   2.631  0.2959 -1.8490  0.9049
 1998TIP3   OH227484   5.851   0.869   2.552 -0.1377 -0.2881  0.4484
 1998TIP3    H127485   5.932   0.914   2.529  1.8300 -2.6682  2.2368
 1998TIP3    H227486   5.835   0.893   2.643 -2.0662  0.8742 -0.1217
 1999TIP3   OH227487   3.194   5.411  10.805 -0.3210  0.0009 -0.5406
 1999TIP3    H127488   3.136   5.473  10.849 -0.6078 -0.2831 -0.5158
 1999TIP3    H227489   3.272   5.462  10.783 -0.9744  0.6489 -1.4459
 2000TIP3   OH227490   0.694   2.340  14.116  0.3667  0.1466  0.2655
 2000TIP3    H127491   0.728   2.383  14.195  0.1852  0.6367  0.0808
 2000TIP3    H227492   0.599   2.355  14.120 -0.0604 -2.2820  1.4364
 2001TIP3   OH227493   4.763   2.231  10.479 -0.0325  0.0711 -0.4873
 2001TIP3    H127494   4.785   2.229  10.572 -1.6149  1.6608 -0.0216
 2001TIP3    H227495   4.786   2.143  10.447  2.6012  0.1816  0.8545
 2002TIP3   OH227496   5.322   0.468   1.653 -0.1964  0.7941 -0.0448
 2002TIP3    H127497   5.370   0.392   1.619 -0.8607  0.7846 -1.0007
 2002TIP3    H227498   5.363   0.543   1.610  1.2219  1.1235  1.7602
 2003TIP3   OH227499   5.515   2.831  11.402 -0.0288 -0.0550 -0.1732
 2003TIP3    H127500   5.554   2.743  11.403 -0.8157 -0.4051  0.5237
 2003TIP3    H227501   5.583   2.887  11.363  0.5414 -0.9378 -0.4720
 2004TIP3   OH227502   6.797   5.985  16.827  0.7777  0.0124  0.2654
 2004TIP3    H127503   6.760   6.068  16.797  0.4729  0.8689  2.8235
 2004TIP3    H227504   6.880   6.009  16.867  2.4440 -1.4402 -2.0476
 2005TIP3   OH227505   6.551   1.927   2.292 -0.2853 -0.7379  0.3748
 2005TIP3    H127506   6.554   1.851   2.235  0.8342 -0.6619  0.3218
 2005TIP3    H227507   6.601   1.994   2.246 -0.7502 -0.1585  0.6991
 2006TIP3   OH227508   4.228   6.555  11.458 -0.0766  0.2738 -0.5487
 2006TIP3    H127509   4.289   6.597  11.518 -0.0140 -0.2709 -0.2256
 2006TIP3    H227510   4.154   6.529  11.513 -0.7752  1.2587 -0.9995
 2007TIP3   OH227511   2.652   3.348  13.433  0.0115  0.5748  0.6488
 2007TIP3    H127512   2.599   3.395  13.369 -2.1696 -0.6610  1.4250
 2007TIP3    H227513   2.705   3.289  13.381  0.8145  1.9792 -0.1714
 2008TIP3   OH227514   5.189   1.466   1.616 -0.5811  0.2279  0.1210
 2008TIP3    H127515   5.147   1.530   1.673 -0.0944  0.2837  0.4228
 2008TIP3    H227516   5.241   1.519   1.556 -0.5028  0.1360  0.1078
 2009TIP3   OH227517   0.083   6.700   5.064 -0.1525 -0.1727 -0.3696
 2009TIP3    H127518   0.125   6.745   5.136 -0.6798  0.4503 -0.4384
 2009TIP3    H227519   0.154   6.678   5.004  0.1986 -0.0800  0.0096
 2010TIP3   OH227520   3.919   3.668   0.723 -0.1988  0.3030  0.4032
 2010TIP3    H127521   3.997   3.714   0.753  1.1949 -0.5827 -1.6579
 2010TIP3    H227522   3.932   3.578   0.752  0.1343 -0.0980 -0.9462
 2011TIP3   OH227523   5.630   3.884   1.779  0.6273 -0.0205  0.5234
 2011TIP3    H127524   5.571   3.810   1.777  2.5268 -1.6149 -0.2905
 2011TIP3    H227525   5.614   3.930   1.697  1.0903 -0.9594 -0.1143
 2012TIP3   OH227526   5.853   0.041  15.152 -0.4185  0.5512  0.3098
 2012TIP3    H127527   5.831   0.110  15.215  2.5672 -0.3285  2.5793
 2012TIP3    H227528   5.900   0.087  15.082 -1.9899  1.2791 -0.3133
 2013TIP3   OH227529   1.983   2.155  12.430  0.8711  0.1253  0.2843
 2013TIP3    H127530   1.948   2.211  12.361  0.5418 -0.4362 -0.0210
 2013TIP3    H227531   1.915   2.089  12.444  1.9413 -1.2370 -0.6122
 2014TIP3   OH227532   2.847   6.692   4.861  0.2326 -0.0014 -0.1634
 2014TIP3    H127533   2.793   6.640   4.921  0.7614  0.7554  1.0073
 2014TIP3    H227534   2.816   6.781   4.874 -1.0641 -0.0228 -2.5775
 2015TIP3   OH227535   4.454   3.506  14.530 -0.0281 -0.2760 -0.6415
 2015TIP3    H127536   4.444   3.537  14.440 -0.7674  0.5085 -0.3009
 2015TIP3    H227537   4.366   3.481  14.558  0.0725  0.1702  0.1071
 2016TIP3   OH227538   3.048   4.762  10.350  0.3770  0.3223  0.5793
 2016TIP3    H127539   2.990   4.804  10.286  2.0344 -0.3870 -1.5499
 2016TIP3    H227540   3.135   4.796  10.328  1.5291 -2.7235 -0.0559
 2017TIP3   OH227541   3.864   0.489   3.108  0.1691  0.0092 -0.4575
 2017TIP3    H127542   3.823   0.411   3.144  1.8606 -0.5582  0.3722
 2017TIP3    H227543   3.853   0.481   3.013 -0.6439 -0.6718 -0.3101
 2018TIP3   OH227544   2.845   2.670  13.615  0.3334  0.1699 -0.0881
 2018TIP3    H127545   2.870   2.579  13.599  3.3877  0.6964  0.9436
 2018TIP3    H227546   2.924   2.720  13.594 -1.0652  2.5421 -0.0321
 2019TIP3   OH227547   4.615   1.954   6.526 -0.2197  0.6150 -0.2489
 2019TIP3    H127548   4.690   1.990   6.478  0.8607 -0.6753  0.3847
 2019TIP3    H227549   4.539   1.975   6.472  0.7094  1.1436 -1.3932
 2020TIP3   OH227550   3.002   4.526  16.628  0.1996 -0.3420  0.1634
 2020TIP3    H127551   3.010   4.618  16.652 -1.0302  0.2463 -1.5086
 2020TIP3    H227552   2.997   4.526  16.532 -0.5230 -2.0796  0.1559
 2021TIP3   OH227553   2.707   1.257  13.015 -0.4209 -0.2784  0.1329
 2021TIP3    H127554   2.681   1.213  12.934 -0.8558 -1.4113  0.8648
 2021TIP3    H227555   2.803   1.251  13.016 -0.5042 -1.9321  0.5889
 2022TIP3   OH227556   0.132   0.300  12.088 -0.4097  0.0759  0.2305
 2022TIP3    H127557   0.133   0.226  12.028 -0.4311  0.0938  0.2081
 2022TIP3    H227558   0.151   0.262  12.174  2.4452  0.3879 -0.1528
 2023TIP3   OH227559   5.091   2.318  16.386 -0.9243 -0.4438  0.1395
 2023TIP3    H127560   5.054   2.309  16.474 -1.8367 -1.3938 -0.3132
 2023TIP3    H227561   5.052   2.246  16.337  0.4171 -0.5831 -0.7687
 2024TIP3   OH227562   1.229   0.114  12.659  0.6649  0.1310 -0.4121
 2024TIP3    H127563   1.259   0.185  12.717 -1.2064  2.1744 -1.7485
 2024TIP3    H227564   1.234   0.035  12.713  2.3242  1.3456  1.3593
 2025TIP3   OH227565   3.059   1.592  15.780  0.2958  0.3872  0.0117
 2025TIP3    H127566   2.998   1.665  15.788  1.4296  1.2059  1.5644
 2025TIP3    H227567   3.145   1.630  15.797  0.7339 -1.6100  3.0652
 2026TIP3   OH227568   1.187   3.466  13.118 -0.1244 -0.2416 -0.4044
 2026TIP3    H127569   1.098   3.490  13.094  0.2274  1.9082  0.2208
 2026TIP3    H227570   1.213   3.531  13.184  1.5243 -1.4626  0.2319
 2027TIP3   OH227571   1.053   3.350  16.150  0.0698 -0.1803 -0.2425
 2027TIP3    H127572   1.021   3.432  16.111 -0.8045 -0.7539 -0.7551
 2027TIP3    H227573   0.999   3.339  16.229 -0.5674 -0.7998 -0.7486
 2028TIP3   OH227574   0.842   1.793   2.791  0.0986  0.2896  0.1814
 2028TIP3    H127575   0.871   1.870   2.743  0.8244 -1.5791 -2.5760
 2028TIP3    H227576   0.914   1.774   2.852  1.8690 -0.5292 -2.0436
 2029TIP3   OH227577   2.110   0.437  11.477 -0.1862  0.1572  0.1048
 2029TIP3    H127578   2.151   0.500  11.536  1.2902 -1.8603  1.3968
 2029TIP3    H227579   2.023   0.472  11.460  0.4552  2.3491  0.9917
 2030TIP3   OH227580   5.726   2.446  14.229 -0.5111  0.6457  0.2020
 2030TIP3    H127581   5.789   2.373  14.224  0.1382  1.0492  1.7845
 2030TIP3    H227582   5.671   2.435  14.152  0.8837 -0.3036 -0.7164
 2031TIP3   OH227583   5.369   3.041   0.258  0.1665  0.1065  0.1478
 2031TIP3    H127584   5.340   3.131   0.274  0.7844  0.2691  0.4033
 2031TIP3    H227585   5.464   3.045   0.266  0.2004 -0.5700  0.1432
 2032TIP3   OH227586   4.776   4.517   4.946 -0.2239 -0.1304 -0.5319
 2032TIP3    H127587   4.696   4.486   4.987  0.7362 -0.4656  1.1942
 2032TIP3    H227588   4.791   4.604   4.983  1.5011 -1.0772  1.1907
 2033TIP3   OH227589   4.988   5.332  16.400  0.4338  0.4822 -0.3377
 2033TIP3    H127590   4.908   5.285  16.377  1.6610 -2.5507  1.1153
 2033TIP3    H227591   4.957   5.420  16.424 -2.4759 -0.5669  0.2139
 2034TIP3   OH227592   2.509   6.871  11.267  0.2293  0.5252 -0.6483
 2034TIP3    H127593   2.599   6.892  11.292  0.1240  0.1953  0.0144
 2034TIP3    H227594   2.517   6.823  11.185  0.7075 -0.2167 -0.1712
 2035TIP3   OH227595   2.840   3.903   5.228  0.4196 -0.1046  0.1388
 2035TIP3    H127596   2.829   3.868   5.316  1.9809  1.5978  1.0634
 2035TIP3    H227597   2.755   3.941   5.206 -0.2665 -1.3662  0.4708
 2036TIP3   OH227598   2.415   3.713  12.487  0.1075  0.6909 -0.1950
 2036TIP3    H127599   2.384   3.803  12.476 -2.5455 -0.0057  0.7442
 2036TIP3    H227600   2.448   3.688  12.400 -0.2232  2.1862 -0.7811
 2037TIP3   OH227601   1.514   4.738  15.867 -0.0968 -0.3136 -0.2120
 2037TIP3    H127602   1.599   4.737  15.823  0.3843 -0.4087  0.6835
 2037TIP3    H227603   1.504   4.829  15.895 -0.4215 -0.2423 -0.5610
 2038TIP3   OH227604   3.253   3.834   0.068  0.2901  0.4058 -0.0639
 2038TIP3    H127605   3.309   3.857  -0.006  0.0035 -1.0217 -0.7575
 2038TIP3    H227606   3.301   3.764   0.114 -1.1668 -1.3724 -1.0952
 2039TIP3   OH227607   0.592   4.955  16.835  0.8071  0.0253  0.0187
 2039TIP3    H127608   0.673   4.910  16.859  1.3558  0.8041 -0.3315
 2039TIP3    H227609   0.583   5.025  16.900 -0.7948 -1.4063  1.4227
 2040TIP3   OH227610   3.721   0.627   5.300  0.1462  0.4295 -0.3013
 2040TIP3    H127611   3.661   0.649   5.228 -1.0859  0.3155  0.6532
 2040TIP3    H227612   3.672   0.564   5.353  1.4466 -0.3122  0.0667
 2041TIP3   OH227613   3.608   5.472  11.011  0.1134  0.4015  0.2605
 2041TIP3    H127614   3.533   5.423  10.977 -0.3258  2.0996 -1.3787
 2041TIP3    H227615   3.685   5.421  10.984 -0.3104  0.8298 -1.8682
 2042TIP3   OH227616   2.682   6.099   6.207 -0.4058 -0.2309  0.4780
 2042TIP3    H127617   2.600   6.059   6.177 -0.6802 -0.0664  1.0028
 2042TIP3    H227618   2.750   6.040   6.175 -0.6798 -0.0108 -0.5501
 2043TIP3   OH227619   3.334   6.378  15.040  0.0992  0.5398 -0.1505
 2043TIP3    H127620   3.297   6.310  15.096  0.7857  0.5564  0.3416
 2043TIP3    H227621   3.386   6.432  15.100  1.1505  0.3431 -0.8544
 2044TIP3   OH227622   2.643   0.223  11.547  0.1555 -0.3002 -0.1039
 2044TIP3    H127623   2.595   0.293  11.504  1.4861 -0.6120 -2.2656
 2044TIP3    H227624   2.578   0.153  11.558 -0.4909  0.2059 -0.6176
 2045TIP3   OH227625   0.730   4.839  14.700 -0.5433 -0.0096  0.0619
 2045TIP3    H127626   0.799   4.804  14.644  1.2984  1.1669  1.5129
 2045TIP3    H227627   0.713   4.927  14.666  0.7160  0.7829  1.3987
 2046TIP3   OH227628   2.202   3.447   0.360 -0.0631 -0.6355 -0.0624
 2046TIP3    H127629   2.150   3.390   0.303 -0.7215  0.4280 -0.5606
 2046TIP3    H227630   2.283   3.398   0.376  0.2158 -0.9065 -2.0302
 2047TIP3   OH227631   6.509   0.860   3.370  0.2564 -0.2484  0.0578
 2047TIP3    H127632   6.458   0.898   3.299  0.6868  1.4420  0.6227
 2047TIP3    H227633   6.466   0.890   3.450  1.5611  0.4532  0.5296
 2048TIP3   OH227634   6.636   2.580  16.559 -0.1586  0.5295  0.4030
 2048TIP3    H127635   6.628   2.652  16.496  0.8625 -0.0828 -0.4610
 2048TIP3    H227636   6.554   2.532  16.552  0.1065  0.2297 -0.7789
 2049TIP3   OH227637   5.073   5.526   2.797 -0.5266 -0.1963  0.1573
 2049TIP3    H127638   5.055   5.604   2.745 -1.5234 -0.3567  0.2444
 2049TIP3    H227639   5.166   5.533   2.819 -0.6144  1.0197  0.2374
 2050TIP3   OH227640   4.963   2.152  10.986 -0.2772 -1.0332 -0.2715
 2050TIP3    H127641   4.969   2.222  11.052  0.9046 -0.5535 -0.8621
 2050TIP3    H227642   4.979   2.072  11.035 -0.1940 -0.7558  0.1602
 2051TIP3   OH227643   6.703   3.355   1.348 -0.7359 -0.5042  0.2180
 2051TIP3    H127644   6.661   3.285   1.397  0.9304 -2.0166 -0.4033
 2051TIP3    H227645   6.796   3.332   1.347 -0.2855  1.1149 -0.9834
 2052TIP3   OH227646   6.023   0.158  14.960 -0.3470  0.6343  0.2756
 2052TIP3    H127647   6.095   0.218  14.978 -1.3150  1.6366  0.9839
 2052TIP3    H227648   5.954   0.213  14.922 -0.1851 -0.5804 -1.9420
 2053TIP3   OH227649   0.905   6.798  12.483  0.0019  0.0548  0.2425
 2053TIP3    H127650   0.974   6.788  12.417  1.1908 -1.2924  1.6240
 2053TIP3    H227651   0.849   6.722  12.470  0.1463 -0.1261  0.6731
 2054TIP3   OH227652   0.697   6.330   0.714 -0.6496 -0.1799  0.3317
 2054TIP3    H127653   0.658   6.345   0.627 -2.0736 -1.7486  0.6412
 2054TIP3    H227654   0.729   6.240   0.711 -0.1579 -0.0482  1.2487
 2055TIP3   OH227655   1.723   4.239   0.043 -0.4955  0.0410  0.1034
 2055TIP3    H127656   1.785   4.210   0.109  1.4864 -1.9293 -2.4223
 2055TIP3    H227657   1.754   4.325   0.016 -0.3465  0.1388  0.5843
 2056TIP3   OH227658   2.555   3.963   5.178 -0.2933 -0.2530  0.8318
 2056TIP3    H127659   2.559   3.910   5.258  1.2728 -2.2507 -0.4529
 2056TIP3    H227660   2.464   3.960   5.151 -0.7103 -0.1325  2.1687
 2057TIP3   OH227661   1.599   3.368   0.740 -0.2737 -0.0873 -0.0233
 2057TIP3    H127662   1.616   3.312   0.664 -1.4294  0.5410 -0.7671
 2057TIP3    H227663   1.686   3.392   0.772  0.2511  0.5083 -1.8050
 2058TIP3   OH227664   6.281   2.316  12.993 -0.1232 -0.5890 -0.0479
 2058TIP3    H127665   6.300   2.288  12.903  0.8632  1.1855 -0.4246
 2058TIP3    H227666   6.330   2.255  13.048  0.5748 -0.6894 -0.7670
 2059TIP3   OH227667   1.825   5.818   1.266 -0.1632  0.6319 -0.2554
 2059TIP3    H127668   1.816   5.857   1.354 -0.0856  1.4303 -0.5929
 2059TIP3    H227669   1.744   5.842   1.221 -0.2956  0.0427 -0.3428
 2060TIP3   OH227670   6.731   2.175   5.521 -0.6083  0.1515 -0.0300
 2060TIP3    H127671   6.740   2.084   5.548 -1.9679  0.6725  2.4476
 2060TIP3    H227672   6.802   2.221   5.565  0.9879  0.1617 -2.4337
 2061TIP3   OH227673   4.578   6.522  14.165  0.0641  0.4577 -0.6481
 2061TIP3    H127674   4.658   6.521  14.219  0.4718  0.8307 -1.2311
 2061TIP3    H227675   4.595   6.589  14.099 -1.0675  1.1471 -0.2823
 2062TIP3   OH227676   0.504   5.854  13.869 -0.6508  0.3045  0.1153
 2062TIP3    H127677   0.482   5.840  13.777 -0.0489  1.2730 -0.1891
 2062TIP3    H227678   0.596   5.829  13.877 -0.2554  1.6701  0.0928
 2063TIP3   OH227679   6.139   6.846   0.472 -0.4468  0.4566 -0.1793
 2063TIP3    H127680   6.053   6.865   0.434 -0.0173  1.4923 -0.6627
 2063TIP3    H227681   6.122   6.836   0.566 -1.3044 -0.7775 -0.4457
 2064TIP3   OH227682   3.709   1.781  15.407 -0.1167 -0.3787  0.1584
 2064TIP3    H127683   3.686   1.769  15.315  0.5684 -0.2171 -0.0406
 2064TIP3    H227684   3.663   1.710  15.452 -1.3831  0.2192 -0.1497
 2065TIP3   OH227685   4.039   2.100  11.705 -0.3773  0.4052  0.5885
 2065TIP3    H127686   4.052   2.082  11.612  2.2155  0.8995  0.7805
 2065TIP3    H227687   4.096   2.174  11.723 -1.3669  0.7843  2.4619
 2066TIP3   OH227688   2.223   4.054   0.891 -0.2396 -0.4668  0.7270
 2066TIP3    H127689   2.250   4.067   0.982 -0.4398  1.6449  0.5222
 2066TIP3    H227690   2.285   4.104   0.840  0.2260 -2.0998 -0.4037
 2067TIP3   OH227691   1.325   6.420  13.981 -0.1460 -0.0954 -0.4615
 2067TIP3    H127692   1.257   6.484  13.961 -0.6160 -0.6864 -0.7965
 2067TIP3    H227693   1.288   6.368  14.053 -0.5741 -1.1799 -1.4227
 2068TIP3   OH227694   4.748   2.669  15.436 -0.8401 -0.0376  0.2404
 2068TIP3    H127695   4.701   2.719  15.369 -0.2846 -1.2750 -1.1164
 2068TIP3    H227696   4.841   2.687  15.419 -0.7155  0.3381  1.2544
 2069TIP3   OH227697   1.719   0.446   3.473 -0.3903  0.0336 -0.1753
 2069TIP3    H127698   1.750   0.385   3.406 -0.6872 -0.4199  0.0925
 2069TIP3    H227699   1.665   0.392   3.531 -1.4365  0.7403 -0.4648
 2070TIP3   OH227700   6.498   4.224  10.408  0.5981  0.0907 -0.1153
 2070TIP3    H127701   6.509   4.200  10.500  1.1408  1.3511  0.1677
 2070TIP3    H227702   6.544   4.156  10.360 -0.7349 -1.2755  0.4479
 2071TIP3   OH227703   5.873   0.864   5.635 -0.0698  0.5234 -0.0502
 2071TIP3    H127704   5.814   0.799   5.672  1.4667  0.2982  2.1865
 2071TIP3    H227705   5.817   0.940   5.615 -1.7299 -1.0729 -1.8939
 2072TIP3   OH227706   5.392   3.417   6.519  0.1437 -0.1839 -0.3771
 2072TIP3    H127707   5.310   3.452   6.553  0.2040 -0.1572 -0.2558
 2072TIP3    H227708   5.455   3.487   6.535  0.1252 -0.0797 -0.7544
 2073TIP3   OH227709   0.099   2.394  15.151  0.1414 -0.6480  0.1229
 2073TIP3    H127710   0.192   2.378  15.133  0.1280  0.2323 -0.8122
 2073TIP3    H227711   0.053   2.352  15.079 -0.0742  0.4778 -0.4194
 2074TIP3   OH227712   4.837   1.341   4.924  0.0079 -0.3198 -0.1434
 2074TIP3    H127713   4.791   1.334   5.008  2.0073  0.4605  1.1119
 2074TIP3    H227714   4.923   1.302   4.942  1.1411  1.5094 -1.2592
 2075TIP3   OH227715   5.041   3.810  10.524 -0.1869 -0.0211  0.4755
 2075TIP3    H127716   5.083   3.887  10.562 -0.3467 -0.1610  0.9345
 2075TIP3    H227717   5.101   3.738  10.543  0.6094  0.1832 -1.0808
 2076TIP3   OH227718   5.528   1.893   2.347  0.3573  0.3557  0.0489
 2076TIP3    H127719   5.570   1.907   2.432  0.3510 -0.2626  0.1609
 2076TIP3    H227720   5.435   1.890   2.367  0.2926  1.1192 -0.1138
 2077TIP3   OH227721   0.026   0.994   2.629  0.4807 -0.0520  0.1596
 2077TIP3    H127722   0.101   1.043   2.596  0.4210 -1.1994 -1.8089
 2077TIP3    H227723  -0.049   1.051   2.615  0.7689  0.4583  0.6529
 2078TIP3   OH227724   0.028   1.333   2.448  0.0027 -0.6518  0.5082
 2078TIP3    H127725   0.100   1.285   2.489 -0.4960 -0.5327  1.5659
 2078TIP3    H227726  -0.049   1.278   2.464 -0.3473 -0.1674  0.5089
 2079TIP3   OH227727   4.267   6.873   2.008 -0.2678 -0.2704  0.3064
 2079TIP3    H127728   4.318   6.900   2.085 -0.5624  0.7062  0.1805
 2079TIP3    H227729   4.280   6.945   1.945 -0.8664 -0.5604 -0.1595
 2080TIP3   OH227730   0.327   5.318  12.414 -0.5201  0.4916 -0.0862
 2080TIP3    H127731   0.396   5.253  12.412 -0.3119  0.7165 -0.3194
 2080TIP3    H227732   0.309   5.337  12.321  0.2154  1.6018 -0.0211
 2081TIP3   OH227733   3.444   2.117   4.192  0.1561 -0.7982  0.2381
 2081TIP3    H127734   3.384   2.191   4.204  0.7037 -0.7338  3.9320
 2081TIP3    H227735   3.408   2.048   4.247  2.6068 -1.2556  1.4078
 2082TIP3   OH227736   5.834   5.326   0.668  0.0691  0.2123  0.0992
 2082TIP3    H127737   5.745   5.335   0.701  0.2661 -2.0269  1.4558
 2082TIP3    H227738   5.889   5.328   0.746  0.9711 -0.7370 -0.4864
 2083TIP3   OH227739   1.050   2.196  11.714 -0.0271 -0.3940 -0.0653
 2083TIP3    H127740   0.982   2.142  11.755 -1.2383  2.0645  1.4678
 2083TIP3    H227741   1.069   2.264  11.779  2.4803  0.1899 -1.2758
 2084TIP3   OH227742   2.662   2.753   0.908  0.2263  0.0213  0.6069
 2084TIP3    H127743   2.643   2.665   0.939 -2.4493  0.8555  1.5757
 2084TIP3    H227744   2.687   2.802   0.986  2.6870 -0.0066 -0.0565
 2085TIP3   OH227745   1.170   2.560   4.200 -0.1679  0.2451  1.2464
 2085TIP3    H127746   1.122   2.633   4.162 -1.8177 -1.5954 -0.4665
 2085TIP3    H227747   1.128   2.544   4.284  0.7934  1.7412  2.0656
 2086TIP3   OH227748   5.504   5.592   0.610 -0.6461 -0.5244  0.5377
 2086TIP3    H127749   5.546   5.511   0.581 -1.3509 -1.5400  2.2172
 2086TIP3    H227750   5.552   5.661   0.564  0.4196 -1.8393 -0.4162
 2087TIP3   OH227751   3.183   1.828  16.210  0.0441 -0.3229 -0.1571
 2087TIP3    H127752   3.221   1.818  16.298 -1.4606 -0.1303  0.5646
 2087TIP3    H227753   3.233   1.898  16.170  0.2481  0.1502  0.8772
 2088TIP3   OH227754   0.893   6.582   2.498  0.0426  0.1572 -0.1281
 2088TIP3    H127755   0.895   6.678   2.503  3.0395  0.1627  0.3421
 2088TIP3    H227756   0.953   6.553   2.566 -1.6030 -2.1567  0.4470
 2089TIP3   OH227757   6.791   5.304   6.537  0.5109 -0.2178 -0.3668
 2089TIP3    H127758   6.741   5.259   6.605 -0.1283  0.1693 -0.5730
 2089TIP3    H227759   6.823   5.234   6.481  1.0875 -0.5469  0.3544
 2090TIP3   OH227760   5.622   3.370  12.807 -0.3270 -0.1616 -0.0458
 2090TIP3    H127761   5.539   3.329  12.832 -0.3810  0.3369  0.6411
 2090TIP3    H227762   5.623   3.368  12.712 -1.3545  0.2590 -0.0785
 2091TIP3   OH227763   2.972   1.995   3.623 -0.9589 -0.2895 -0.4251
 2091TIP3    H127764   2.922   2.010   3.703 -0.6545 -3.0024  0.3539
 2091TIP3    H227765   3.021   1.915   3.639  0.0701 -0.2607 -2.8980
 2092TIP3   OH227766   1.939   1.313  13.893 -0.4875 -1.0737 -0.2319
 2092TIP3    H127767   1.901   1.238  13.848  1.5284 -1.9010 -0.6218
 2092TIP3    H227768   2.024   1.326  13.852 -0.0744  0.3531  0.9895
 2093TIP3   OH227769   5.750   6.108   0.651 -0.1505  0.0566 -0.1832
 2093TIP3    H127770   5.712   6.192   0.677  1.2256  1.2825 -1.9169
 2093TIP3    H227771   5.751   6.110   0.555  1.8644 -0.9971 -0.2393
 2094TIP3   OH227772   5.417   5.153  14.069 -0.0904  0.3016 -0.0933
 2094TIP3    H127773   5.359   5.098  14.122  0.2668  0.3071  0.3160
 2094TIP3    H227774   5.440   5.226  14.126  0.3107  0.3025 -0.2485
 2095TIP3   OH227775   1.669   0.515   0.756  0.3458  0.1369 -0.6263
 2095TIP3    H127776   1.763   0.519   0.772  0.1826  0.0484  0.4521
 2095TIP3    H227777   1.647   0.602   0.722  0.3975  1.1418  1.7094
 2096TIP3   OH227778   1.317   1.756   0.985  0.7766  0.1319 -0.2135
 2096TIP3    H127779   1.399   1.716   0.956  0.0811  0.0297 -2.1748
 2096TIP3    H227780   1.249   1.711   0.936 -0.3535  1.0802  0.4267
 2097TIP3   OH227781   3.532   4.046   2.169  0.0618 -0.2309 -0.1807
 2097TIP3    H127782   3.556   3.978   2.232  0.7474 -1.2057 -1.4422
 2097TIP3    H227783   3.608   4.052   2.110 -1.2635 -0.6825 -2.0248
 2098TIP3   OH227784   5.681   2.845  10.763  0.8145  0.5172 -0.1413
 2098TIP3    H127785   5.771   2.820  10.783  0.0110 -3.5326 -0.6622
 2098TIP3    H227786   5.680   2.856  10.667  0.4891 -1.2908 -0.3866
 2099TIP3   OH227787   1.191   2.043   2.532  0.4039  0.1347  0.0599
 2099TIP3    H127788   1.130   2.039   2.459  0.3784 -0.7144  0.1138
 2099TIP3    H227789   1.208   2.136   2.545  0.6634  0.2872 -1.2412
 2100TIP3   OH227790   3.374   2.342   4.601  0.2224 -0.2457  0.1048
 2100TIP3    H127791   3.363   2.248   4.585  0.6916 -0.3392  0.3190
 2100TIP3    H227792   3.469   2.354   4.607  0.2254  0.4097 -0.9450
 2101TIP3   OH227793   4.988   6.568  14.210  0.5720  0.1570 -0.1192
 2101TIP3    H127794   5.004   6.659  14.184  1.5399 -0.0880 -0.4302
 2101TIP3    H227795   5.068   6.542  14.257 -0.0810 -0.2404  0.7895
 2102TIP3   OH227796   3.430   0.913  13.175 -0.2230 -0.3257 -0.3468
 2102TIP3    H127797   3.418   1.007  13.190  1.8669 -0.2328  1.0739
 2102TIP3    H227798   3.365   0.871  13.232  0.1689  0.2500  0.5434
 2103TIP3   OH227799   2.888   5.995   0.423  0.5671 -0.0261 -0.3048
 2103TIP3    H127800   2.842   5.931   0.479  2.3146 -2.2344 -1.2251
 2103TIP3    H227801   2.837   5.997   0.342 -1.0397  1.9338  0.6723
 2104TIP3   OH227802   4.806   2.196  14.555 -0.2353  0.4545  0.5106
 2104TIP3    H127803   4.879   2.248  14.586 -0.0085  0.4514  0.0022
 2104TIP3    H227804   4.791   2.226  14.465 -0.3698 -0.0564  0.3536
 2105TIP3   OH227805   6.571   0.184   3.749  0.3333  0.3352 -0.0270
 2105TIP3    H127806   6.620   0.115   3.793  0.3457  0.7334  0.5953
 2105TIP3    H227807   6.480   0.172   3.778  0.0091 -0.5088 -1.3117
 2106TIP3   OH227808   0.878   4.503  14.098 -0.0421  0.1379 -0.5542
 2106TIP3    H127809   0.933   4.514  14.020 -1.9671  2.1239 -1.7464
 2106TIP3    H227810   0.812   4.439  14.073  0.7412 -1.0371  0.3179
 2107TIP3   OH227811   2.552   6.131  11.298 -0.2709 -0.2414  0.2124
 2107TIP3    H127812   2.629   6.183  11.322  1.2162 -1.5669 -1.4117
 2107TIP3    H227813   2.577   6.087  11.217 -2.9829 -0.2775 -0.7001
 2108TIP3   OH227814   3.981   3.859  14.615  0.3654 -0.1540  0.4338
 2108TIP3    H127815   4.016   3.914  14.686  0.0150 -1.5952  1.7711
 2108TIP3    H227816   3.938   3.921  14.556 -0.6917  0.9742  2.2877
 2109TIP3   OH227817   6.313   3.708   3.161 -0.0896  0.5880  0.3198
 2109TIP3    H127818   6.237   3.651   3.175  0.6107 -0.8480 -1.3404
 2109TIP3    H227819   6.287   3.766   3.089 -0.0420  0.9127  0.5640
 2110TIP3   OH227820   2.455   6.779  10.905  0.5805  1.2124 -0.3674
 2110TIP3    H127821   2.368   6.760  10.869  0.7562 -0.3199 -0.0558
 2110TIP3    H227822   2.485   6.855  10.856 -0.8668  1.6765 -0.5865
 2111TIP3   OH227823   2.992   4.249  11.214  0.5020  0.3248  0.1335
 2111TIP3    H127824   3.029   4.233  11.301 -0.0478 -0.6138  0.2074
 2111TIP3    H227825   2.938   4.172  11.196 -0.8026  1.2995 -0.2928
 2112TIP3   OH227826   6.864   3.434   0.632  0.3218 -0.5101  0.1168
 2112TIP3    H127827   6.905   3.494   0.569  2.7221 -0.3854  1.6367
 2112TIP3    H227828   6.863   3.349   0.588  1.0808 -0.2374 -0.4412
 2113TIP3   OH227829   3.346   1.461   4.655 -1.0254 -1.1561  0.2228
 2113TIP3    H127830   3.382   1.469   4.743 -0.5427 -1.9780  0.1099
 2113TIP3    H227831   3.274   1.399   4.664 -0.7246 -1.5474 -0.0223
 2114TIP3   OH227832   3.772   0.514   3.931  0.3634  0.6244 -0.0012
 2114TIP3    H127833   3.713   0.444   3.903 -0.2208  1.3378 -0.5775
 2114TIP3    H227834   3.834   0.471   3.990 -0.8581 -0.1045  0.7989
 2115TIP3   OH227835   0.373   2.747   3.630  0.4259 -0.1343 -0.1848
 2115TIP3    H127836   0.382   2.744   3.725 -1.8538  0.0841  0.0827
 2115TIP3    H227837   0.315   2.821   3.613 -0.0029 -0.7658 -1.6736
 2116TIP3   OH227838   1.081   2.375   6.072  0.0556  0.2555  0.5561
 2116TIP3    H127839   1.009   2.417   6.118  1.4842  2.8480  0.6465
 2116TIP3    H227840   1.059   2.282   6.071 -1.6369  0.5092  3.4849
 2117TIP3   OH227841   2.128   6.756   6.018  0.4292  0.2028 -0.1137
 2117TIP3    H127842   2.087   6.757   5.932 -0.2459 -1.8271  0.1428
 2117TIP3    H227843   2.083   6.825   6.067  0.8787  1.4383 -1.3720
 2118TIP3   OH227844   5.551   6.125  14.701 -0.5276 -0.0982 -0.5589
 2118TIP3    H127845   5.646   6.115  14.707 -0.3970  1.0969 -0.4697
 2118TIP3    H227846   5.523   6.049  14.649  0.2132 -1.5718  1.0689
 2119TIP3   OH227847   5.491   5.953  12.080 -0.5147  0.2361 -0.2249
 2119TIP3    H127848   5.426   5.884  12.082 -1.8681  1.4440  1.8237
 2119TIP3    H227849   5.549   5.930  12.008 -2.6257 -1.4186 -1.5195
 2120TIP3   OH227850   1.453   1.999  15.472  0.2879  0.2557  0.8262
 2120TIP3    H127851   1.449   1.903  15.466  2.5742  0.1323  0.5696
 2120TIP3    H227852   1.474   2.017  15.563  1.8740  0.3805  0.4634
 2121TIP3   OH227853   6.109   6.684   4.863 -0.3671 -0.0623 -0.2375
 2121TIP3    H127854   6.188   6.732   4.840 -0.9695  1.0016 -0.1677
 2121TIP3    H227855   6.078   6.647   4.780 -0.9909  1.3858 -0.6812
 2122TIP3   OH227856   5.013   0.930   6.272  0.5539  0.7933  0.3930
 2122TIP3    H127857   4.964   0.931   6.190  0.7420 -2.2808  0.1336
 2122TIP3    H227858   4.947   0.909   6.339  1.1773 -1.9821  0.2281
 2123TIP3   OH227859   0.778   6.549   3.952 -0.0389 -0.3118 -0.4183
 2123TIP3    H127860   0.872   6.551   3.933 -0.2209 -0.5845 -1.3591
 2123TIP3    H227861   0.743   6.625   3.905  0.2056  2.0649  2.8540
 2124TIP3   OH227862   5.064   0.803  14.608  0.3548  0.0806  0.2652
 2124TIP3    H127863   4.977   0.768  14.588  0.7320 -0.5725 -0.2835
 2124TIP3    H227864   5.123   0.729  14.594  1.1283  0.8061 -0.4522
 2125TIP3   OH227865   1.067   4.938   4.114 -0.6117 -0.2651  0.1779
 2125TIP3    H127866   1.063   4.848   4.148  0.2386 -0.6642 -0.7265
 2125TIP3    H227867   1.088   4.991   4.191  3.3833 -1.4005  0.1148
 2126TIP3   OH227868   6.532   6.499   3.118  0.1377  0.7713 -0.1812
 2126TIP3    H127869   6.610   6.554   3.111  0.1271  0.6633 -1.2372
 2126TIP3    H227870   6.485   6.512   3.036 -1.8547  2.1492  1.0881
 2127TIP3   OH227871   1.770   1.105   3.109 -0.3347  0.2820  0.7811
 2127TIP3    H127872   1.808   1.167   3.046 -0.0464 -1.0222 -0.3666
 2127TIP3    H227873   1.833   1.103   3.181 -0.4293  1.4275  0.9287
 2128TIP3   OH227874   3.097   6.635  11.598 -0.1513 -0.2666 -0.6256
 2128TIP3    H127875   3.068   6.725  11.615 -0.0003 -0.1923 -0.7597
 2128TIP3    H227876   3.073   6.587  11.677  0.1608 -0.0157 -0.3771
 2129TIP3   OH227877   5.737   5.823  10.448  0.4109 -0.0605  0.3063
 2129TIP3    H127878   5.655   5.784  10.479 -0.0198 -0.5351 -1.3254
 2129TIP3    H227879   5.712   5.868  10.367  1.4843  1.1248  0.6049
 2130TIP3   OH227880   1.740   5.991   4.240  0.1462  0.5237  0.1035
 2130TIP3    H127881   1.747   6.039   4.157 -0.1532 -1.4621 -1.1516
 2130TIP3    H227882   1.687   6.047   4.295  1.1600  2.3489 -0.6868
 2131TIP3   OH227883   4.390   4.248   6.053 -0.0913  0.5237  0.2810
 2131TIP3    H127884   4.345   4.329   6.027 -0.2421  0.7788  1.2848
 2131TIP3    H227885   4.352   4.226   6.138  0.3140 -0.3302  0.2492
 2132TIP3   OH227886   2.177   3.251  14.677  0.1200 -0.0766  0.3520
 2132TIP3    H127887   2.269   3.250  14.651 -0.0261 -1.3325 -0.2281
 2132TIP3    H227888   2.177   3.288  14.765  1.4074 -1.5941  1.0478
 2133TIP3   OH227889   1.216   5.974  13.218 -0.1074  0.3976 -0.3090
 2133TIP3    H127890   1.156   5.917  13.171 -1.5928  1.2529  0.4741
 2133TIP3    H227891   1.202   5.955  13.311  1.6850 -0.1939 -0.1173
 2134TIP3   OH227892   6.550   4.311  14.278 -0.2361 -0.7275  0.0148
 2134TIP3    H127893   6.488   4.305  14.351 -0.1042 -0.2127  0.1743
 2134TIP3    H227894   6.611   4.239  14.292  0.8169  0.3566  1.3969
 2135TIP3   OH227895   2.308   1.109  15.121  0.0192  0.8989  0.3493
 2135TIP3    H127896   2.388   1.156  15.144  0.0119  0.9768  0.2202
 2135TIP3    H227897   2.284   1.061  15.200  1.8518 -1.5484 -0.4892
 2136TIP3   OH227898   0.968   2.994   5.272 -0.0548  0.5321 -0.1316
 2136TIP3    H127899   1.030   3.053   5.316  0.8852 -0.7470  0.3141
 2136TIP3    H227900   0.937   2.936   5.342 -0.6922  0.2628 -0.6293
 2137TIP3   OH227901   0.928   1.934   1.253 -0.6103  0.1653  0.7000
 2137TIP3    H127902   0.872   1.861   1.279  2.9196 -1.7565  3.8748
 2137TIP3    H227903   0.974   1.904   1.175 -1.1312  0.1642  0.3890
 2138TIP3   OH227904   5.164   0.674   4.643 -0.0780  0.2667 -0.3110
 2138TIP3    H127905   5.184   0.612   4.713  0.5865 -0.2535 -0.9453
 2138TIP3    H227906   5.133   0.619   4.571  4.1220  0.1316 -2.3010
 2139TIP3   OH227907   2.318   2.347   1.975 -0.5632  0.3414 -0.3802
 2139TIP3    H127908   2.407   2.377   1.956 -0.5240 -1.0703 -2.9035
 2139TIP3    H227909   2.261   2.414   1.936 -0.5983  0.5201 -0.0281
 2140TIP3   OH227910   2.606   4.214   5.833 -0.1168  0.4459 -0.1387
 2140TIP3    H127911   2.579   4.187   5.745  2.1881 -0.7799 -0.5553
 2140TIP3    H227912   2.658   4.293   5.818  0.5485  0.0559  0.0438
 2141TIP3   OH227913   6.156   1.477   5.272  0.6964  0.5139  0.4436
 2141TIP3    H127914   6.176   1.554   5.326 -0.7734  0.8106  0.6084
 2141TIP3    H227915   6.203   1.492   5.190  0.1995  1.7422  0.3645
 2142TIP3   OH227916   0.038   0.067   4.179 -0.1882  0.0288  0.2859
 2142TIP3    H127917   0.131   0.065   4.203  0.6185  0.9995 -2.3685
 2142TIP3    H227918   0.023   0.157   4.150 -2.2177  0.1067  1.3919
 2143TIP3   OH227919   0.532   4.146  16.677  0.5150  0.6614  0.5908
 2143TIP3    H127920   0.610   4.091  16.666 -0.4328 -1.0941  1.9803
 2143TIP3    H227921   0.550   4.197  16.756  0.1592 -0.0183  1.1297
 2144TIP3   OH227922   5.180   4.947   3.182 -0.2641  0.1814  0.2622
 2144TIP3    H127923   5.233   4.956   3.261  0.8416  0.0061 -0.4312
 2144TIP3    H227924   5.103   5.001   3.198 -0.1845 -0.0682  1.5580
 2145TIP3   OH227925   2.115   2.735   2.971 -0.1007 -0.1807  0.1553
 2145TIP3    H127926   2.060   2.796   3.020  1.4668  0.7935  0.7773
 2145TIP3    H227927   2.056   2.665   2.944 -1.8518  1.3257 -0.0869
 2146TIP3   OH227928   6.513   0.536   1.964 -0.1247 -0.0000  0.0173
 2146TIP3    H127929   6.528   0.608   1.903  0.6096 -0.1935 -0.0306
 2146TIP3    H227930   6.524   0.575   2.051 -0.8647  0.2024  0.0319
 2147TIP3   OH227931   6.435   6.880  16.571  0.5754 -0.3018  0.9404
 2147TIP3    H127932   6.421   6.853  16.480  1.4073  0.3875  0.5905
 2147TIP3    H227933   6.356   6.852  16.617 -0.4019  0.4082 -0.2314
 2148TIP3   OH227934   3.087   3.998   1.901 -0.1497  0.5805 -0.1823
 2148TIP3    H127935   3.060   3.913   1.935  0.9236 -0.2164 -1.2484
 2148TIP3    H227936   3.004   4.045   1.885 -0.7165  0.1352  1.3301
 2149TIP3   OH227937   3.507   6.179   0.930  0.0111  0.1950 -0.2497
 2149TIP3    H127938   3.534   6.256   0.980  2.5299 -0.1375 -0.9537
 2149TIP3    H227939   3.586   6.154   0.881 -0.4447 -3.3382  0.5920
 2150TIP3   OH227940   4.477   0.447  12.253 -0.4596  0.3715 -0.4721
 2150TIP3    H127941   4.567   0.414  12.256 -1.2155 -1.7693  0.1379
 2150TIP3    H227942   4.454   0.460  12.345 -0.9864  0.2991 -0.5928
 2151TIP3   OH227943   6.258   5.809  11.897  0.2498 -0.1432  0.6122
 2151TIP3    H127944   6.204   5.870  11.847 -0.4538 -0.6118  0.7849
 2151TIP3    H227945   6.219   5.807  11.984 -0.4181 -1.6549  0.3076
 2152TIP3   OH227946   1.745   5.289   1.280  0.0693 -0.1707  0.0594
 2152TIP3    H127947   1.812   5.231   1.245 -1.7560 -1.8233 -0.9079
 2152TIP3    H227948   1.773   5.377   1.253  1.5337 -0.8555 -0.7646
 2153TIP3   OH227949   3.636   3.256   5.849  0.4859 -0.3706 -0.2037
 2153TIP3    H127950   3.718   3.220   5.814  0.7562 -0.0005  0.0498
 2153TIP3    H227951   3.640   3.349   5.829  0.6357 -0.1543  0.8067
 2154TIP3   OH227952   2.940   3.672  15.081 -0.2230 -0.4302 -0.3780
 2154TIP3    H127953   2.969   3.651  15.169  0.6378  1.5733 -0.1118
 2154TIP3    H227954   3.018   3.663  15.026 -0.3905 -0.2465 -0.6565
 2155TIP3   OH227955   0.199   1.927  13.406 -0.2271 -0.2764 -0.5187
 2155TIP3    H127956   0.117   1.953  13.449  1.4797  0.1833  2.8641
 2155TIP3    H227957   0.208   1.834  13.427  0.8737  0.0715  0.7069
 2156TIP3   OH227958   3.996   6.812   0.269 -0.7514  0.3093 -0.0912
 2156TIP3    H127959   3.968   6.776   0.185 -0.8804  1.8714 -0.7350
 2156TIP3    H227960   3.949   6.894   0.277 -2.9388 -1.0419  2.8251
 2157TIP3   OH227961   3.423   2.115  12.542 -0.2342 -0.8183 -0.3792
 2157TIP3    H127962   3.402   2.029  12.577 -0.5298 -0.0348  1.4778
 2157TIP3    H227963   3.350   2.171  12.569  0.5154  0.2661 -0.5249
 2158TIP3   OH227964   5.757   4.376   5.013 -0.0836  0.4419  0.0534
 2158TIP3    H127965   5.800   4.374   5.099 -0.8976  0.1141  0.4625
 2158TIP3    H227966   5.700   4.300   5.013 -2.2401  1.9684  0.3735
 2159TIP3   OH227967   5.108   5.270  14.284 -0.4329  0.1021 -0.4327
 2159TIP3    H127968   5.178   5.249  14.346  0.1961 -0.9669 -1.4591
 2159TIP3    H227969   5.030   5.229  14.322 -0.2605  0.3065  0.1476
 2160TIP3   OH227970   5.924   3.152  16.492 -0.1969  1.0397  0.4999
 2160TIP3    H127971   5.946   3.180  16.403 -0.9332  2.3339  0.7118
 2160TIP3    H227972   6.002   3.174  16.544 -0.6429  2.4253  0.6018
 2161TIP3   OH227973   0.323   4.627   4.480  0.0926 -0.3896 -0.4253
 2161TIP3    H127974   0.374   4.547   4.483 -0.5886 -0.8272 -0.1718
 2161TIP3    H227975   0.244   4.604   4.431 -0.3680 -0.0332  0.1317
 2162TIP3   OH227976   3.818   0.661   4.205 -0.3850 -0.1362 -0.1192
 2162TIP3    H127977   3.748   0.595   4.205 -1.2080  0.6992 -0.5091
 2162TIP3    H227978   3.787   0.729   4.266 -0.6957  0.9911 -1.4654
 2163TIP3   OH227979   1.968   2.634  13.247  0.2681  0.5303 -0.9372
 2163TIP3    H127980   1.995   2.595  13.164  1.7767  1.4879 -0.9222
 2163TIP3    H227981   2.047   2.634  13.300 -0.7366 -0.3354  0.6360
 2164TIP3   OH227982   4.761   2.800   3.465  0.0736 -0.4573 -0.6865
 2164TIP3    H127983   4.793   2.858   3.533 -1.5361  0.7780 -0.9251
 2164TIP3    H227984   4.783   2.712   3.495 -1.8202 -0.0907  2.1712
 2165TIP3   OH227985   0.129   2.927   4.913  0.4942 -0.3368 -0.8987
 2165TIP3    H127986   0.144   3.007   4.963  1.1235 -1.7876  1.3921
 2165TIP3    H227987   0.035   2.925   4.898 -0.2057 -1.0319  2.6224
 2166TIP3   OH227988   0.914   4.000   5.089  0.2981 -0.1064 -0.6190
 2166TIP3    H127989   0.955   4.042   5.013 -1.1911 -1.2399 -2.1218
 2166TIP3    H227990   0.883   3.915   5.056 -1.9570  0.0911  0.7896
 2167TIP3   OH227991   1.770   0.395   2.946  0.0451  0.3799 -0.0317
 2167TIP3    H127992   1.700   0.424   2.888 -0.9525 -0.1736  0.8516
 2167TIP3    H227993   1.815   0.326   2.896  1.2258  2.0335 -1.3702
 2168TIP3   OH227994   2.192   5.506   5.074 -0.0423  0.0011 -0.1456
 2168TIP3    H127995   2.117   5.523   5.131 -0.1320  0.4779 -0.3937
 2168TIP3    H227996   2.260   5.472   5.132 -0.1010  0.5596  0.2651
 2169TIP3   OH227997   3.398   0.429  14.512  0.3870  0.4187  0.5681
 2169TIP3    H127998   3.394   0.510  14.461  0.4551  0.4567  0.6240
 2169TIP3    H227999   3.308   0.414  14.539 -0.0339 -0.6467 -1.2044
 2170TIP3   OH228000   0.227   0.649  15.091  0.0569  0.2430  0.5200
 2170TIP3    H128001   0.258   0.559  15.099 -2.3105 -0.7808 -0.6983
 2170TIP3    H228002   0.147   0.653  15.144 -1.1085  0.9184 -1.1724
 2171TIP3   OH228003   3.846   3.740  13.854  0.4153  0.0586  0.4642
 2171TIP3    H128004   3.908   3.766  13.785  0.6983 -1.4173  0.1388
 2171TIP3    H228005   3.896   3.748  13.935  0.9867 -0.9441  0.2190
 2172TIP3   OH228006   1.510   6.874  13.174  0.4765 -0.3170 -0.5463
 2172TIP3    H128007   1.583   6.930  13.201  1.0113 -0.4034 -1.7487
 2172TIP3    H228008   1.441   6.935  13.148  0.9978 -0.2095 -1.6974
 2173TIP3   OH228009   3.723   0.933   6.031 -0.3613  0.1064  0.4836
 2173TIP3    H128010   3.745   0.847   5.994  0.2424 -0.0853  1.2652
 2173TIP3    H228011   3.740   0.994   5.959 -2.6827 -0.5855 -0.7496
 2174TIP3   OH228012   5.608   4.393  13.498 -0.1230  0.0273  0.1826
 2174TIP3    H128013   5.616   4.488  13.503 -1.2698  0.2011 -0.8063
 2174TIP3    H228014   5.546   4.371  13.567  0.1069  0.0060  0.3816
 2175TIP3   OH228015   3.709   4.860   0.078 -0.7166  0.1640 -0.4006
 2175TIP3    H128016   3.801   4.859   0.052  0.4675  0.2092  3.2802
 2175TIP3    H228017   3.678   4.770   0.065  0.6071 -0.4573  0.6110
 2176TIP3   OH228018   5.054   3.430  10.970  0.2839 -0.4742 -0.3540
 2176TIP3    H128019   5.084   3.339  10.973  0.1204 -0.5128  1.5468
 2176TIP3    H228020   5.025   3.443  10.880  1.1790 -2.0150 -0.8952
 2177TIP3   OH228021   1.520   0.453  10.803 -0.0666  0.3980 -0.4610
 2177TIP3    H128022   1.574   0.512  10.856  0.9854  0.6734 -1.7861
 2177TIP3    H228023   1.581   0.414  10.740 -1.2128 -0.1323 -1.2846
 2178TIP3   OH228024   4.845   1.328   4.010  0.0122  0.1609 -0.0313
 2178TIP3    H128025   4.798   1.400   4.051 -0.3499 -0.3080  0.4007
 2178TIP3    H228026   4.937   1.343   4.031  0.1458  1.3771 -1.3262
 2179TIP3   OH228027   1.684   4.496   5.326 -0.1471 -0.8862 -0.1431
 2179TIP3    H128028   1.630   4.488   5.248  1.1342 -0.2993 -1.1182
 2179TIP3    H228029   1.709   4.588   5.329  1.4175 -1.2940 -0.1540
 2180TIP3   OH228030   0.120   5.390  12.592  0.0796  0.1544  0.6853
 2180TIP3    H128031   0.054   5.372  12.525 -0.0117  5.6682 -1.1711
 2180TIP3    H228032   0.204   5.376  12.548  0.1523 -1.0851  1.1632
 2181TIP3   OH228033   0.988   2.132  12.743 -0.6002  0.1366  0.2317
 2181TIP3    H128034   0.902   2.141  12.703  0.0276  0.0069 -1.2046
 2181TIP3    H228035   1.039   2.081  12.681  0.3285 -0.3957  1.3798
 2182TIP3   OH228036   5.633   4.640  14.340 -0.0454  0.4561  0.0630
 2182TIP3    H128037   5.574   4.593  14.399  0.1632 -0.0137 -0.0937
 2182TIP3    H228038   5.607   4.731  14.347 -0.9850  0.2202 -0.2219
 2183TIP3   OH228039   5.433   1.741  11.529  0.0248  0.4173 -0.1014
 2183TIP3    H128040   5.360   1.762  11.588 -0.0417 -1.0962  0.3821
 2183TIP3    H228041   5.392   1.701  11.453  0.3803 -1.3545  0.5940
 2184TIP3   OH228042   1.968   4.724   0.102  0.0693 -0.3035  0.0532
 2184TIP3    H128043   2.015   4.643   0.118 -0.3537 -0.4965  0.3465
 2184TIP3    H228044   1.967   4.769   0.186  1.6661  0.7575 -0.4511
 2185TIP3   OH228045   5.177   4.923  16.332 -0.8786  0.2731  0.2375
 2185TIP3    H128046   5.187   4.834  16.298  0.4884 -0.6141  2.6836
 2185TIP3    H228047   5.144   4.911  16.421 -1.0439  2.2407  0.4853
 2186TIP3   OH228048   5.669   1.535   1.271 -0.0814 -0.3826 -0.0917
 2186TIP3    H128049   5.747   1.481   1.284  0.5370 -0.1610 -2.3902
 2186TIP3    H228050   5.704   1.624   1.261 -0.9262  0.2021  1.8190
 2187TIP3   OH228051   6.603   2.900   4.611  0.8606 -0.2288  0.0024
 2187TIP3    H128052   6.562   2.959   4.549 -0.0154 -0.2480  0.5507
 2187TIP3    H228053   6.611   2.817   4.564  3.4135  0.6365 -1.2780
 2188TIP3   OH228054   0.409   5.067   1.874  0.1284 -0.1583 -0.1100
 2188TIP3    H128055   0.365   5.090   1.956 -0.5710  0.0757 -0.5406
 2188TIP3    H228056   0.347   5.094   1.806  0.7493 -0.2519 -0.7161
 2189TIP3   OH228057   0.189   3.926   0.949  0.2073  0.1333 -0.2642
 2189TIP3    H128058   0.148   3.956   0.867  0.8630 -0.6154 -0.8814
 2189TIP3    H228059   0.115   3.897   1.003 -0.5544  3.3869  0.6659
 2190TIP3   OH228060   2.565   3.750  16.224  0.0210 -0.1358  0.3519
 2190TIP3    H128061   2.616   3.749  16.305  0.2888  1.2491  0.2164
 2190TIP3    H228062   2.541   3.658  16.210  0.5417 -0.4876  1.6328
 2191TIP3   OH228063   4.110   1.011  16.565  0.6288  0.0622  0.2369
 2191TIP3    H128064   4.067   0.926  16.570  1.8437 -0.6228 -0.4588
 2191TIP3    H228065   4.165   1.006  16.486 -1.4361  2.5313 -1.5236
 2192TIP3   OH228066   4.343   4.520   1.664 -0.2294 -0.2049 -0.0213
 2192TIP3    H128067   4.336   4.545   1.572  1.1422  1.2035  0.2073
 2192TIP3    H228068   4.253   4.519   1.696 -0.7860 -1.4037 -1.5337
 2193TIP3   OH228069   2.586   5.491   0.171 -0.3539 -0.3674 -0.1874
 2193TIP3    H128070   2.672   5.449   0.167  0.6291  1.6087 -1.6437
 2193TIP3    H228071   2.525   5.422   0.146  0.8652 -1.6639  0.2881
 2194TIP3   OH228072   2.285   2.715  12.614  0.0495  0.3575  0.0437
 2194TIP3    H128073   2.377   2.690  12.619 -0.2301 -0.5105  1.2866
 2194TIP3    H228074   2.258   2.690  12.526  0.5461 -1.0939  0.2756
 2195TIP3   OH228075   5.755   6.490  16.530  0.0439 -0.1080 -0.0371
 2195TIP3    H128076   5.759   6.489  16.626  0.5748  0.3069 -0.0517
 2195TIP3    H228077   5.684   6.550  16.509  0.1222  0.0310  0.0941
 2196TIP3   OH228078   2.910   4.556   1.906  0.4755 -0.5831 -0.1706
 2196TIP3    H128079   2.884   4.473   1.866  0.1779 -0.3514 -0.4663
 2196TIP3    H228080   2.989   4.583   1.859 -0.7778  0.5087 -1.7735
 2197TIP3   OH228081   2.213   1.364   5.135  0.1494 -0.2436  0.0438
 2197TIP3    H128082   2.291   1.414   5.112 -0.7272  0.9207 -0.5010
 2197TIP3    H228083   2.198   1.306   5.061  0.4502 -0.4247  0.1227
 2198TIP3   OH228084   2.134   5.731   2.074  0.5725  0.2595 -0.3280
 2198TIP3    H128085   2.213   5.785   2.079 -0.2192  1.6801 -1.9666
 2198TIP3    H228086   2.145   5.679   1.995 -0.0920  0.4090 -0.5234
 2199TIP3   OH228087   1.624   5.941   1.705 -0.6374 -0.0112  0.1207
 2199TIP3    H128088   1.680   5.930   1.782  1.6087  2.7292 -0.9434
 2199TIP3    H228089   1.549   5.992   1.737 -0.5271 -0.2659  0.8040
 2200TIP3   OH228090   5.609   0.596  12.097  0.0805 -0.2117  0.0657
 2200TIP3    H128091   5.687   0.650  12.110 -0.4592  0.8837 -1.0410
 2200TIP3    H228092   5.583   0.612  12.007 -1.7705 -0.0638  0.5716
 2201TIP3   OH228093   5.822   3.887  12.419  0.0421  0.5708 -0.2725
 2201TIP3    H128094   5.848   3.811  12.367  1.1064  1.0395 -0.4460
 2201TIP3    H228095   5.735   3.910  12.386 -0.3213 -0.5978 -0.1790
 2202TIP3   OH228096   4.924   2.776  14.085  0.6673  0.2357  0.2473
 2202TIP3    H128097   4.838   2.734  14.093 -0.1266  0.3142 -4.6419
 2202TIP3    H228098   4.905   2.870  14.084  1.0621  0.3261  0.8700
 2203TIP3   OH228099   1.804   4.801   3.068  0.4878 -0.3015  0.4387
 2203TIP3    H128100   1.865   4.841   3.007 -1.6619  0.3796 -1.4358
 2203TIP3    H228101   1.781   4.718   3.028 -1.4697  0.4525 -0.1390
 2204TIP3   OH228102   3.200   6.070   0.042 -0.1973  0.2576  0.1048
 2204TIP3    H128103   3.111   6.057   0.075 -0.2482 -0.1689 -0.1873
 2204TIP3    H228104   3.253   6.009   0.093 -0.5711 -1.8625 -1.8762
 2205TIP3   OH228105   5.112   0.525   5.578 -0.2110 -0.2228 -0.0808
 2205TIP3    H128106   5.106   0.447   5.632 -0.6736  0.1671  0.4404
 2205TIP3    H228107   5.177   0.580   5.621  0.0895 -0.2984 -0.4291
 2206TIP3   OH228108   1.139   3.209   5.805  1.3133  0.3003 -0.0825
 2206TIP3    H128109   1.133   3.237   5.897 -1.0208 -0.7433  0.1654
 2206TIP3    H228110   1.214   3.150   5.803  0.4081 -1.0207  1.6065
 2207TIP3   OH228111   4.898   4.849  15.764 -0.1806 -0.9366  0.6971
 2207TIP3    H128112   4.875   4.942  15.758 -3.6802 -1.5568  1.9314
 2207TIP3    H228113   4.905   4.832  15.858 -1.5303 -2.2575  0.5901
 2208TIP3   OH228114   3.946   4.684  16.531  0.3798 -0.1820 -0.1293
 2208TIP3    H128115   3.958   4.710  16.623  0.9426  2.1747 -0.8111
 2208TIP3    H228116   3.957   4.589  16.532  0.5603 -0.2020  2.2093
 2209TIP3   OH228117   5.424   1.783   0.560  0.3269  0.0038  0.2431
 2209TIP3    H128118   5.356   1.755   0.500  1.8294 -2.5309 -0.4185
 2209TIP3    H228119   5.377   1.801   0.642 -1.2627 -0.5559 -0.4982
 2210TIP3   OH228120   6.343   2.379  16.120  0.4160 -0.5636 -0.3648
 2210TIP3    H128121   6.422   2.327  16.107  0.0037 -1.0695 -0.9275
 2210TIP3    H228122   6.313   2.399  16.031  0.5600  0.6341 -0.1510
 2211TIP3   OH228123   3.429   4.789   5.236 -0.4304  0.0908 -0.4909
 2211TIP3    H128124   3.455   4.779   5.145 -0.5401  0.1365 -0.5269
 2211TIP3    H228125   3.356   4.850   5.234 -0.5201 -0.0137 -0.3854
 2212TIP3   OH228126   3.488   0.418   0.413 -0.4865  0.2176  0.1417
 2212TIP3    H128127   3.434   0.465   0.349 -0.8795 -0.5919 -0.1400
 2212TIP3    H228128   3.429   0.402   0.487 -1.2463 -2.2715 -0.8990
 2213TIP3   OH228129   3.257   6.866   1.832  0.1706 -0.3644  0.2835
 2213TIP3    H128130   3.237   6.950   1.873 -0.7372 -0.5267  0.2024
 2213TIP3    H228131   3.294   6.889   1.747  1.2115 -0.0384  0.8098
 2214TIP3   OH228132   2.844   5.535  16.226  0.2509 -0.0329  0.3616
 2214TIP3    H128133   2.795   5.554  16.147 -0.6090 -0.0371  0.8791
 2214TIP3    H228134   2.873   5.445  16.216 -0.9844 -0.4762  0.6166
 2215TIP3   OH228135   5.261   0.766   4.209 -0.0973  0.2023 -0.0754
 2215TIP3    H128136   5.289   0.800   4.124  1.0898  0.9615  0.6005
 2215TIP3    H228137   5.188   0.823   4.234 -1.0914 -0.6072 -0.9730
 2216TIP3   OH228138   2.687   5.927   0.241 -0.0395 -0.1514  0.3774
 2216TIP3    H128139   2.666   5.850   0.294 -0.3102 -0.7221 -0.5313
 2216TIP3    H228140   2.613   5.935   0.180  0.0206  0.7881  0.4188
 2217TIP3   OH228141   2.581   0.153   4.176 -0.3144 -0.6028 -0.0427
 2217TIP3    H128142   2.592   0.119   4.265  0.2853 -1.1596 -0.3247
 2217TIP3    H228143   2.487   0.170   4.168 -0.0511  2.4116  1.7562
 2218TIP3   OH228144   3.864   6.558   5.266 -0.1112  0.1680  0.0965
 2218TIP3    H128145   3.840   6.630   5.207  0.8269  0.6058  0.2344
 2218TIP3    H228146   3.789   6.550   5.325 -2.2575 -1.9719 -2.6444
 2219TIP3   OH228147   6.873   2.165  15.293 -0.5433  0.1371  0.3751
 2219TIP3    H128148   6.935   2.226  15.254 -0.1081 -1.3474 -1.4312
 2219TIP3    H228149   6.927   2.093  15.326 -1.1648 -0.3075  0.4545
 2220TIP3   OH228150   6.590   3.986  13.422  0.2640  0.0119  0.3222
 2220TIP3    H128151   6.555   3.908  13.379 -0.0436  0.8384 -0.9971
 2220TIP3    H228152   6.643   4.028  13.355 -2.1824  2.6431 -0.1565
 2221TIP3   OH228153   1.337   3.363  12.882 -0.6101 -0.4250  0.1588
 2221TIP3    H128154   1.301   3.278  12.908 -1.4588  0.0375  0.5460
 2221TIP3    H228155   1.304   3.424  12.948 -0.1915  0.2441 -0.2398
 2222TIP3   OH228156   0.648   0.860   3.035 -0.3096 -0.1928 -0.7583
 2222TIP3    H128157   0.694   0.859   3.119  0.8643 -1.9707 -1.3586
 2222TIP3    H228158   0.626   0.952   3.021  0.7771  0.3534  0.7952
 2223TIP3   OH228159   5.213   4.593   0.563  0.8166  0.2042 -0.0054
 2223TIP3    H128160   5.222   4.643   0.644 -1.5219  0.3624  0.2432
 2223TIP3    H228161   5.172   4.510   0.589  0.6552 -0.0277 -0.9271
 2224TIP3   OH228162   5.515   2.533  11.168 -0.0020  0.2730  0.4330
 2224TIP3    H128163   5.509   2.579  11.084 -1.2918 -0.8980 -0.1559
 2224TIP3    H228164   5.428   2.495  11.181 -0.4087  1.8360  3.1576
 2225TIP3   OH228165   5.959   0.795  10.217 -0.4429 -0.2798 -0.4330
 2225TIP3    H128166   6.047   0.834  10.212  0.2397 -1.8724 -1.3843
 2225TIP3    H228167   5.957   0.754  10.304  0.1345 -1.0639 -0.7773
 2226TIP3   OH228168   1.281   6.299   4.163  0.4698 -0.2955 -0.1335
 2226TIP3    H128169   1.296   6.212   4.126 -1.7845 -0.5141 -0.6729
 2226TIP3    H228170   1.210   6.286   4.227 -0.6334  1.2888 -0.9699
 2227TIP3   OH228171   4.960   6.571  12.886 -0.1629  0.3857 -0.4203
 2227TIP3    H128172   5.044   6.593  12.846 -0.1045  0.0365 -0.4899
 2227TIP3    H228173   4.897   6.629  12.842  0.2035  1.4608  0.4474
 2228TIP3   OH228174   2.827   5.704  12.357 -0.1149 -0.3683  0.6133
 2228TIP3    H128175   2.880   5.760  12.300 -1.9910 -0.7657 -1.6805
 2228TIP3    H228176   2.880   5.692  12.435  2.1399  1.1310 -0.5828
 2229TIP3   OH228177   2.454   3.496  16.203 -0.0498  0.7048 -0.0984
 2229TIP3    H128178   2.434   3.483  16.111 -0.3493 -1.3169  0.2020
 2229TIP3    H228179   2.382   3.549  16.236 -1.0633 -0.3043 -0.6117
 2230TIP3   OH228180   2.425   6.094   5.073 -0.3800  0.5391 -0.1045
 2230TIP3    H128181   2.367   6.143   5.014  0.1801  2.6559  1.0138
 2230TIP3    H228182   2.469   6.161   5.124 -0.0769 -1.1844  2.0245
 2231TIP3   OH228183   5.658   5.766   0.469  0.4836  0.1314  0.4156
 2231TIP3    H128184   5.667   5.851   0.426 -3.8056  0.5853 -0.0325
 2231TIP3    H228185   5.660   5.702   0.397  2.0825 -0.0229  0.5772
 2232TIP3   OH228186   4.315   6.552  11.181  0.4249  0.2988  0.3843
 2232TIP3    H128187   4.264   6.576  11.259  0.1388 -2.4195  1.1504
 2232TIP3    H228188   4.402   6.531  11.215  0.6840  0.3642 -0.2290
 2233TIP3   OH228189   4.091   4.584  11.858 -0.1045  0.2079 -0.5149
 2233TIP3    H128190   4.037   4.523  11.808  1.4632 -1.3857 -0.3580
 2233TIP3    H228191   4.103   4.541  11.943  1.0346  0.7199 -0.4045
 2234TIP3   OH228192   4.093   4.687   4.215  0.2372  0.6407 -0.0316
 2234TIP3    H128193   4.070   4.772   4.178  1.9318  0.8227 -0.7468
 2234TIP3    H228194   4.171   4.704   4.268  0.9629 -0.5494 -0.6824
 2235TIP3   OH228195   2.302   0.295  12.202 -0.1206 -0.8403 -0.2615
 2235TIP3    H128196   2.233   0.300  12.136  0.4486  0.1825 -0.8029
 2235TIP3    H228197   2.383   0.295  12.152  0.2951 -1.6711  0.3851
 2236TIP3   OH228198   0.472   3.318  15.284  0.0813  0.0918 -0.0909
 2236TIP3    H128199   0.426   3.262  15.222 -0.7235 -0.0720  0.6319
 2236TIP3    H228200   0.411   3.328  15.357  1.7398 -1.4302  1.6193
 2237TIP3   OH228201   2.428   6.674   3.942 -0.0845 -0.1295  0.3028
 2237TIP3    H128202   2.462   6.662   3.852 -0.6321 -0.2867  0.1156
 2237TIP3    H228203   2.363   6.605   3.952  1.4893 -1.5200  1.5955
 2238TIP3   OH228204   0.873   3.913   3.077  0.0763 -0.4220 -0.8461
 2238TIP3    H128205   0.959   3.904   3.036  0.9236  1.7827  0.2607
 2238TIP3    H228206   0.851   4.006   3.064 -1.0027 -0.3809  0.9985
 2239TIP3   OH228207   4.632   2.132  15.526 -0.0736 -0.3362 -0.1998
 2239TIP3    H128208   4.670   2.044  15.518 -0.1755 -0.6881  2.2714
 2239TIP3    H228209   4.645   2.155  15.618 -0.9880  1.8251 -0.5537
 2240TIP3   OH228210   3.966   0.955   1.645 -1.1768 -0.2824 -0.1763
 2240TIP3    H128211   3.896   1.002   1.691  0.5061  0.6325  1.6063
 2240TIP3    H228212   3.995   0.889   1.708  0.3225  0.1194 -0.4239
 2241TIP3   OH228213   0.415   5.061  14.085  0.5359  0.2296  0.3396
 2241TIP3    H128214   0.434   5.027  13.997 -3.2832  0.2427 -0.6514
 2241TIP3    H228215   0.431   4.987  14.143 -0.3292 -0.9482 -0.8513
 2242TIP3   OH228216   4.031   0.628  12.118  0.5387 -0.0971  0.3185
 2242TIP3    H128217   4.013   0.573  12.042  0.3160 -0.0196  0.3147
 2242TIP3    H228218   4.018   0.718  12.087  1.7179  0.0042  0.1007
 2243TIP3   OH228219   6.294   2.071   3.493 -0.9826  0.1630 -0.2733
 2243TIP3    H128220   6.206   2.107   3.482 -0.2754  1.9635 -0.4153
 2243TIP3    H228221   6.318   2.090   3.583 -0.3007  0.7616 -0.5671
 2244TIP3   OH228222   5.219   0.255   1.156  0.0227  0.2009  0.1187
 2244TIP3    H128223   5.188   0.343   1.178 -0.8088 -0.1698  0.4747
 2244TIP3    H228224   5.292   0.240   1.215  0.2318  0.6813 -0.0070
 2245TIP3   OH228225   0.084   6.380  15.474 -0.5165 -0.7409  0.0431
 2245TIP3    H128226   0.148   6.309  15.484 -1.3616 -1.3780  1.1076
 2245TIP3    H228227   0.108   6.422  15.392  0.4916 -1.7601 -0.2104
 2246TIP3   OH228228   0.548   4.462   1.627 -0.7920 -0.7550  1.1206
 2246TIP3    H128229   0.600   4.531   1.668  0.1696 -1.7009  1.5408
 2246TIP3    H228230   0.502   4.505   1.555  1.2388 -0.0455  0.1901
 2247TIP3   OH228231   0.959   0.267  12.959 -0.6376  0.0485 -0.3531
 2247TIP3    H128232   0.961   0.258  13.055 -0.2500  0.6561 -0.3004
 2247TIP3    H228233   1.050   0.260  12.932 -0.7100  0.2083 -0.6426
 2248TIP3   OH228234   6.682   2.022  16.699 -1.1045 -0.0363  0.7028
 2248TIP3    H128235   6.757   2.075  16.725 -0.7148  1.3461 -2.6921
 2248TIP3    H228236   6.608   2.062  16.743 -0.4845  1.9196  0.0688
 2249TIP3   OH228237   1.318   3.292  14.844  0.1481  0.1709  0.6675
 2249TIP3    H128238   1.388   3.357  14.851 -0.7650  1.2484  0.2082
 2249TIP3    H228239   1.238   3.342  14.861 -0.6120 -0.7339 -0.1506
 2250TIP3   OH228240   1.087   0.485   2.959  0.2621  0.4825  0.1993
 2250TIP3    H128241   1.086   0.391   2.972  0.9237  0.4228 -0.1222
 2250TIP3    H228242   1.011   0.517   3.007 -1.7327 -0.5104 -2.0910
 2251TIP3   OH228243   1.791   2.179   5.736  0.0128 -0.2067  0.1345
 2251TIP3    H128244   1.739   2.100   5.751 -0.0581  0.2037  2.4648
 2251TIP3    H228245   1.765   2.210   5.650 -1.0007 -1.9350 -0.2200
 2252TIP3   OH228246   5.477   0.610   0.434  0.0097  0.2387  0.2881
 2252TIP3    H128247   5.502   0.694   0.472 -1.1387 -0.5208  2.9944
 2252TIP3    H228248   5.540   0.548   0.471  0.1809 -0.2744 -0.8287
 2253TIP3   OH228249   0.886   4.914  13.509  0.3937 -0.0794  0.0291
 2253TIP3    H128250   0.801   4.948  13.480  0.8127 -0.9363 -2.4062
 2253TIP3    H228251   0.869   4.880  13.597 -1.5184  0.7166  0.0158
 2254TIP3   OH228252   0.847   2.544   1.833  0.3506 -0.4070 -0.0739
 2254TIP3    H128253   0.805   2.611   1.779  0.4034 -0.2307  0.1036
 2254TIP3    H228254   0.871   2.475   1.772 -0.0304 -0.4229 -0.2047
 2255TIP3   OH228255   1.698   1.069   3.777 -0.4092 -0.1408  0.4483
 2255TIP3    H128256   1.758   1.085   3.704  1.5873  0.2964  2.0870
 2255TIP3    H228257   1.613   1.099   3.745  0.6715  1.3693 -1.2164
 2256TIP3   OH228258   3.482   6.739  12.848 -0.2811 -0.2514 -0.0151
 2256TIP3    H128259   3.433   6.810  12.807 -0.7568 -0.4479  0.2087
 2256TIP3    H228260   3.517   6.778  12.929 -2.1247 -0.7683  1.0922
 2257TIP3   OH228261   5.208   0.260   2.105 -0.1959 -0.4040  0.1656
 2257TIP3    H128262   5.303   0.272   2.107  0.0441 -1.9587 -0.0987
 2257TIP3    H228263   5.194   0.181   2.158 -1.4134  0.1495  0.6977
 2258TIP3   OH228264   1.695   1.644   4.035  0.4716  0.0169 -0.8187
 2258TIP3    H128265   1.714   1.726   3.989  0.1968  0.0782 -0.8247
 2258TIP3    H228266   1.651   1.590   3.970 -0.6026  0.3841 -0.4200
 2259TIP3   OH228267   2.674   2.778  15.355 -0.3670 -0.2288 -0.6435
 2259TIP3    H128268   2.606   2.809  15.295  1.6812  1.9649 -2.0250
 2259TIP3    H228269   2.670   2.683  15.348 -2.9522 -0.1850 -0.9836
 2260TIP3   OH228270   2.023   4.361  16.145 -0.7893 -0.0655  0.3745
 2260TIP3    H128271   1.934   4.343  16.175 -0.8252  0.9764  0.9395
 2260TIP3    H228272   2.078   4.303  16.196 -0.8830  1.3980  2.2686
 2261TIP3   OH228273   1.958   1.513  15.850  0.6436 -0.1531  0.2565
 2261TIP3    H128274   1.963   1.444  15.916  0.7779  1.8504  2.4516
 2261TIP3    H228275   2.033   1.569  15.869  0.1882  0.9443 -1.0630
 2262TIP3   OH228276   0.269   4.599   0.782 -0.0024  0.0702 -0.3834
 2262TIP3    H128277   0.235   4.685   0.758 -0.7792  0.5166  2.0279
 2262TIP3    H228278   0.362   4.614   0.798 -0.2396  0.6508  0.5929
 2263TIP3   OH228279   1.351   5.400   2.978 -0.0292 -0.1205  0.0127
 2263TIP3    H128280   1.348   5.314   2.937 -1.7630  0.3175 -0.8912
 2263TIP3    H228281   1.342   5.461   2.905  2.1206  0.9125  0.5207
 2264TIP3   OH228282   2.357   1.598  14.892  0.3076  0.3293  0.3882
 2264TIP3    H128283   2.445   1.634  14.891  0.3847  0.1507 -0.8657
 2264TIP3    H228284   2.318   1.633  14.972  1.7153 -0.1317  1.3096
 2265TIP3   OH228285   4.561   6.696   0.993  0.4965 -0.1451  0.8586
 2265TIP3    H128286   4.539   6.686   1.085 -0.1400  0.2505  0.7589
 2265TIP3    H228287   4.656   6.703   0.991  0.5299 -0.3670  1.4595
 2266TIP3   OH228288   2.376   2.746   6.692 -0.3044  0.2692 -0.1843
 2266TIP3    H128289   2.309   2.796   6.646 -0.6450 -0.3354 -0.3549
 2266TIP3    H228290   2.327   2.691   6.754 -0.0639 -0.8874 -0.9723
 2267TIP3   OH228291   3.756   0.595  13.106 -0.5323 -0.1895  0.7301
 2267TIP3    H128292   3.694   0.626  13.040 -0.1803  0.6967  0.8111
 2267TIP3    H228293   3.838   0.582  13.058 -0.0340  1.3003  1.1446
 2268TIP3   OH228294   4.968   1.134   5.285  0.6469 -0.3102  0.0226
 2268TIP3    H128295   4.913   1.178   5.350  0.5829 -0.0488 -0.2061
 2268TIP3    H228296   5.057   1.147   5.317  0.8108  1.8207 -1.1049
 2269TIP3   OH228297   5.649   4.852  13.751 -0.2545 -0.3122  0.0927
 2269TIP3    H128298   5.742   4.874  13.749 -0.3007  0.0963  1.4506
 2269TIP3    H228299   5.609   4.924  13.800 -0.8765 -1.8514  1.9615
 2270TIP3   OH228300   6.405   2.235   4.348  0.0264  0.6407  0.4344
 2270TIP3    H128301   6.323   2.234   4.397  1.0447  1.7159  2.3138
 2270TIP3    H228302   6.452   2.158   4.379 -0.4051 -0.1968 -0.9356
 2271TIP3   OH228303   5.722   1.943  15.290  0.7392 -0.0593  0.0692
 2271TIP3    H128304   5.773   2.003  15.344  1.1334 -0.7895  0.5293
 2271TIP3    H228305   5.780   1.921  15.218  0.1954  0.9513 -0.6995
 2272TIP3   OH228306   1.507   4.841   3.905 -0.3621 -0.5752 -0.0356
 2272TIP3    H128307   1.471   4.889   3.830 -0.8496 -1.1438 -0.1709
 2272TIP3    H228308   1.602   4.842   3.890 -0.4508 -0.6616 -0.6475
 2273TIP3   OH228309   3.542   4.676  16.022  0.3103 -0.4821 -0.5533
 2273TIP3    H128310   3.593   4.719  16.090 -2.9189  0.3590  1.6179
 2273TIP3    H228311   3.564   4.583  16.030  1.4473 -0.1603  0.2648
 2274TIP3   OH228312   0.411   4.732   0.219 -0.0004 -0.5904  0.0713
 2274TIP3    H128313   0.421   4.664   0.286 -2.0569 -0.9141  0.1011
 2274TIP3    H228314   0.351   4.795   0.259 -0.3705 -0.2138 -1.0667
 2275TIP3   OH228315   4.609   0.796  14.875  0.1011 -0.3380 -0.2415
 2275TIP3    H128316   4.675   0.866  14.871 -0.6661  0.3883 -0.5332
 2275TIP3    H228317   4.535   0.831  14.825 -0.6146 -1.0238  0.3277
 2276TIP3   OH228318   2.195   5.126   3.916  0.7304 -1.3598 -0.3456
 2276TIP3    H128319   2.243   5.180   3.978 -0.8221 -1.5896  1.1306
 2276TIP3    H228320   2.122   5.182   3.888 -0.5019 -2.3950  0.6705
 2277TIP3   OH228321   5.887   4.684  10.723  0.0807  0.1948 -0.4588
 2277TIP3    H128322   5.914   4.776  10.718  0.1096  0.1379 -1.4811
 2277TIP3    H228323   5.852   4.664  10.636 -2.3669 -0.0307  0.4955
 2278TIP3   OH228324   1.895   2.960   5.393  0.2763 -0.1912  0.5282
 2278TIP3    H128325   1.819   2.913   5.357  0.8435 -0.1224 -0.8379
 2278TIP3    H228326   1.898   3.042   5.344  1.1374 -0.1348  0.6561
 2279TIP3   OH228327   0.024   3.586  11.855  0.6850 -0.0685  0.6351
 2279TIP3    H128328   0.118   3.589  11.841  0.5404 -0.3543 -0.4722
 2279TIP3    H228329  -0.013   3.568  11.769 -0.4303  0.8220  0.8939
 2280TIP3   OH228330   4.589   5.013   4.100 -0.5964  0.0739 -0.1953
 2280TIP3    H128331   4.564   4.921   4.090 -0.8025 -0.0116  0.9354
 2280TIP3    H228332   4.561   5.035   4.189  3.3106 -0.0481  1.2827
 2281TIP3   OH228333   5.579   4.955   3.622  0.4582  0.1643  0.5274
 2281TIP3    H128334   5.611   5.043   3.599  0.3007 -0.0817 -0.7245
 2281TIP3    H228335   5.638   4.896   3.575  0.6478 -0.4184  1.4768
 2282TIP3   OH228336   5.330   1.037   3.234 -0.0474  0.5815  0.4431
 2282TIP3    H128337   5.316   1.131   3.224 -1.2973  0.6922  2.4926
 2282TIP3    H228338   5.244   0.998   3.218  0.9013 -0.4962 -2.5108
 2283TIP3   OH228339   4.567   2.620   1.598 -0.4973 -0.4315 -0.0665
 2283TIP3    H128340   4.633   2.672   1.644  0.6188  0.1300 -2.1746
 2283TIP3    H228341   4.593   2.529   1.615 -0.5502 -0.2626  0.9866
 2284TIP3   OH228342   6.272   3.783   2.618 -0.0326  0.0340  0.5569
 2284TIP3    H128343   6.358   3.811   2.587 -0.1372  0.6715  0.8286
 2284TIP3    H228344   6.212   3.851   2.588 -0.4084 -0.2926  0.5615
 2285TIP3   OH228345   5.780   4.148  15.080  0.5453  0.3225 -0.0486
 2285TIP3    H128346   5.726   4.201  15.139  0.7949  0.5891 -0.0551
 2285TIP3    H228347   5.775   4.194  14.996  0.5114  0.1607 -0.1365
 2286TIP3   OH228348   6.523   0.970   5.098  0.0968 -0.9344  0.4766
 2286TIP3    H128349   6.466   1.047   5.093 -0.4413 -1.3980 -1.0795
 2286TIP3    H228350   6.549   0.953   5.007  2.0730 -1.2323  1.0514
 2287TIP3   OH228351   0.336   5.410   5.242  0.3447 -0.0391  0.4618
 2287TIP3    H128352   0.256   5.358   5.231 -0.4025  0.8213  1.6863
 2287TIP3    H228353   0.377   5.408   5.155 -0.5498 -1.2180  0.0368
 2288TIP3   OH228354   0.315   6.681  15.763 -0.7345  0.1550  0.3359
 2288TIP3    H128355   0.332   6.620  15.835 -2.4412  0.4122  1.0113
 2288TIP3    H228356   0.376   6.656  15.694 -1.8212 -2.7376  0.3208
 2289TIP3   OH228357   1.771   0.826  14.466 -0.1694 -0.3637 -0.4284
 2289TIP3    H128358   1.697   0.840  14.407  0.3519  0.3074 -0.9419
 2289TIP3    H228359   1.846   0.861  14.418  0.3612 -0.3716  0.3848
 2290TIP3   OH228360   4.658   0.844   1.077 -0.3783 -0.1956 -0.3650
 2290TIP3    H128361   4.701   0.865   0.994  0.0411  0.6847  0.0641
 2290TIP3    H228362   4.666   0.923   1.130 -1.2950 -0.4915  0.2546
 2291TIP3   OH228363   4.129   5.658   2.067  0.2516 -0.5517 -0.1450
 2291TIP3    H128364   4.206   5.713   2.051  0.4703 -1.1185 -1.1284
 2291TIP3    H228365   4.135   5.635   2.160 -0.6201  2.2134  0.6835
 2292TIP3   OH228366   3.005   3.627   2.928 -0.4577  0.5905 -0.4736
 2292TIP3    H128367   2.974   3.717   2.920 -0.5079  0.6149 -0.0660
 2292TIP3    H228368   3.083   3.623   2.874 -0.7218  0.7490 -0.8762
 2293TIP3   OH228369   3.022   4.360  12.838  0.6465 -0.3638 -0.1178
 2293TIP3    H128370   3.046   4.287  12.782  1.7325  0.2947 -0.5352
 2293TIP3    H228371   2.999   4.431  12.778  0.5190 -0.0626  0.2772
 2294TIP3   OH228372   0.359   0.759   4.379 -0.1797 -0.6302  0.3978
 2294TIP3    H128373   0.408   0.785   4.457  0.9169  1.7747 -0.9994
 2294TIP3    H228374   0.425   0.735   4.315 -0.9099  0.3184 -0.7489
 2295TIP3   OH228375   1.337   1.530   4.762 -0.5392 -0.1447  0.1371
 2295TIP3    H128376   1.320   1.611   4.811  0.5226  1.3642 -1.8683
 2295TIP3    H228377   1.327   1.555   4.670 -0.5521 -2.4088 -0.5240
 2296TIP3   OH228378   6.087   0.277  16.130  0.7885 -0.4345  0.2780
 2296TIP3    H128379   6.028   0.273  16.206  0.0368  1.5518 -0.1297
 2296TIP3    H228380   6.040   0.230  16.061  0.5723 -0.5516  0.5050
 2297TIP3   OH228381   6.562   1.491  14.451  0.0468 -0.3283  0.1148
 2297TIP3    H128382   6.561   1.551  14.376 -0.6912 -0.4175  0.0455
 2297TIP3    H228383   6.563   1.404  14.412 -1.3398 -0.3934  0.1848
 2298TIP3   OH228384   2.399   5.440   3.637  0.0142 -0.5195  0.3510
 2298TIP3    H128385   2.454   5.377   3.685  1.2650  0.3577  0.1285
 2298TIP3    H228386   2.362   5.496   3.705 -0.9611 -1.3455  0.5355
 2299TIP3   OH228387   0.686   6.491  15.527  0.0755  0.4463 -0.3626
 2299TIP3    H128388   0.743   6.505  15.452  0.0581  1.3830 -0.2113
 2299TIP3    H228389   0.612   6.551  15.513  0.5088  1.2902  0.8358
 2300TIP3   OH228390   6.721   4.380   0.639 -0.7214 -0.2009 -0.4146
 2300TIP3    H128391   6.685   4.361   0.726 -1.1589  0.4149 -0.4517
 2300TIP3    H228392   6.684   4.313   0.582 -0.5812 -0.4951 -0.1640
 2301TIP3   OH228393   2.280   6.788  12.512 -0.4566  0.5953 -0.8065
 2301TIP3    H128394   2.335   6.737  12.452  0.5778  1.6099 -0.7446
 2301TIP3    H228395   2.215   6.725  12.543  0.9204 -0.7810 -0.5649
 2302TIP3   OH228396   3.652   0.441  10.113 -0.8250  0.1686  0.2681
 2302TIP3    H128397   3.557   0.448  10.115 -0.9471 -0.0310 -2.0559
 2302TIP3    H228398   3.681   0.523  10.074 -0.3021 -0.8485 -1.6273
 2303TIP3   OH228399   1.593   2.125   4.763 -0.4420  0.6610  0.4864
 2303TIP3    H128400   1.504   2.124   4.796 -0.9246  0.8371 -0.7472
 2303TIP3    H228401   1.611   2.217   4.745  0.3414  0.7451  1.5995
 2304TIP3   OH228402   4.117   6.572  14.531  0.2803  0.3920 -0.0090
 2304TIP3    H128403   4.121   6.531  14.617  1.0780 -1.6868 -0.9935
 2304TIP3    H228404   4.204   6.610  14.518 -0.3355  2.1481  0.7345
 2305TIP3   OH228405   0.130   2.406  16.243  0.0757  0.2294 -0.0479
 2305TIP3    H128406   0.127   2.318  16.279  0.7824  0.6395  1.0927
 2305TIP3    H228407   0.222   2.418  16.217  0.0858  0.7521  0.1943
 2306TIP3   OH228408   0.999   4.294  16.826  0.7130  0.1168 -0.2915
 2306TIP3    H128409   0.925   4.330  16.778  1.1001 -0.9920 -1.8168
 2306TIP3    H228410   1.054   4.369  16.846 -0.5703  0.8902  0.4372
 2307TIP3   OH228411   4.047   6.003   2.161  0.4007 -0.5395  0.2620
 2307TIP3    H128412   4.023   6.093   2.140  0.7617 -0.7751 -1.2225
 2307TIP3    H228413   3.980   5.975   2.224  0.2291  0.7157  0.6671
 2308TIP3   OH228414   3.969   2.145   1.034  0.3304 -0.2498 -0.1838
 2308TIP3    H128415   3.907   2.073   1.020  1.1045 -1.1584  0.9301
 2308TIP3    H228416   4.029   2.113   1.101  0.7948  1.3859  0.2266
 2309TIP3   OH228417   0.249   0.467   0.385  0.5748  0.2255  0.2060
 2309TIP3    H128418   0.256   0.382   0.342 -0.8112  0.6152 -0.8547
 2309TIP3    H228419   0.157   0.492   0.375  0.6624  1.2606  1.6473
 2310TIP3   OH228420   6.164   2.899   4.245 -0.5957 -0.0968  0.6115
 2310TIP3    H128421   6.101   2.829   4.227 -2.2372  1.5010 -0.2011
 2310TIP3    H228422   6.240   2.878   4.191 -1.5396 -0.6407 -0.5585
 2311TIP3   OH228423   1.001   3.243   2.443 -0.3009  0.0318  0.1068
 2311TIP3    H128424   1.074   3.300   2.421 -0.4062 -0.3333 -1.2825
 2311TIP3    H228425   0.960   3.284   2.518  2.2897 -0.5961  2.0208
 2312TIP3   OH228426   4.772   4.176   2.637  0.1984 -0.1993  0.0735
 2312TIP3    H128427   4.725   4.197   2.717 -0.5134 -1.5910  0.0511
 2312TIP3    H228428   4.760   4.082   2.626  1.2962 -0.2373 -1.0308
 2313TIP3   OH228429   1.694   3.417   3.229 -0.1970  0.1237 -0.6866
 2313TIP3    H128430   1.713   3.325   3.252  1.4331  0.9013  1.5060
 2313TIP3    H228431   1.599   3.420   3.218 -0.8418 -1.1952  2.9571
 2314TIP3   OH228432   1.983   2.913  14.638  0.0169 -0.3863 -0.1654
 2314TIP3    H128433   1.987   2.902  14.542  2.5401 -0.4132 -0.1068
 2314TIP3    H228434   1.936   2.995  14.650  2.1032  1.1269 -1.5993
 2315TIP3   OH228435   2.624   2.226  13.153  0.2335 -0.5235  0.1810
 2315TIP3    H128436   2.602   2.146  13.201  1.4383 -0.6163  0.6208
 2315TIP3    H228437   2.656   2.194  13.068  2.2594 -0.6463  0.9402
 2316TIP3   OH228438   5.758   3.327   1.401  0.1877  0.0986 -0.3744
 2316TIP3    H128439   5.706   3.392   1.448 -0.4970 -0.5594 -0.2037
 2316TIP3    H228440   5.822   3.379   1.352  1.4366  0.7906  1.8490
 2317TIP3   OH228441   1.831   0.684  14.093 -0.1673 -0.6520 -0.4664
 2317TIP3    H128442   1.746   0.679  14.136  0.4651 -0.8143  0.8285
 2317TIP3    H228443   1.815   0.656  14.003 -1.2537 -1.9279  0.0942
 2318TIP3   OH228444   1.965   5.606  13.371  0.3392 -0.1447 -0.2761
 2318TIP3    H128445   1.897   5.672  13.382  0.8932  0.3884  0.0175
 2318TIP3    H228446   1.953   5.546  13.445  1.2065  0.8765  0.7309
 2319TIP3   OH228447   6.728   0.306  14.489 -0.8478  0.1229  0.7676
 2319TIP3    H128448   6.682   0.257  14.557  0.2552 -0.1265  1.3654
 2319TIP3    H228449   6.764   0.382  14.534 -1.5661  0.8759  0.0868
 2320TIP3   OH228450   5.174   0.478  13.554 -0.6494  0.1369 -0.5570
 2320TIP3    H128451   5.263   0.497  13.581 -0.9025 -0.8548  1.1824
 2320TIP3    H228452   5.134   0.564  13.539 -0.3132  0.8178  1.9159
 2321TIP3   OH228453   4.794   4.637  14.828  0.1773 -0.1414 -0.3698
 2321TIP3    H128454   4.752   4.676  14.751 -2.8007 -1.2070  0.5632
 2321TIP3    H228455   4.726   4.640  14.896  1.5536 -2.2407  1.2276
 2322TIP3   OH228456   0.101   1.890   4.035  0.0769 -0.3056 -0.3158
 2322TIP3    H128457   0.156   1.962   4.001 -2.1663  1.1904 -0.9799
 2322TIP3    H228458   0.146   1.811   4.006  1.1037  0.8713 -2.1848
 2323TIP3   OH228459   6.084   5.063  15.832  0.7307  0.1560 -0.0099
 2323TIP3    H128460   6.051   5.097  15.748 -2.0491 -0.2680  0.8174
 2323TIP3    H228461   6.046   4.975  15.839  0.7055  0.2786  1.7947
 2324TIP3   OH228462   0.811   2.287   3.322 -0.7274 -0.1507  0.3974
 2324TIP3    H128463   0.858   2.206   3.340 -0.1814 -0.0157 -0.3773
 2324TIP3    H228464   0.729   2.258   3.280  0.2520 -0.2678 -1.5657
 2325TIP3   OH228465   6.490   0.673  16.359  0.3594 -0.7805 -0.3908
 2325TIP3    H128466   6.398   0.652  16.372  0.7347 -2.3257 -0.0339
 2325TIP3    H228467   6.535   0.629  16.430  1.1251  2.7145  1.4921
 2326TIP3   OH228468   0.458   5.554  14.993  0.1691 -0.5540 -0.0893
 2326TIP3    H128469   0.385   5.516  14.943  0.7543 -1.3121 -0.3953
 2326TIP3    H228470   0.507   5.605  14.928  0.8050 -1.3605 -0.2637
 2327TIP3   OH228471   2.064   3.003  15.325  0.1488 -0.1777 -0.0366
 2327TIP3    H128472   2.063   2.987  15.419  1.5981 -0.1879  0.0003
 2327TIP3    H228473   1.996   3.070  15.311 -1.1046 -1.2460  0.7782
 2328TIP3   OH228474   3.380   2.881  11.399 -0.3140  0.4865 -0.0177
 2328TIP3    H128475   3.373   2.970  11.364  0.4022  0.6876  0.3317
 2328TIP3    H228476   3.445   2.888  11.469  0.2342 -0.4422 -0.4232
 2329TIP3   OH228477   3.382   4.193   4.024  0.2122 -0.0671 -0.2766
 2329TIP3    H128478   3.459   4.140   4.003  0.9462  1.1745 -0.8930
 2329TIP3    H228479   3.309   4.148   3.982  0.7599 -0.7640 -0.4993
 2330TIP3   OH228480   5.354   2.957   3.964 -0.2279 -0.3731 -0.2077
 2330TIP3    H128481   5.393   3.044   3.970  1.4450 -1.1243  0.2373
 2330TIP3    H228482   5.355   2.937   3.870 -0.5303  0.0457 -0.3011
 2331TIP3   OH228483   0.495   3.395   6.267 -0.7351  0.2809 -0.3573
 2331TIP3    H128484   0.481   3.301   6.258 -0.4018  0.2364 -0.4257
 2331TIP3    H228485   0.580   3.402   6.311 -0.1030  0.5731 -1.5888
 2332TIP3   OH228486   4.347   3.049   5.572  0.3713 -0.0114 -0.0512
 2332TIP3    H128487   4.363   3.126   5.627  0.9466 -0.6088  0.6397
 2332TIP3    H228488   4.401   2.980   5.611  0.6730 -0.4968 -1.2773
 2333TIP3   OH228489   0.044   1.040  12.800 -0.0138  0.2530 -0.1483
 2333TIP3    H128490   0.089   1.016  12.881 -0.2729  1.5418  0.4048
 2333TIP3    H228491   0.095   0.999  12.730  0.4313 -0.5626  0.6366
 2334TIP3   OH228492   5.255   5.105  14.801 -0.3549  0.1470 -0.2525
 2334TIP3    H128493   5.293   5.069  14.721 -0.1872 -0.5887  0.1423
 2334TIP3    H228494   5.265   5.200  14.792  0.6072  0.0245 -0.6429
 2335TIP3   OH228495   4.797   1.482  11.694 -0.2681  0.1140 -0.4754
 2335TIP3    H128496   4.877   1.462  11.743  1.0604  2.2550 -1.6088
 2335TIP3    H228497   4.799   1.577  11.683 -1.4427 -0.0843 -3.0619
 2336TIP3   OH228498   4.404   3.119  11.417  0.5862  0.7192 -0.5546
 2336TIP3    H128499   4.425   3.070  11.337  0.1602  1.0778 -0.8896
 2336TIP3    H228500   4.321   3.082  11.446  0.7289  0.6059 -0.2883
 2337TIP3   OH228501   1.109   1.755   1.506  0.0884 -0.5709 -0.0169
 2337TIP3    H128502   1.161   1.835   1.516 -1.9016  0.7214  0.5846
 2337TIP3    H228503   1.123   1.729   1.415  2.6917 -1.0041  0.4286
 2338TIP3   OH228504   3.672   4.485  11.353 -0.2102 -0.2439 -0.5424
 2338TIP3    H128505   3.722   4.404  11.346 -1.9603 -1.5341  0.9803
 2338TIP3    H228506   3.716   4.535  11.421  0.6017 -0.0970 -1.1592
 2339TIP3   OH228507   2.700   1.781  14.359 -0.0610 -0.4527  0.3478
 2339TIP3    H128508   2.757   1.719  14.404  1.8710 -0.6011 -2.0706
 2339TIP3    H228509   2.681   1.740  14.274 -1.2190  0.9687 -0.1378
 2340TIP3   OH228510   2.571   3.126  10.758 -0.4374 -0.1935  0.0496
 2340TIP3    H128511   2.622   3.045  10.763  1.1117  0.7020 -0.4723
 2340TIP3    H228512   2.635   3.193  10.733 -1.4896  1.3694  1.3585
 2341TIP3   OH228513   1.875   3.564  10.892 -0.1111 -0.0405  0.3881
 2341TIP3    H128514   1.870   3.644  10.943  0.5962  0.9758 -1.0746
 2341TIP3    H228515   1.785   3.546  10.867 -0.5042 -0.6666  2.0716
 2342TIP3   OH228516   2.958   1.821   3.302  0.1203 -0.3904 -0.0306
 2342TIP3    H128517   2.938   1.789   3.390  0.8648  0.5014  0.4715
 2342TIP3    H228518   2.944   1.745   3.245  2.1741 -1.7307  1.1571
 2343TIP3   OH228519   2.064   5.854   1.110  0.4031  0.1578 -0.2203
 2343TIP3    H128520   2.075   5.772   1.061 -0.0154  0.2749 -0.5225
 2343TIP3    H228521   1.977   5.847   1.150  0.9210 -0.1258  0.8882
 2344TIP3   OH228522   6.452   0.789  15.092 -0.0222  0.1334 -0.2955
 2344TIP3    H128523   6.462   0.790  14.997  0.4762  1.3371 -0.2445
 2344TIP3    H228524   6.357   0.786  15.107 -0.0976 -2.2137 -0.7944
 2345TIP3   OH228525   2.583   4.466   3.721 -0.7878  0.0925 -0.4080
 2345TIP3    H128526   2.678   4.457   3.708 -0.7624  0.1380 -0.2645
 2345TIP3    H228527   2.573   4.549   3.768 -1.0210  0.7948 -1.6625
 2346TIP3   OH228528   3.836   2.141  16.615  0.1016 -0.1843  0.4444
 2346TIP3    H128529   3.915   2.091  16.634 -0.2968 -1.2713 -0.6021
 2346TIP3    H228530   3.863   2.205  16.549 -0.0255 -1.0624 -0.4898
 2347TIP3   OH228531   0.281   6.712   3.552 -0.1992 -0.4900 -0.0475
 2347TIP3    H128532   0.344   6.763   3.603  1.3104 -1.8753 -0.4262
 2347TIP3    H228533   0.288   6.623   3.588 -1.1848 -0.9008 -0.8090
 2348TIP3   OH228534   2.647   4.124  12.396 -0.1476 -0.0426 -0.0396
 2348TIP3    H128535   2.723   4.083  12.437 -0.3197 -1.8782 -1.4383
 2348TIP3    H228536   2.588   4.143  12.468  1.4111  1.0413  1.0380
 2349TIP3   OH228537   2.303   1.899  11.497  0.3029  0.5174 -0.1313
 2349TIP3    H128538   2.365   1.950  11.446  0.9393 -0.3047 -0.2176
 2349TIP3    H228539   2.355   1.825  11.530 -0.0474  1.1123  1.8483
 2350TIP3   OH228540   1.650   2.765   6.004  0.0846  0.2672 -0.0078
 2350TIP3    H128541   1.572   2.775   6.059  0.1578  0.0606  0.1339
 2350TIP3    H228542   1.689   2.853   6.002 -0.0117  0.3130  0.1295
 2351TIP3   OH228543   2.536   1.839  10.987 -0.0813 -0.1354  0.1445
 2351TIP3    H128544   2.602   1.893  10.944  0.3701 -0.1147  0.8503
 2351TIP3    H228545   2.453   1.884  10.969  0.2838  0.7927  0.7021
 2352TIP3   OH228546   0.759   1.602  16.900 -0.2188 -0.7686  0.1027
 2352TIP3    H128547   0.769   1.686  16.945 -0.8335 -1.6235  1.9268
 2352TIP3    H228548   0.683   1.615  16.842  0.8835  0.4999 -1.1426
 2353TIP3   OH228549   1.372   4.590  13.364  0.0827  0.1825  0.2947
 2353TIP3    H128550   1.461   4.599  13.329  0.3133 -0.1061  0.8010
 2353TIP3    H228551   1.375   4.512  13.419 -0.5691 -0.0153  0.0608
 2354TIP3   OH228552   3.627   0.772  13.295  0.8988 -0.1448 -0.2948
 2354TIP3    H128553   3.654   0.721  13.219  2.9013  0.5863 -0.1576
 2354TIP3    H228554   3.563   0.835  13.261 -0.0449 -1.3716 -0.8626
 2355TIP3   OH228555   3.515   2.970  14.844 -0.3321 -0.2278 -0.2218
 2355TIP3    H128556   3.477   3.056  14.854 -0.0026  0.0045 -0.8738
 2355TIP3    H228557   3.441   2.909  14.849 -0.5320  0.0730  0.4712
 2356TIP3   OH228558   5.250   1.830   4.954  0.1499  0.1545 -0.1923
 2356TIP3    H128559   5.323   1.840   4.892 -0.5446  0.8978 -0.9122
 2356TIP3    H228560   5.195   1.907   4.939 -0.4811 -0.0892  0.7665
 2357TIP3   OH228561   4.798   2.164  16.182 -0.2020 -0.0668 -0.2936
 2357TIP3    H128562   4.726   2.224  16.198 -0.1723  0.8723 -3.1787
 2357TIP3    H228563   4.763   2.078  16.205 -1.7650  0.5479 -0.2716
 2358TIP3   OH228564   1.059   6.353   3.514  0.6452  0.0928  0.1327
 2358TIP3    H128565   0.977   6.403   3.517  0.3974  0.0060 -2.7631
 2358TIP3    H228566   1.045   6.289   3.445  2.5489 -1.1253  0.8224
 2359TIP3   OH228567   5.062   4.553  16.572  0.6137 -0.0023 -0.2552
 2359TIP3    H128568   5.103   4.529  16.655  1.6650 -2.2537 -1.3476
 2359TIP3    H228569   5.136   4.573  16.514 -0.0920  1.1164 -0.8113
 2360TIP3   OH228570   2.579   4.645  16.300  0.3143  0.9775  0.7492
 2360TIP3    H128571   2.493   4.618  16.266 -0.8885  4.5261  0.5562
 2360TIP3    H228572   2.629   4.668  16.222  0.6407  0.9691  0.9568
 2361TIP3   OH228573   2.552   1.907  12.283  0.1699 -0.2613 -0.6567
 2361TIP3    H128574   2.536   1.821  12.244  0.1400 -0.9487  0.8054
 2361TIP3    H228575   2.466   1.949  12.286  0.1649 -0.2280 -1.2669
 2362TIP3   OH228576   6.719   2.150   0.713  0.1350 -0.0244 -0.0324
 2362TIP3    H128577   6.679   2.075   0.668 -1.0295  0.7802 -0.4094
 2362TIP3    H228578   6.812   2.144   0.692 -0.2727 -0.0174 -2.1328
 2363TIP3   OH228579   6.620   0.242   3.488  0.4255 -0.3417  0.1888
 2363TIP3    H128580   6.582   0.167   3.444 -0.9037  0.7309 -0.5634
 2363TIP3    H228581   6.586   0.237   3.578  0.8521 -0.9593  0.3244
 2364TIP3   OH228582   6.034   5.275  11.216  0.2212  0.5735  0.0355
 2364TIP3    H128583   6.001   5.200  11.265 -1.0974  1.0038 -0.1516
 2364TIP3    H228584   6.012   5.256  11.125  0.9653  0.6388 -0.1629
 2365TIP3   OH228585   5.358   6.003   2.531 -0.0646 -0.1068  0.6756
 2365TIP3    H128586   5.410   6.055   2.591 -0.2816 -0.1061  0.8627
 2365TIP3    H228587   5.292   5.960   2.586  1.4179 -2.3049  0.8800
 2366TIP3   OH228588   5.136   6.666  10.782  0.1729  0.2100  0.3729
 2366TIP3    H128589   5.178   6.670  10.696 -0.5519  0.3219  0.0130
 2366TIP3    H228590   5.207   6.684  10.844  0.8688 -0.6716 -0.1462
 2367TIP3   OH228591   3.628   0.631  12.833  0.5009  0.4582  0.9328
 2367TIP3    H128592   3.574   0.646  12.755  1.3807 -2.7499 -0.4630
 2367TIP3    H228593   3.700   0.694  12.824 -0.9880  2.2471  0.8855
 2368TIP3   OH228594   3.144   3.603   4.290  0.0282 -0.2977  0.1294
 2368TIP3    H128595   3.146   3.698   4.287 -0.2862 -0.3228 -1.6888
 2368TIP3    H228596   3.183   3.581   4.375  2.6666  1.3764 -0.5388
 2369TIP3   OH228597   2.166   4.437  12.657  0.1651  0.0573  0.4514
 2369TIP3    H128598   2.217   4.510  12.693 -1.2434  2.1977 -1.6260
 2369TIP3    H228599   2.092   4.428  12.717  0.3114  0.4193  0.6919
 2370TIP3   OH228600   3.743   5.825  15.179  0.3164 -0.0269  0.5484
 2370TIP3    H128601   3.660   5.873  15.178  1.2580  1.6811  0.4225
 2370TIP3    H228602   3.777   5.837  15.268  0.4959 -0.6239  0.5670
 2371TIP3   OH228603   5.758   1.099  16.069 -0.3026 -0.2606 -0.0879
 2371TIP3    H128604   5.852   1.078  16.070 -0.0315 -0.2751 -4.5424
 2371TIP3    H228605   5.743   1.146  16.151  3.1392 -1.8245  1.6605
 2372TIP3   OH228606   3.733   1.498  12.214  0.4105  0.1062 -0.2545
 2372TIP3    H128607   3.746   1.552  12.136 -1.1108 -0.7995 -1.1822
 2372TIP3    H228608   3.816   1.451  12.224  0.6741  0.3276 -1.2574
 2373TIP3   OH228609   6.485   0.431   5.714 -0.6092  0.9418  0.2794
 2373TIP3    H128610   6.501   0.525   5.730 -0.2095  0.7696  0.9767
 2373TIP3    H228611   6.520   0.388   5.792  1.0005  0.0514 -0.8681
 2374TIP3   OH228612   5.838   2.682  14.279 -0.3109 -0.4160  0.0524
 2374TIP3    H128613   5.803   2.594  14.266 -0.3518 -0.4847  0.6072
 2374TIP3    H228614   5.931   2.668  14.300 -0.1889 -0.2943 -0.3981
 2375TIP3   OH228615   5.974   3.129   3.589 -0.3129  0.0728  0.2292
 2375TIP3    H128616   6.016   3.052   3.627 -0.3703  1.1011  2.5092
 2375TIP3    H228617   5.935   3.174   3.663 -2.8296  0.8005 -1.4135
 2376TIP3   OH228618   0.693   6.140   3.734 -0.0291  0.5231 -0.2119
 2376TIP3    H128619   0.619   6.159   3.677 -0.6552  0.5004  0.5746
 2376TIP3    H228620   0.663   6.163   3.822  0.9371  0.6229  0.1120
 2377TIP3   OH228621   4.349   4.539  11.293 -0.3403 -0.3608  0.1407
 2377TIP3    H128622   4.325   4.592  11.218  0.8381 -1.2277 -0.8839
 2377TIP3    H228623   4.266   4.518  11.336 -0.9759  0.5971 -0.5988
 2378TIP3   OH228624   1.723   1.845  14.337 -0.1066  0.2048  0.4297
 2378TIP3    H128625   1.757   1.820  14.422  0.1999  1.6528  0.7688
 2378TIP3    H228626   1.640   1.797  14.329  1.1590 -2.0835  0.2969
 2379TIP3   OH228627   4.395   4.229   4.101 -0.0714  0.0957 -0.2807
 2379TIP3    H128628   4.346   4.271   4.031 -0.2683 -0.8594 -0.7355
 2379TIP3    H228629   4.382   4.135   4.086  0.7793 -0.1411  0.3915
 2380TIP3   OH228630   5.058   6.506   4.894 -0.4314 -0.4406 -0.2526
 2380TIP3    H128631   5.105   6.568   4.838  0.4847 -0.8294  0.0668
 2380TIP3    H228632   4.978   6.486   4.846 -0.8079  1.0687 -0.3155
 2381TIP3   OH228633   6.348   6.769  11.997 -0.7376 -0.3160 -0.1744
 2381TIP3    H128634   6.261   6.792  12.028 -1.0103 -1.6153  0.0882
 2381TIP3    H228635   6.390   6.852  11.978 -1.5779  0.3903  0.9461
 2382TIP3   OH228636   0.273   2.931  16.676  0.1711 -0.1557  0.0547
 2382TIP3    H128637   0.302   2.842  16.653 -0.2460  0.1062 -1.6085
 2382TIP3    H228638   0.211   2.917  16.748  1.0402 -1.0935  0.6514
 2383TIP3   OH228639   6.662   0.012   1.476 -0.1480 -0.4670 -0.1514
 2383TIP3    H128640   6.631   0.005   1.566  0.4294 -0.8284  0.0230
 2383TIP3    H228641   6.757   0.018   1.483 -0.0953 -0.4951 -0.7367
 2384TIP3   OH228642   2.934   5.986   3.689 -1.0037 -0.3342  0.6662
 2384TIP3    H128643   2.892   6.066   3.723  0.6240  0.8491 -0.0005
 2384TIP3    H228644   2.890   5.970   3.606 -0.1678  0.9079 -0.0399
 2385TIP3   OH228645   0.331   4.853  15.801  0.0125  0.3917 -0.5376
 2385TIP3    H128646   0.260   4.835  15.740 -0.0459  0.6562 -0.5485
 2385TIP3    H228647   0.301   4.929  15.851  0.1020  0.2380 -0.2484
 2386TIP3   OH228648   1.421   2.235   3.880  0.4611  0.1346 -0.2081
 2386TIP3    H128649   1.405   2.156   3.930  2.0731 -0.5756 -0.7549
 2386TIP3    H228650   1.365   2.302   3.921 -0.7994 -1.2142  0.3556
 2387TIP3   OH228651   0.689   4.926   1.286 -0.0111  0.3373 -0.3819
 2387TIP3    H128652   0.783   4.943   1.297  0.2786  0.0305 -2.1303
 2387TIP3    H228653   0.679   4.909   1.193 -1.5884 -1.0598  0.0045
 2388TIP3   OH228654   1.796   3.824   0.482  0.2818 -0.5476 -0.0824
 2388TIP3    H128655   1.783   3.822   0.387  0.7935  0.3151 -0.1813
 2388TIP3    H228656   1.715   3.788   0.519  0.1207 -0.9785 -0.8476
 2389TIP3   OH228657   1.744   5.333   3.659  0.2845 -0.0757 -0.1529
 2389TIP3    H128658   1.789   5.314   3.741 -1.3006  0.3061  0.8409
 2389TIP3    H228659   1.728   5.247   3.619  0.0037 -0.3449  0.5305
 2390TIP3   OH228660   4.508   3.325   3.843 -0.0138  0.1121 -0.1539
 2390TIP3    H128661   4.488   3.284   3.758  0.4987 -0.9130  0.2071
 2390TIP3    H228662   4.603   3.342   3.839 -0.3536  2.2987 -0.7160
 2391TIP3   OH228663   0.941   2.435   0.027 -0.2829  0.0072 -0.8121
 2391TIP3    H128664   0.995   2.508  -0.003  0.4452  0.1187  0.7171
 2391TIP3    H228665   1.002   2.373   0.065 -1.1173 -0.3862 -0.0800
 2392TIP3   OH228666   0.536   4.211  15.277 -0.2715 -0.1046  0.2594
 2392TIP3    H128667   0.528   4.247  15.366  1.0525  1.4096 -0.1785
 2392TIP3    H228668   0.624   4.172  15.276 -0.7012 -1.0907 -0.0721
 2393TIP3   OH228669   6.472   1.622   1.063  0.0480  0.0006 -0.1719
 2393TIP3    H128670   6.473   1.606   1.158 -1.3218  0.9955  0.0413
 2393TIP3    H228671   6.470   1.717   1.055 -0.2489 -0.0883 -1.2037
 2394TIP3   OH228672   0.571   4.247   0.373 -0.0316  0.1407 -0.0970
 2394TIP3    H128673   0.573   4.299   0.454  0.8296 -0.7939  0.5081
 2394TIP3    H228674   0.663   4.232   0.352 -0.1398  2.0694 -2.4180
 2395TIP3   OH228675   3.096   2.789  13.971  0.3160 -0.5619 -0.9776
 2395TIP3    H128676   3.077   2.696  13.987 -2.0691 -0.2784 -1.6958
 2395TIP3    H228677   3.143   2.789  13.888  0.5063 -1.1480 -0.8786
 2396TIP3   OH228678   3.618   3.324   0.063  0.4172 -0.2267 -0.0338
 2396TIP3    H128679   3.553   3.337   0.131  0.3072  2.5093 -0.5693
 2396TIP3    H228680   3.568   3.294  -0.013  0.1209 -0.2877  0.1830
 2397TIP3   OH228681   6.040   3.518   0.502 -0.0702 -0.0919  0.4091
 2397TIP3    H128682   6.023   3.429   0.472  1.6804 -0.3082  0.0026
 2397TIP3    H228683   6.070   3.508   0.593  3.7629 -0.3457 -0.7406
 2398TIP3   OH228684   4.629   4.943  12.269  0.5861  0.1799  0.1343
 2398TIP3    H128685   4.549   4.975  12.228  2.8101  1.1819 -3.9264
 2398TIP3    H228686   4.674   5.022  12.299  1.3101 -0.0999 -0.2011
 2399TIP3   OH228687   1.993   0.481  16.307 -0.1947  0.2162  0.3499
 2399TIP3    H128688   2.041   0.548  16.258 -0.6552  1.2100  1.2176
 2399TIP3    H228689   1.985   0.408  16.246  1.3955  0.4667 -0.2065
 2400TIP3   OH228690   1.272   4.233   2.051 -0.0214  0.2414  0.1602
 2400TIP3    H128691   1.217   4.306   2.024 -0.8307  0.9644  3.3848
 2400TIP3    H228692   1.279   4.242   2.146  1.6494 -2.6569  0.4205
 2401TIP3   OH228693   5.067   2.533   1.563  0.9091  0.0653  0.0748
 2401TIP3    H128694   5.073   2.557   1.655  0.4225 -1.2274  0.4669
 2401TIP3    H228695   5.149   2.564   1.524  1.1082  0.6421  0.9314
 2402TIP3   OH228696   4.415   6.537   2.466  0.0156  0.3215 -0.0715
 2402TIP3    H128697   4.495   6.573   2.503  0.8125  0.1778 -1.5552
 2402TIP3    H228698   4.405   6.452   2.508  0.5500  0.4070  0.2356
 2403TIP3   OH228699   6.104   4.011  12.354 -0.1930  0.0142 -0.2525
 2403TIP3    H128700   6.150   3.932  12.325  0.1670  0.6227 -1.3726
 2403TIP3    H228701   6.025   3.978  12.397 -0.2281 -0.9542 -1.0238
 2404TIP3   OH228702   3.569   6.131  14.869  0.1728  0.8242 -0.6084
 2404TIP3    H128703   3.548   6.071  14.941 -1.9234  1.0487 -0.9692
 2404TIP3    H228704   3.502   6.114  14.803  1.0967  1.7634 -1.8512
 2405TIP3   OH228705   1.825   2.912  13.143  0.2081 -0.8644  0.1444
 2405TIP3    H128706   1.880   2.849  13.190  0.3946  0.2172  1.4542
 2405TIP3    H228707   1.872   2.931  13.062  0.9571 -1.1832  0.5009
 2406TIP3   OH228708   3.282   5.956   4.613  0.5825 -0.3487  0.1383
 2406TIP3    H128709   3.370   5.926   4.636  0.8772  1.0396  0.9342
 2406TIP3    H228710   3.285   6.051   4.625 -0.5834 -0.0790 -1.3550
 2407TIP3   OH228711   3.827   1.038  16.853 -0.0870  0.0801 -0.4176
 2407TIP3    H128712   3.923   1.045  16.856  0.0988 -2.1107  0.4253
 2407TIP3    H228713   3.803   1.075  16.769  1.5287  0.5059 -0.7243
 2408TIP3   OH228714   4.358   2.009  14.562 -0.4267 -0.1152  1.3288
 2408TIP3    H128715   4.366   2.040  14.652  1.6704  0.1607  1.0916
 2408TIP3    H228716   4.407   2.073  14.510  1.2497 -2.0237  0.4109
 2409TIP3   OH228717   5.527   3.229  15.996 -0.3540  0.3595  0.1619
 2409TIP3    H128718   5.532   3.324  16.007  0.6344  0.4765 -1.0815
 2409TIP3    H228719   5.605   3.195  16.040  0.1157  0.2767 -0.7094
 2410TIP3   OH228720   1.515   4.929  14.534 -0.4510  0.2628  0.1544
 2410TIP3    H128721   1.582   4.861  14.528 -0.7387 -0.0525  0.5253
 2410TIP3    H228722   1.537   4.977  14.614 -3.0273 -2.4051  2.7082
 2411TIP3   OH228723   1.979   2.972  16.512 -0.3143 -0.3069 -0.5621
 2411TIP3    H128724   2.028   3.004  16.437 -0.0524 -0.2015 -0.3433
 2411TIP3    H228725   1.982   3.043  16.576 -0.1236 -0.5840 -0.2593
 2412TIP3   OH228726   6.321   3.441   6.199  0.9793  0.2789 -0.0103
 2412TIP3    H128727   6.300   3.393   6.119  1.8879  1.1407 -0.7941
 2412TIP3    H228728   6.246   3.499   6.213 -0.6715 -2.0686  1.5850
 2413TIP3   OH228729   6.138   3.216  15.162 -0.5201 -0.4074 -0.5591
 2413TIP3    H128730   6.211   3.275  15.182 -1.5793  0.5560  0.5570
 2413TIP3    H228731   6.060   3.269  15.173 -1.3858 -0.9223 -3.5143
 2414TIP3   OH228732   5.558   6.365  13.261  0.0363 -0.0245 -0.0202
 2414TIP3    H128733   5.557   6.288  13.203 -1.2090  0.0719 -0.1528
 2414TIP3    H228734   5.507   6.337  13.338  1.0864  0.0843  0.7373
 2415TIP3   OH228735   5.862   1.501   2.243  0.1160 -0.1963 -0.3219
 2415TIP3    H128736   5.834   1.592   2.234  2.7658  0.8662  1.2628
 2415TIP3    H228737   5.887   1.492   2.335  0.8934 -2.2280 -0.6768
 2416TIP3   OH228738   6.277   1.870   1.018  0.1446  0.5078 -0.4329
 2416TIP3    H128739   6.185   1.892   1.004 -0.5362 -1.0365  1.1520
 2416TIP3    H228740   6.322   1.903   0.941 -1.7963  0.9738 -1.4236
 2417TIP3   OH228741   6.599   4.979   3.071 -0.4603  0.5487  0.4173
 2417TIP3    H128742   6.579   5.011   3.159  1.7874 -0.4871  1.4025
 2417TIP3    H228743   6.523   4.928   3.045 -0.6511 -0.2117  2.3528
 2418TIP3   OH228744   2.257   0.543  12.932  0.0418 -0.0105 -0.7159
 2418TIP3    H128745   2.280   0.519  12.842 -1.2877 -1.5394 -0.7050
 2418TIP3    H228746   2.294   0.473  12.986 -0.0143  0.3638 -0.1810
 2419TIP3   OH228747   3.314   0.860   1.960  0.5639  0.1771  0.6067
 2419TIP3    H128748   3.257   0.834   1.888 -0.1147 -0.7605  1.4576
 2419TIP3    H228749   3.389   0.800   1.953  1.2454  1.0908 -0.2176
 2420TIP3   OH228750   6.038   6.593   5.119  0.0547 -0.6604  0.0953
 2420TIP3    H128751   6.028   6.654   5.046 -0.8606  0.0038  0.7553
 2420TIP3    H228752   6.130   6.601   5.144 -0.0267  0.3813  0.1013
 2421TIP3   OH228753   4.303   0.244  11.095  0.2593  0.1981 -0.5293
 2421TIP3    H128754   4.352   0.325  11.111 -1.6164  0.9723  1.8585
 2421TIP3    H228755   4.323   0.189  11.170 -1.2929 -0.0658 -0.2831
 2422TIP3   OH228756   4.452   0.623  16.527  0.7197  0.2058  0.2968
 2422TIP3    H128757   4.532   0.602  16.479  0.6861  2.3226 -0.8127
 2422TIP3    H228758   4.471   0.599  16.617  1.2600 -2.7049 -0.5064
 2423TIP3   OH228759   6.072   4.600  14.517 -0.0991  0.3242 -0.1701
 2423TIP3    H128760   6.010   4.667  14.487 -0.0006  0.7598  0.5640
 2423TIP3    H228761   6.156   4.627  14.479 -0.2058  0.1831 -0.5081
 2424TIP3   OH228762   1.026   5.576   5.195 -0.0421  0.3037  0.3861
 2424TIP3    H128763   0.996   5.657   5.236  0.5366  0.1433  1.1565
 2424TIP3    H228764   1.121   5.585   5.190  0.2799 -1.1372  2.4005
 2425TIP3   OH228765   2.705   6.249  13.859 -0.6607  0.2362  0.4550
 2425TIP3    H128766   2.664   6.167  13.831 -1.3618 -0.2082  2.5934
 2425TIP3    H228767   2.644   6.317  13.831 -1.1366 -0.1513  0.5257
 2426TIP3   OH228768   1.668   4.019   2.072  0.0239 -0.5886 -0.1381
 2426TIP3    H128769   1.696   4.108   2.090  0.6413 -0.9129  0.5448
 2426TIP3    H228770   1.575   4.017   2.096  0.0643 -0.1925  0.0448
 2427TIP3   OH228771   5.325   4.072   2.823 -0.3978 -0.2671  0.2268
 2427TIP3    H128772   5.233   4.096   2.819 -0.0867  0.9317  0.0081
 2427TIP3    H228773   5.366   4.140   2.876  0.2266 -1.2731  1.0965
 2428TIP3   OH228774   6.794   1.532   2.285  0.6743 -0.1456  0.8405
 2428TIP3    H128775   6.793   1.468   2.214 -0.7141 -0.7457  1.3671
 2428TIP3    H228776   6.829   1.484   2.360  2.2678  0.5247  0.5567
 2429TIP3   OH228777   0.400   3.265  12.122 -0.4391  0.0147 -0.1282
 2429TIP3    H128778   0.310   3.293  12.105 -0.5466  0.5440  1.2263
 2429TIP3    H228779   0.398   3.171  12.106 -1.3823 -0.0794  0.4119
 2430TIP3   OH228780   4.890   1.889  13.188  0.3822 -0.0778  0.5630
 2430TIP3    H128781   4.902   1.800  13.219  1.8126  0.4447  1.5850
 2430TIP3    H228782   4.836   1.880  13.109 -0.6631 -1.7049  1.4089
 2431TIP3   OH228783   0.747   0.091  14.581 -0.3126 -0.1276 -0.2893
 2431TIP3    H128784   0.744   0.186  14.588 -0.1740  0.0885 -2.5124
 2431TIP3    H228785   0.656   0.065  14.565 -0.0979 -0.1211 -1.7019
 2432TIP3   OH228786   1.177   2.471   0.224 -0.0576  0.1375 -0.5465
 2432TIP3    H128787   1.238   2.530   0.180  0.1240  0.4182  0.0809
 2432TIP3    H228788   1.216   2.384   0.214 -0.2251  0.1414 -1.2981
 2433TIP3   OH228789   0.664   4.563  13.743  0.2015  0.8743 -0.1783
 2433TIP3    H128790   0.650   4.609  13.826  0.9552  0.2154  0.3330
 2433TIP3    H228791   0.577   4.535  13.715 -0.0271  0.8273  0.5664
 2434TIP3   OH228792   3.857   3.545   0.334 -0.0117 -0.1340  0.6966
 2434TIP3    H128793   3.931   3.559   0.394 -0.5625 -1.7857  1.8403
 2434TIP3    H228794   3.788   3.601   0.369  0.8798  2.1373 -0.9127
 2435TIP3   OH228795   1.869   4.799   5.545 -0.1794 -0.6878  0.5738
 2435TIP3    H128796   1.942   4.859   5.559  0.8596 -2.0855  1.3813
 2435TIP3    H228797   1.867   4.785   5.450 -0.2954  0.4127  0.4013
 2436TIP3   OH228798   5.155   4.888  14.674 -0.1998  0.2027 -0.1460
 2436TIP3    H128799   5.153   4.882  14.770  0.6288 -0.6958 -0.1659
 2436TIP3    H228800   5.100   4.814  14.645 -2.7271  2.0516 -0.3850
 2437TIP3   OH228801   1.975   0.831  16.046  0.4667 -0.3427  0.0860
 2437TIP3    H128802   1.924   0.811  15.968  1.0641 -2.0485  0.0782
 2437TIP3    H228803   2.066   0.814  16.020  0.7333 -0.3018  0.9592
 2438TIP3   OH228804   5.351   4.921   4.151 -0.2890  0.3057 -0.0646
 2438TIP3    H128805   5.272   4.939   4.202  0.0176  1.5193  0.0085
 2438TIP3    H228806   5.388   5.007   4.133 -0.4870 -0.0386 -2.4993
 2439TIP3   OH228807   5.372   4.613  12.226  0.5028  0.3744  0.0326
 2439TIP3    H128808   5.427   4.542  12.192  0.7200  0.7159 -0.3494
 2439TIP3    H228809   5.289   4.604  12.178  0.3035 -0.0042  0.4458
 2440TIP3   OH228810   1.248   5.426  11.960 -0.2289  0.0861  0.4247
 2440TIP3    H128811   1.195   5.491  12.006 -0.3776 -0.1405  0.5753
 2440TIP3    H228812   1.290   5.376  12.030 -0.4412 -0.2490  0.3129
 2441TIP3   OH228813   0.378   6.725  13.271  0.0715  0.2566  0.9058
 2441TIP3    H128814   0.313   6.732  13.341  1.1934  2.1760  1.8620
 2441TIP3    H228815   0.400   6.816  13.250 -0.1107 -0.2627 -1.8877
 2442TIP3   OH228816   4.044   5.935  13.105 -0.0604  0.3874  0.2102
 2442TIP3    H128817   4.113   5.920  13.040  1.0190  2.6237  0.7531
 2442TIP3    H228818   4.081   5.901  13.187 -1.2556 -2.0491 -0.1719
 2443TIP3   OH228819   2.873   1.940   5.773  0.1045 -0.4688 -0.1744
 2443TIP3    H128820   2.915   1.911   5.854  0.8309 -0.0591 -0.3950
 2443TIP3    H228821   2.820   2.015   5.800 -1.5296 -1.7535  0.3379
 2444TIP3   OH228822   6.420   1.906  15.699 -0.6312  0.3616 -1.0439
 2444TIP3    H128823   6.513   1.902  15.675 -0.0909  1.6858  0.6545
 2444TIP3    H228824   6.407   1.831  15.756 -0.0119  1.3742  0.4865
 2445TIP3   OH228825   5.981   3.180   3.956 -0.1364  0.4410  0.0203
 2445TIP3    H128826   5.956   3.219   4.040 -2.2052 -0.8023  0.0398
 2445TIP3    H228827   5.939   3.236   3.891  0.3576  0.6364 -0.1307
 2446TIP3   OH228828   4.143   1.041   1.087 -0.3910  0.3086  0.4001
 2446TIP3    H128829   4.153   1.124   1.133 -2.7087 -0.4487  2.4771
 2446TIP3    H228830   4.089   1.061   1.011  0.0119  0.8855  0.2627
 2447TIP3   OH228831   4.623   3.481   0.357 -0.1509 -0.1765 -0.5866
 2447TIP3    H128832   4.660   3.411   0.411 -0.8034  1.8830  2.7798
 2447TIP3    H228833   4.697   3.539   0.339 -0.5288  0.8950  1.1188
 2448TIP3   OH228834   2.035   4.280  10.971 -0.1801  0.3125 -0.2108
 2448TIP3    H128835   2.081   4.341  11.030  0.2860  1.5161 -1.7492
 2448TIP3    H228836   2.104   4.240  10.919 -0.6508 -0.1444 -0.4918
 2449TIP3   OH228837   6.596   1.696  14.248 -0.0660  0.1674 -0.5945
 2449TIP3    H128838   6.680   1.652  14.261  0.0947  0.9541  1.4069
 2449TIP3    H228839   6.619   1.778  14.205  0.3362  0.8107  0.8055
 2450TIP3   OH228840   4.877   4.897   2.845 -0.5224 -0.4271 -0.0044
 2450TIP3    H128841   4.838   4.811   2.825 -0.5226 -1.3652  3.3612
 2450TIP3    H228842   4.963   4.876   2.880 -0.0363  1.0645 -0.2551
 2451TIP3   OH228843   0.082   0.560   2.384 -0.0061  0.5926  0.0097
 2451TIP3    H128844   0.080   0.620   2.458 -3.0444  0.2843  0.3216
 2451TIP3    H228845   0.093   0.617   2.307 -1.4781  1.4660  0.4058
 2452TIP3   OH228846   2.108   1.251   2.234  0.1935  0.3201  0.2154
 2452TIP3    H128847   2.146   1.338   2.239 -2.6791  1.6467  2.3053
 2452TIP3    H228848   2.030   1.261   2.179 -0.1078 -0.9505  0.3561
 2453TIP3   OH228849   1.795   2.343  11.946  0.1514  0.2249 -0.3453
 2453TIP3    H128850   1.715   2.390  11.969  0.2906  0.6751 -0.7637
 2453TIP3    H228851   1.843   2.403  11.889 -0.3965 -1.0037 -2.1846
 2454TIP3   OH228852   4.446   4.075   0.920 -0.3348 -0.0345  0.0520
 2454TIP3    H128853   4.353   4.098   0.911 -0.3584 -0.8633 -2.6885
 2454TIP3    H228854   4.481   4.142   0.979 -2.4359  0.9908  0.2390
 2455TIP3   OH228855   2.753   2.979  11.417 -0.2257 -0.2448  0.2265
 2455TIP3    H128856   2.844   3.005  11.405  0.2611 -2.0222 -0.3114
 2455TIP3    H228857   2.755   2.883  11.414 -2.2089 -0.3126 -0.5062
 2456TIP3   OH228858   2.460   1.219   3.811  0.2178 -0.0521  0.4857
 2456TIP3    H128859   2.533   1.178   3.858 -0.4584 -0.0276  1.5850
 2456TIP3    H228860   2.459   1.310   3.841 -1.8465 -0.6634  2.5249
 2457TIP3   OH228861   1.823   6.113   6.115 -0.3895  0.5281  0.0498
 2457TIP3    H128862   1.744   6.126   6.062 -0.7679 -2.5977 -0.3658
 2457TIP3    H228863   1.885   6.179   6.082 -2.0725  1.5999 -1.1588
 2458TIP3   OH228864   3.283   5.114   2.954 -0.7103  0.0643 -0.6892
 2458TIP3    H128865   3.261   5.194   2.907 -0.6628  0.2317 -0.4304
 2458TIP3    H228866   3.360   5.136   3.006 -1.9861  0.5594  1.1337
 2459TIP3   OH228867   6.210   0.144  12.482 -0.6456  0.4877  0.3405
 2459TIP3    H128868   6.247   0.065  12.443  1.2886  1.2239  0.5981
 2459TIP3    H228869   6.118   0.143  12.456 -0.0449 -0.4404 -1.9572
 2460TIP3   OH228870   2.192   0.326   4.228 -0.3581 -0.1515  0.0331
 2460TIP3    H128871   2.114   0.288   4.269 -0.7803 -0.9803 -1.4501
 2460TIP3    H228872   2.159   0.369   4.149  0.8466 -2.2394 -1.7137
 2461TIP3   OH228873   6.384   3.661  16.676 -0.2964 -0.5624 -0.2180
 2461TIP3    H128874   6.391   3.746  16.633  0.2721  0.5025  1.8357
 2461TIP3    H228875   6.470   3.621  16.662 -0.2560 -0.3987 -0.4452
 2462TIP3   OH228876   5.692   5.647   2.328  0.3617  0.3807 -0.1091
 2462TIP3    H128877   5.734   5.577   2.377  1.6421  0.8967 -0.4475
 2462TIP3    H228878   5.626   5.682   2.389 -2.8298 -3.2574 -1.0308
 2463TIP3   OH228879   5.650   3.810  15.594 -0.1986 -0.6166  0.2550
 2463TIP3    H128880   5.594   3.887  15.598  0.9805  0.2158  1.3147
 2463TIP3    H228881   5.736   3.843  15.570  0.4253 -1.5359  1.1097
 2464TIP3   OH228882   1.618   2.019  11.470  0.1676 -0.2090  0.0896
 2464TIP3    H128883   1.632   2.107  11.435 -2.1504  0.5171  0.7934
 2464TIP3    H228884   1.525   2.001  11.453  0.2887 -1.9921  1.0871
 2465TIP3   OH228885   4.132   4.767  13.273  0.0876 -0.1447 -0.0420
 2465TIP3    H128886   4.127   4.672  13.268 -0.7438 -0.2566  1.9447
 2465TIP3    H228887   4.225   4.786  13.283  0.3271 -0.6873 -1.1372
 2466TIP3   OH228888   2.513   3.428  16.677 -0.7634 -0.2334 -0.1499
 2466TIP3    H128889   2.451   3.477  16.730 -0.3725  2.4317 -1.9319
 2466TIP3    H228890   2.586   3.489  16.664  0.0170 -1.4847 -2.0711
 2467TIP3   OH228891   2.315   6.049  11.076 -0.3164 -0.2597  0.0828
 2467TIP3    H128892   2.260   6.098  11.014 -0.9668  1.1162  1.6885
 2467TIP3    H228893   2.317   5.960  11.040 -1.2923  0.3108 -1.5011
 2468TIP3   OH228894   2.642   5.679   0.353  0.1865  0.3174  0.4678
 2468TIP3    H128895   2.652   5.592   0.391  0.7072  0.8700  1.6491
 2468TIP3    H228896   2.609   5.663   0.264 -1.4987 -1.0069  1.2848
 2469TIP3   OH228897   6.880   3.884   0.190 -0.2318  0.3912 -0.3122
 2469TIP3    H128898   6.835   3.951   0.241 -1.3189 -0.3250 -0.2988
 2469TIP3    H228899   6.964   3.923   0.169  0.2474  0.7323  1.9690
 2470TIP3   OH228900   1.150   4.935  12.953 -0.1264  0.5860  0.4178
 2470TIP3    H128901   1.064   4.953  12.991  0.7201  2.3592  1.6776
 2470TIP3    H228902   1.210   4.942  13.027  1.0951 -0.9514 -0.3801
 2471TIP3   OH228903   4.101   6.719  14.901  0.2548 -0.0898  0.2786
 2471TIP3    H128904   4.140   6.779  14.838  0.0360  0.2296  0.4474
 2471TIP3    H228905   4.011   6.709  14.871  0.7410 -1.7532 -0.8076
 2472TIP3   OH228906   6.011   4.151   6.618  0.3010  0.1697  0.2669
 2472TIP3    H128907   6.026   4.218   6.551 -0.5262  0.8352  0.7378
 2472TIP3    H228908   6.096   4.143   6.662  0.4414  0.8274  0.1323
 2473TIP3   OH228909   1.733   0.872   4.501  0.0248 -0.0541 -0.0354
 2473TIP3    H128910   1.792   0.867   4.426 -1.8194 -1.5698 -1.4697
 2473TIP3    H228911   1.728   0.966   4.522  1.0669  0.3222 -1.3855
 2474TIP3   OH228912   2.406   4.723   1.930 -0.0120 -0.0653 -0.0823
 2474TIP3    H128913   2.497   4.704   1.906  0.2274 -0.8572  1.3177
 2474TIP3    H228914   2.361   4.640   1.923 -0.6429  0.3286 -0.7821
 2475TIP3   OH228915   5.853   1.958   0.721 -0.0665 -0.4480 -0.2579
 2475TIP3    H128916   5.908   2.011   0.664 -0.4327  1.1456  0.8048
 2475TIP3    H228917   5.814   1.893   0.662 -0.8403  1.4472 -1.9636
 2476TIP3   OH228918   2.280   6.431  16.036  0.1816 -0.4402 -0.4310
 2476TIP3    H128919   2.318   6.478  16.110  2.3404 -0.1986 -1.6083
 2476TIP3    H228920   2.317   6.474  15.959 -1.1305 -1.3818 -1.6408
 2477TIP3   OH228921   4.039   5.069   3.844 -0.3397 -0.6067 -0.8804
 2477TIP3    H128922   3.997   5.002   3.791 -3.1846 -0.4570  0.9712
 2477TIP3    H228923   4.038   5.032   3.933  1.8648  0.2243 -0.4481
 2478TIP3   OH228924   0.866   3.248   4.506 -0.0546  0.9785 -0.6882
 2478TIP3    H128925   0.860   3.342   4.523  0.2001  0.8552  0.1149
 2478TIP3    H228926   0.779   3.224   4.473 -1.2322  0.9168  2.1606
 2479TIP3   OH228927   3.134   3.829  10.663 -0.7995  0.5261  0.0888
 2479TIP3    H128928   3.168   3.785  10.741  1.6817  1.0875 -0.5819
 2479TIP3    H228929   3.100   3.912  10.696  2.4528  1.8653  0.4200
 2480TIP3   OH228930   1.218   6.436  16.540 -0.0881 -0.2637  0.0183
 2480TIP3    H128931   1.256   6.485  16.613 -0.7484 -0.2721  0.3814
 2480TIP3    H228932   1.203   6.348  16.575  1.1380 -0.7650 -0.6443
 2481TIP3   OH228933   1.802   2.177  16.153  0.9515  0.0426  0.3842
 2481TIP3    H128934   1.897   2.166  16.157  1.1026  1.1699  0.2801
 2481TIP3    H228935   1.789   2.272  16.156 -0.1145 -0.0490 -0.6570
 2482TIP3   OH228936   1.678   2.243  11.344 -0.6338  0.1249 -0.6005
 2482TIP3    H128937   1.686   2.313  11.409  0.4184 -0.5916  0.0663
 2482TIP3    H228938   1.768   2.221  11.321 -0.9101 -1.4180 -0.3363
 2483TIP3   OH228939   5.279   3.875  10.771  0.2817  0.2027 -0.4488
 2483TIP3    H128940   5.285   3.783  10.746 -3.4337 -0.2595 -0.2909
 2483TIP3    H228941   5.291   3.923  10.690  1.6656 -0.4258 -0.6368
 2484TIP3   OH228942   5.053   3.168   1.710 -0.0640 -0.2910  0.0227
 2484TIP3    H128943   4.975   3.119   1.737 -0.8246  1.2126  0.6350
 2484TIP3    H228944   5.076   3.131   1.625 -1.4563 -0.7530 -0.1741
 2485TIP3   OH228945   5.411   6.139   4.959 -0.5154 -0.2631  0.1999
 2485TIP3    H128946   5.453   6.179   5.035 -0.6903 -0.4703  0.4042
 2485TIP3    H228947   5.422   6.045   4.972 -1.0012 -0.3147  0.2238
 2486TIP3   OH228948   1.187   6.128   3.624 -0.0595 -0.2867  0.0084
 2486TIP3    H128949   1.169   6.048   3.673  0.2136 -0.8909 -0.8586
 2486TIP3    H228950   1.102   6.155   3.590 -0.2119  0.0057  0.6030
 2487TIP3   OH228951   4.744   5.857   0.174 -0.0283  0.1358 -0.1019
 2487TIP3    H128952   4.789   5.813   0.247 -0.2935 -0.6931 -0.4246
 2487TIP3    H228953   4.664   5.806   0.162 -1.0493  1.5404  0.4165
 2488TIP3   OH228954   5.523   1.106   5.028  0.2903  0.9742 -0.1910
 2488TIP3    H128955   5.572   1.031   5.059  0.4822  1.3579  0.4380
 2488TIP3    H228956   5.581   1.181   5.040 -0.6726  1.5335  1.1995
 2489TIP3   OH228957   3.177   3.892  12.050  0.5304  0.3982 -0.4614
 2489TIP3    H128958   3.270   3.873  12.045  1.0046  2.3594  0.1466
 2489TIP3    H228959   3.139   3.845  11.975  2.0080 -0.3492 -0.7714
 2490TIP3   OH228960   0.354   3.443   2.610  0.4778 -0.1165 -0.7259
 2490TIP3    H128961   0.282   3.505   2.596 -0.3406 -0.5263  1.3562
 2490TIP3    H228962   0.384   3.460   2.699  0.0141 -2.8758  0.0640
 2491TIP3   OH228963   6.208   6.468  13.601 -0.1128 -0.5091 -0.5445
 2491TIP3    H128964   6.264   6.396  13.572  0.9059 -0.2782  0.7273
 2491TIP3    H228965   6.267   6.542  13.610 -0.1376 -0.7479  2.7510
 2492TIP3   OH228966   2.966   2.755  12.739 -0.2748 -0.1555  0.0062
 2492TIP3    H128967   3.027   2.752  12.813 -0.1118  0.6290 -0.0865
 2492TIP3    H228968   3.022   2.739  12.662  0.1212  2.0917 -0.2297
 2493TIP3   OH228969   3.410   0.831  10.939 -0.0388 -0.0309 -0.1827
 2493TIP3    H128970   3.483   0.778  10.906 -0.3139 -0.5255 -0.0196
 2493TIP3    H228971   3.398   0.899  10.874  0.8811  0.3424  0.0215
 2494TIP3   OH228972   0.329   5.994  12.870  0.2307 -0.5332 -0.1819
 2494TIP3    H128973   0.312   5.902  12.849  0.5970 -0.6990  0.2305
 2494TIP3    H228974   0.294   6.005  12.959 -0.7160 -0.0089 -0.6089
 2495TIP3   OH228975   3.583   4.630   2.669  0.4668 -0.8494  0.1155
 2495TIP3    H128976   3.533   4.572   2.612 -0.1591  2.1612 -2.6342
 2495TIP3    H228977   3.519   4.662   2.732 -0.0320 -0.4335 -0.5929
 2496TIP3   OH228978   3.887   6.322  14.968  0.1343 -0.0569  0.5800
 2496TIP3    H128979   3.809   6.368  14.998  1.1246  1.8563  0.3949
 2496TIP3    H228980   3.945   6.319  15.044  0.4645 -0.1612  0.3286
 2497TIP3   OH228981   4.193   5.999   6.334  0.2205 -0.2851  0.2407
 2497TIP3    H128982   4.206   5.972   6.243  0.0368 -0.7369  0.3476
 2497TIP3    H228983   4.275   5.974   6.378  1.6048  2.6659 -0.4033
 2498TIP3   OH228984   3.631   2.858   6.203 -0.2898 -0.2079 -0.3487
 2498TIP3    H128985   3.629   2.945   6.164  0.2002 -0.0566 -0.0363
 2498TIP3    H228986   3.553   2.855   6.259 -1.8416 -0.9534 -2.4231
 2499TIP3   OH228987   4.995   3.803  16.630  0.3731 -0.4331 -0.7318
 2499TIP3    H128988   5.078   3.830  16.670 -0.7995  1.6923  0.4902
 2499TIP3    H228989   4.980   3.714  16.663  1.1300 -0.0184  0.8611
 2500TIP3   OH228990   3.364   1.371   5.352 -0.1688  0.7588  0.1156
 2500TIP3    H128991   3.286   1.348   5.302 -0.7294 -1.2826  1.7826
 2500TIP3    H228992   3.334   1.436   5.415 -0.7322 -0.4395  1.1351
 2501TIP3   OH228993   4.689   4.235   2.041  0.7873 -0.2135  0.0232
 2501TIP3    H128994   4.783   4.232   2.023  0.6238  0.4778 -1.0272
 2501TIP3    H228995   4.656   4.303   1.983 -0.5136 -1.0955 -0.3071
 2502TIP3   OH228996   6.577   1.703  13.475 -0.2569  0.2959  0.1638
 2502TIP3    H128997   6.527   1.729  13.552 -1.5519 -0.9001 -0.2349
 2502TIP3    H228998   6.555   1.768  13.408  1.4838  1.8086  0.9578
 2503TIP3   OH228999   4.961   0.772   2.836  0.1069  0.2962  0.5998
 2503TIP3    H129000   4.932   0.859   2.811  0.9573  0.8728  1.5504
 2503TIP3    H229001   4.894   0.713   2.800 -1.0391  1.4090  0.8488
 2504TIP3   OH229002   6.461   3.479   4.825 -0.3976  0.0318  0.6792
 2504TIP3    H129003   6.440   3.389   4.803  1.8018 -0.2310 -0.7307
 2504TIP3    H229004   6.514   3.473   4.904  0.6170 -0.0581  0.0168
 2505TIP3   OH229005   6.735   2.910   4.839 -0.1292  0.4756 -0.5796
 2505TIP3    H129006   6.729   2.836   4.899 -1.7387  2.2667  1.6219
 2505TIP3    H229007   6.673   2.889   4.769 -0.3877 -0.3671 -0.1083
 2506TIP3   OH229008   0.994   4.800   2.462 -0.0774  0.3704  0.5469
 2506TIP3    H129009   0.928   4.746   2.420  1.8552 -0.7923 -1.2116
 2506TIP3    H229010   0.945   4.864   2.514 -2.4850 -1.6263  0.8730
 2507TIP3   OH229011   4.797   4.197  12.309 -0.1810 -0.2286  0.6843
 2507TIP3    H129012   4.850   4.276  12.311 -0.3006 -0.1578  0.9647
 2507TIP3    H229013   4.833   4.147  12.235  0.8434 -0.5735  1.3826
 2508TIP3   OH229014   2.269   2.889   4.235 -0.2096 -0.4084 -0.4668
 2508TIP3    H129015   2.342   2.846   4.192 -1.2300 -2.9228  0.1514
 2508TIP3    H229016   2.203   2.820   4.245 -1.7033  1.1611  1.1943
 2509TIP3   OH229017   3.884   5.727   6.430  0.2226  0.4795  0.9381
 2509TIP3    H129018   3.954   5.680   6.385 -2.0291 -0.3051 -2.0469
 2509TIP3    H229019   3.815   5.737   6.364 -3.1223 -0.1422  4.0153
 2510TIP3   OH229020   1.327   4.738  16.875  0.5754 -0.2287  0.3058
 2510TIP3    H129021   1.295   4.728  16.964  1.1286  0.7089  0.6272
 2510TIP3    H229022   1.369   4.824  16.874 -0.8595  0.5098 -1.3004
 2511TIP3   OH229023   0.816   1.075  11.263  0.2842 -0.4148  0.1046
 2511TIP3    H129024   0.827   1.121  11.179  1.8591 -1.4534 -0.2886
 2511TIP3    H229025   0.727   1.099  11.291 -0.5968 -0.6346 -2.2169
 2512TIP3   OH229026   2.792   0.479  10.559  0.2639  0.1126 -0.0244
 2512TIP3    H129027   2.712   0.470  10.506 -0.0671  1.3224  0.2311
 2512TIP3    H229028   2.813   0.572  10.554  1.5030 -0.1456  0.1603
 2513TIP3   OH229029   2.577   4.435   2.296 -0.0506  0.2858  0.1970
 2513TIP3    H129030   2.591   4.513   2.350 -0.5916  1.3003 -1.0740
 2513TIP3    H229031   2.501   4.457   2.242  0.5671 -0.6364 -1.0757
 2514TIP3   OH229032   2.277   5.050  11.976 -0.1379  0.0152  0.2255
 2514TIP3    H129033   2.372   5.042  11.977 -0.0023  1.4255  1.4053
 2514TIP3    H229034   2.257   5.116  12.042 -1.9316 -0.0951 -0.1426
 2515TIP3   OH229035   6.211   2.404   5.139  0.8431 -0.0080  0.5674
 2515TIP3    H129036   6.129   2.452   5.124  1.3241  0.6759  0.0715
 2515TIP3    H229037   6.271   2.470   5.173  1.3179 -0.4063  0.5067
 2516TIP3   OH229038   1.284   5.083   1.827 -0.5162 -0.1945 -0.2277
 2516TIP3    H129039   1.302   5.176   1.815  1.9125 -0.4507  0.8758
 2516TIP3    H229040   1.294   5.045   1.740 -2.0690  0.6093 -0.7900
 2517TIP3   OH229041   5.975   4.780  12.030  0.3707  0.2926  0.9946
 2517TIP3    H129042   6.010   4.692  12.046  0.4854  0.5096  1.9884
 2517TIP3    H229043   6.000   4.800  11.940 -0.5073 -1.0865  0.4186
 2518TIP3   OH229044   1.834   4.376  14.506  0.0463 -0.2531  0.0089
 2518TIP3    H129045   1.747   4.415  14.498  0.7228  1.2614 -0.2504
 2518TIP3    H229046   1.885   4.442  14.552  1.3612 -0.6285 -0.8689
 2519TIP3   OH229047   1.417   6.004  10.634  0.3881 -0.3203  0.0689
 2519TIP3    H129048   1.399   5.918  10.596 -0.6097  1.4508 -4.0291
 2519TIP3    H229049   1.337   6.054  10.620  2.0466  2.2551 -0.9383
 2520TIP3   OH229050   2.763   0.049  15.634 -0.2148  0.0507  0.1049
 2520TIP3    H129051   2.696   0.115  15.616 -0.8901 -0.4673  0.6201
 2520TIP3    H229052   2.846   0.092  15.615 -0.7211  0.5182 -1.1231
 2521TIP3   OH229053   4.771   3.540  15.679 -0.1139  0.0324 -0.4924
 2521TIP3    H129054   4.684   3.500  15.688  0.7851 -1.8180  0.4948
 2521TIP3    H229055   4.821   3.478  15.627  1.4385 -0.3736  1.3942
 2522TIP3   OH229056   6.872   3.293   5.682 -0.2108  0.4243  0.0488
 2522TIP3    H129057   6.788   3.278   5.725  0.3470  0.5887  1.2300
 2522TIP3    H229058   6.886   3.387   5.689  1.2027  0.1152  2.0968
 2523TIP3   OH229059   2.930   4.173  16.682  0.4382  0.3240  0.1635
 2523TIP3    H129060   2.942   4.083  16.713  1.3423  0.7005  0.9371
 2523TIP3    H229061   2.843   4.198  16.714 -0.0790 -0.4677 -0.5743
 2524TIP3   OH229062   4.570   2.370   0.821  0.1551  0.0088 -0.2888
 2524TIP3    H129063   4.655   2.402   0.851  0.3998  0.6743 -1.5941
 2524TIP3    H229064   4.506   2.424   0.866  0.5117  0.9928 -0.9322
 2525TIP3   OH229065   1.961   3.700   0.180  0.3509  0.1251 -0.4046
 2525TIP3    H129066   1.921   3.786   0.190 -2.1060 -1.0088  0.5691
 2525TIP3    H229067   2.046   3.708   0.223  1.2341  2.6260 -2.3886
 2526TIP3   OH229068   5.354   6.397  12.311 -0.3609  0.0728  0.1348
 2526TIP3    H129069   5.287   6.329  12.302 -0.4290  0.3259 -1.5885
 2526TIP3    H229070   5.339   6.435  12.398 -0.0325 -2.3782  1.3549
 2527TIP3   OH229071   6.299   1.134   5.147  0.5832 -0.4884  0.1566
 2527TIP3    H129072   6.223   1.172   5.102 -0.5903  0.5511  2.7741
 2527TIP3    H229073   6.275   1.043   5.161  1.2566 -1.0092 -1.8098
 2528TIP3   OH229074   6.636   4.373   3.023  0.1222 -0.2454  0.1153
 2528TIP3    H129075   6.659   4.360   3.115 -1.4479 -0.5856  0.4911
 2528TIP3    H229076   6.714   4.412   2.984  0.3619  1.2078  1.9004
 2529TIP3   OH229077   4.648   4.684  16.530 -0.2167  0.3410  0.0486
 2529TIP3    H129078   4.633   4.777  16.512 -1.3970  0.9460  3.3245
 2529TIP3    H229079   4.715   4.684  16.598  1.4774 -1.4100 -1.5194
 2530TIP3   OH229080   5.451   4.261   2.052 -0.1695  0.6695 -0.4097
 2530TIP3    H129081   5.494   4.177   2.037  1.2508  1.0684  1.1538
 2530TIP3    H229082   5.484   4.290   2.137 -1.9931  1.9853 -0.0876
 2531TIP3   OH229083   0.063   5.593  15.948 -0.0461 -0.3697 -0.1023
 2531TIP3    H129084   0.081   5.646  16.026 -0.3704 -0.0973 -0.2042
 2531TIP3    H229085   0.147   5.585  15.903  0.4635 -1.8017  1.0418
 2532TIP3   OH229086   0.875   3.602  15.807 -0.6014  0.0874  0.1344
 2532TIP3    H129087   0.802   3.660  15.787 -1.4398 -0.9459  0.1077
 2532TIP3    H229088   0.836   3.515  15.813  0.2707 -0.2275  2.2145
 2533TIP3   OH229089   3.192   1.162   0.259  0.5034 -0.1238  0.1081
 2533TIP3    H129090   3.261   1.186   0.197 -0.2299  1.6089 -0.0882
 2533TIP3    H229091   3.215   1.073   0.287  1.0941 -0.8269 -2.3113
 2534TIP3   OH229092   2.654   0.046  13.788 -0.8242  0.2730  0.4202
 2534TIP3    H129093   2.572   0.091  13.805 -1.7207 -0.8466 -0.7257
 2534TIP3    H229094   2.668   0.056  13.694  1.0810  1.5973  0.7850
 2535TIP3   OH229095   2.920   3.868   1.618  0.2648 -0.5558 -0.6675
 2535TIP3    H129096   2.998   3.829   1.579  0.5929  0.2321 -0.8136
 2535TIP3    H229097   2.944   3.959   1.636 -0.8706 -0.0517 -1.5035
 2536TIP3   OH229098   3.682   3.562  14.782  0.3043  0.7345 -0.4834
 2536TIP3    H129099   3.698   3.602  14.697  2.2664  0.1383 -0.4471
 2536TIP3    H229100   3.727   3.619  14.845 -2.7250  2.2702  0.4985
 2537TIP3   OH229101   0.910   3.776  16.632  0.4825 -0.1313 -0.0048
 2537TIP3    H129102   0.877   3.718  16.701  0.1488 -0.3710 -0.3604
 2537TIP3    H229103   0.872   3.861  16.651  2.1168  0.3543  1.3578
 2538TIP3   OH229104   0.330   3.179  16.920  0.2265 -0.1768  0.2497
 2538TIP3    H129105   0.262   3.180  16.852  0.1691  1.2984  0.2957
 2538TIP3    H229106   0.293   3.127  16.991 -0.4187 -0.2661 -0.1484
 2539TIP3   OH229107   6.451   2.309  14.308 -0.0281  0.0444  0.5568
 2539TIP3    H129108   6.514   2.269  14.368  0.7077 -0.9621 -0.8344
 2539TIP3    H229109   6.444   2.247  14.236  0.9657  2.2645 -1.6072
 2540TIP3   OH229110   5.780   3.373   2.624  0.4768 -0.3208 -0.4384
 2540TIP3    H129111   5.739   3.329   2.699 -0.1092  0.1650 -0.4627
 2540TIP3    H229112   5.710   3.428   2.588  1.2601  0.8226 -0.2572
 2541TIP3   OH229113   4.123   0.605   3.506  0.3403  0.8330 -0.2546
 2541TIP3    H129114   4.031   0.616   3.527  0.4123 -1.3596  1.6020
 2541TIP3    H229115   4.126   0.533   3.444  0.8852 -0.5024  1.2669
 2542TIP3   OH229116   3.330   6.721   3.729 -0.3234 -0.2243  0.2745
 2542TIP3    H129117   3.300   6.748   3.642  1.4834  0.9946 -0.0370
 2542TIP3    H229118   3.418   6.687   3.714  0.5481  1.2403  1.7602
 2543TIP3   OH229119   2.556   6.094  13.684  0.4018 -0.2618  0.4857
 2543TIP3    H129120   2.499   6.120  13.612  0.0669 -0.9580  0.4934
 2543TIP3    H229121   2.522   6.009  13.713  0.3903  0.1101  1.6156
 2544TIP3   OH229122   6.097   6.877   2.795  0.1944  0.5434  0.2244
 2544TIP3    H129123   6.012   6.844   2.823  1.2489 -3.2365 -0.4389
 2544TIP3    H229124   6.091   6.883   2.700  0.4647  0.9547  0.2302
 2545TIP3   OH229125   1.282   6.130   4.700  0.5329  0.5976 -0.0666
 2545TIP3    H129126   1.365   6.081   4.705  0.0990 -0.0516  1.2260
 2545TIP3    H229127   1.301   6.202   4.639  2.1499  0.6415  0.4210
 2546TIP3   OH229128   4.657   0.337   2.649 -0.1360  0.3335 -0.3067
 2546TIP3    H129129   4.641   0.431   2.654  1.1688  0.6252 -1.2398
 2546TIP3    H229130   4.748   0.329   2.623 -0.9373 -1.1629 -3.0294
 2547TIP3   OH229131   1.087   2.936  10.597  0.3234 -0.4485  0.3343
 2547TIP3    H129132   0.997   2.967  10.587  0.4422 -0.1291  0.2607
 2547TIP3    H229133   1.122   2.937  10.508  0.5394 -0.1523  0.4223
 2548TIP3   OH229134   0.998   1.470   4.469 -0.2569  0.2488  0.3428
 2548TIP3    H129135   1.087   1.454   4.439 -0.7238 -1.2473 -0.3426
 2548TIP3    H229136   0.946   1.401   4.428 -1.2933 -0.6402  2.9163
 2549TIP3   OH229137   6.168   3.002   3.050  0.0075  0.5972  0.3409
 2549TIP3    H129138   6.203   3.063   2.986 -0.1503  0.3151 -0.0197
 2549TIP3    H229139   6.140   2.926   2.999 -1.3351  0.9016  0.5729
 2550TIP3   OH229140   2.073   3.925  13.330  0.2854  0.5844 -0.0247
 2550TIP3    H129141   1.987   3.893  13.356  0.3755  1.3290  1.2649
 2550TIP3    H229142   2.055   4.006  13.282  0.1516 -0.5200 -1.9359
 2551TIP3   OH229143   6.351   2.541  16.372 -0.7661  0.8152  0.6112
 2551TIP3    H129144   6.359   2.523  16.278 -1.1803  1.3985  0.4578
 2551TIP3    H229145   6.350   2.636  16.378 -0.7175  0.7817  1.2146
 2552TIP3   OH229146   1.428   5.870  15.838 -0.2755 -0.3277  0.2159
 2552TIP3    H129147   1.351   5.890  15.785 -0.6003  0.7640  1.0598
 2552TIP3    H229148   1.486   5.822  15.779 -1.6780 -1.3663 -0.3778
 2553TIP3   OH229149   3.352   1.653   2.086 -0.1201 -0.1574  0.5941
 2553TIP3    H129150   3.427   1.612   2.130  0.0346 -0.3246  0.1850
 2553TIP3    H229151   3.349   1.611   2.000 -0.4875  0.0799  0.4877
 2554TIP3   OH229152   2.858   2.199   6.539  0.1634 -0.5883  0.0672
 2554TIP3    H129153   2.906   2.229   6.462  0.9593 -0.0813  0.7455
 2554TIP3    H229154   2.836   2.108   6.519 -0.3478 -0.2361 -1.0904
 2555TIP3   OH229155   2.708   1.453   5.425  0.0703 -0.3014  0.2448
 2555TIP3    H129156   2.730   1.474   5.334  0.7447  0.0444  0.4839
 2555TIP3    H229157   2.789   1.466   5.474  0.0518 -1.7265  0.7064
 2556TIP3   OH229158   3.013   6.246  13.159  0.1462 -0.6716  0.0470
 2556TIP3    H129159   3.086   6.192  13.128 -0.5355 -1.0780 -0.8763
 2556TIP3    H229160   3.054   6.330  13.181  0.5663  0.0955 -3.0934
 2557TIP3   OH229161   6.225   1.562   4.991 -0.0822  0.2909  0.3614
 2557TIP3    H129162   6.259   1.652   4.995 -2.1475  1.2359 -1.3851
 2557TIP3    H229163   6.237   1.537   4.899  2.9999 -2.3927  1.3077
 2558TIP3   OH229164   1.093   1.957   5.559 -0.0460  0.5618  0.3146
 2558TIP3    H129165   1.179   1.984   5.592 -0.4796  1.9664  0.3630
 2558TIP3    H229166   1.105   1.949   5.465  0.5768 -1.0473  0.5005
 2559TIP3   OH229167   5.954   1.351  14.130  0.3223 -0.7690  0.0986
 2559TIP3    H129168   6.031   1.356  14.074  0.8643 -0.7643  0.8432
 2559TIP3    H229169   5.951   1.260  14.159  1.2188 -0.3202  1.6947
 2560TIP3   OH229170   2.805   4.453   2.448 -0.5598  0.0822 -0.5600
 2560TIP3    H129171   2.737   4.491   2.503  1.0263  0.5362  1.2194
 2560TIP3    H229172   2.758   4.410   2.377 -2.6069  1.5729 -0.1929
 2561TIP3   OH229173   6.794   3.976  12.168 -0.0911 -0.3556  0.6314
 2561TIP3    H129174   6.873   3.922  12.177  0.0964 -0.4105 -1.0594
 2561TIP3    H229175   6.731   3.920  12.123  0.2168  0.8518 -1.4566
 2562TIP3   OH229176   6.202   4.370  14.259  0.3421  0.2400  0.0283
 2562TIP3    H129177   6.187   4.317  14.181 -1.1897 -0.9223  1.0587
 2562TIP3    H229178   6.251   4.313  14.318  1.4021  1.0741 -0.0235
 2563TIP3   OH229179   6.492   0.647   6.388  0.0111  0.4919 -0.3165
 2563TIP3    H129180   6.445   0.564   6.394 -1.8461  1.5526  1.1992
 2563TIP3    H229181   6.426   0.713   6.409  1.3427  2.4031 -1.7916
 2564TIP3   OH229182   3.314   2.084   4.613 -0.0227 -0.7141  0.0976
 2564TIP3    H129183   3.263   2.006   4.592 -0.1235 -0.5428 -0.3016
 2564TIP3    H229184   3.317   2.086   4.709 -1.8096 -0.0608  0.1738
 2565TIP3   OH229185   5.128   6.147   4.663  0.4488 -0.5709 -1.0086
 2565TIP3    H129186   5.215   6.172   4.692 -0.0872  0.1826  0.0473
 2565TIP3    H229187   5.081   6.230   4.654 -0.8036 -1.0337  0.6675
 2566TIP3   OH229188   4.581   2.881  13.313  0.4031 -0.3735 -0.5466
 2566TIP3    H129189   4.498   2.848  13.277  1.2528 -2.2431 -0.9231
 2566TIP3    H229190   4.555   2.954  13.369 -1.2765  0.4643 -2.3096
 2567TIP3   OH229191   5.955   5.027   5.178 -0.2929 -0.4866 -0.6062
 2567TIP3    H129192   6.005   4.950   5.150  1.1316 -1.0423  3.0114
 2567TIP3    H229193   6.014   5.101   5.165  1.5410 -1.0870  3.2181
 2568TIP3   OH229194   4.634   0.637   2.685  0.2850 -0.2967 -0.0732
 2568TIP3    H129195   4.698   0.705   2.664  1.0763 -1.2718 -0.9426
 2568TIP3    H229196   4.558   0.658   2.631  0.4620 -0.0072 -0.2154
 2569TIP3   OH229197   2.005   3.366   4.129  0.4257  0.0623  0.4832
 2569TIP3    H129198   1.971   3.443   4.174  0.2508 -0.5186  1.3545
 2569TIP3    H229199   2.028   3.398   4.042 -3.0717  0.3783 -0.5010
 2570TIP3   OH229200   4.240   5.683  15.656 -0.1150 -0.1768  0.0845
 2570TIP3    H129201   4.205   5.639  15.733  0.5554 -0.3013  0.3168
 2570TIP3    H229202   4.163   5.722  15.614 -0.9008 -2.3757 -0.6718
 2571TIP3   OH229203   3.990   2.933  16.753 -0.2062  0.6764  0.0726
 2571TIP3    H129204   4.047   3.006  16.728 -0.5946  1.1350  0.5122
 2571TIP3    H229205   3.968   2.951  16.845  0.6796 -0.6275  0.5650
 2572TIP3   OH229206   3.301   0.367   2.332 -0.0218  0.0727 -0.1830
 2572TIP3    H129207   3.261   0.419   2.262 -4.8149  0.4534  2.4098
 2572TIP3    H229208   3.293   0.277   2.303  1.1667  0.3427 -1.4467
 2573TIP3   OH229209   2.235   1.498   3.713 -0.0364 -0.4296  0.0367
 2573TIP3    H129210   2.141   1.513   3.729  0.2332 -0.2948  1.7037
 2573TIP3    H229211   2.238   1.420   3.659 -1.1009 -0.8523  0.5514
 2574TIP3   OH229212   5.422   6.606   3.931  0.2854  0.4504 -0.2067
 2574TIP3    H129213   5.458   6.660   4.002 -2.9694  1.4845  0.8059
 2574TIP3    H229214   5.470   6.634   3.853  1.2092  2.1514  0.9180
 2575TIP3   OH229215   3.138   2.234   5.417  0.3777 -0.1855  0.0921
 2575TIP3    H129216   3.147   2.233   5.512  0.7312 -0.1787  0.0610
 2575TIP3    H229217   3.046   2.213   5.401  0.5263 -1.1159  0.3995
 2576TIP3   OH229218   4.048   6.351  10.379  0.0239 -0.2082 -0.1573
 2576TIP3    H129219   4.078   6.315  10.296 -1.1129  0.7883 -1.0289
 2576TIP3    H229220   3.957   6.375  10.364 -0.1294  0.2286  1.2986
 2577TIP3   OH229221   6.296   6.704  15.389  0.9314 -0.2794 -0.0173
 2577TIP3    H129222   6.220   6.717  15.332  2.0105 -0.8725 -1.6418
 2577TIP3    H229223   6.259   6.667  15.469 -0.5553 -0.0183 -0.5471
 2578TIP3   OH229224   1.392   2.779  16.880  0.6386  0.4522  0.4889
 2578TIP3    H129225   1.442   2.835  16.939 -0.1008 -0.3150  1.9193
 2578TIP3    H229226   1.450   2.704  16.863  0.1129 -0.3445  1.9924
 2579TIP3   OH229227   3.863   1.589  10.896  0.3903  0.3268  0.1122
 2579TIP3    H129228   3.860   1.684  10.910 -2.9635 -0.0076  2.9845
 2579TIP3    H229229   3.772   1.562  10.892  1.1865 -3.0059  1.3303
 2580TIP3   OH229230   1.490   3.218  11.653  0.4368  0.3939 -0.0829
 2580TIP3    H129231   1.416   3.278  11.653  0.7873  0.8836  1.9801
 2580TIP3    H229232   1.479   3.165  11.732  1.9262  0.0222 -0.0915
 2581TIP3   OH229233   3.707   1.784   3.846  0.2646 -1.0368  0.1582
 2581TIP3    H129234   3.731   1.746   3.931 -0.2801 -1.0211  0.3278
 2581TIP3    H229235   3.698   1.878   3.863  1.6617 -0.8142 -0.2740
 2582TIP3   OH229236   5.492   1.636  12.617  0.1946  0.3138  0.1342
 2582TIP3    H129237   5.470   1.610  12.527 -0.1506  0.4730  0.1721
 2582TIP3    H229238   5.534   1.559  12.655  0.8619  0.4252 -0.3438
 2583TIP3   OH229239   5.571   2.264  14.387  0.3656  0.0579  0.0399
 2583TIP3    H129240   5.598   2.350  14.353 -2.3022  0.6217 -0.8423
 2583TIP3    H229241   5.646   2.207  14.370  1.5281  1.7939 -0.9913
 2584TIP3   OH229242   5.840   6.865  12.228  0.7483 -0.3842  1.4133
 2584TIP3    H129243   5.796   6.872  12.143 -0.8366 -1.3056  2.1286
 2584TIP3    H229244   5.911   6.930  12.223  1.4481 -1.2091 -1.0433
 2585TIP3   OH229245   0.666   5.331   3.285 -0.2096  0.2038 -0.0261
 2585TIP3    H129246   0.685   5.309   3.376  0.0245 -0.8672 -0.3290
 2585TIP3    H229247   0.646   5.248   3.244  1.2528  0.4597 -1.3369
 2586TIP3   OH229248   6.405   2.237   0.265  0.0930  0.2126  0.3563
 2586TIP3    H129249   6.413   2.275   0.353  0.5159 -1.2554  0.9788
 2586TIP3    H229250   6.473   2.170   0.262 -1.1917 -1.1058 -0.3819
 2587TIP3   OH229251   3.960   2.675  13.621 -0.1592 -0.4965  0.3911
 2587TIP3    H129252   3.986   2.648  13.709 -0.1038 -1.6384  0.0369
 2587TIP3    H229253   4.014   2.622  13.562 -1.7856 -1.4364 -0.3366
 2588TIP3   OH229254   5.349   0.283  15.258  0.2188 -0.0485 -0.3081
 2588TIP3    H129255   5.413   0.275  15.330 -1.2824  1.8647  1.3490
 2588TIP3    H229256   5.282   0.218  15.279  0.8787 -1.0666 -1.2696
 2589TIP3   OH229257   4.405   5.194  14.073  0.0340  0.4209  0.4228
 2589TIP3    H129258   4.336   5.255  14.099 -2.5420 -1.8006 -0.8202
 2589TIP3    H229259   4.375   5.109  14.103  2.4915 -0.6121  0.1927
 2590TIP3   OH229260   5.875   4.963   3.604 -0.0146 -0.2164  0.0516
 2590TIP3    H129261   5.857   4.958   3.698 -1.6945  0.7192 -0.1692
 2590TIP3    H229262   5.865   4.873   3.573 -2.5862 -0.1028  0.3194
 2591TIP3   OH229263   4.048   1.701  14.346  0.5792 -0.3034  0.4529
 2591TIP3    H129264   4.043   1.779  14.290 -1.3997  0.2831  1.3543
 2591TIP3    H229265   4.079   1.734  14.430 -3.6039  0.3514  1.9788
 2592TIP3   OH229266   5.782   2.121  16.521  0.1188 -0.4436 -0.6971
 2592TIP3    H129267   5.855   2.130  16.460  0.2710  0.8801 -0.3337
 2592TIP3    H229268   5.711   2.086  16.468  0.5885 -0.3817 -1.3738
 2593TIP3   OH229269   5.192   2.611   5.500 -0.0368 -0.3004  0.0537
 2593TIP3    H129270   5.134   2.547   5.540  1.1304 -1.0840  0.5387
 2593TIP3    H229271   5.280   2.576   5.514  0.6273  1.3662  0.2835
 2594TIP3   OH229272   3.720   6.790  14.201 -0.2399 -0.2771  0.1851
 2594TIP3    H129273   3.769   6.860  14.243 -0.0496 -1.4851  2.1225
 2594TIP3    H229274   3.710   6.818  14.110 -1.1740  2.7562  1.1141
 2595TIP3   OH229275   5.997   2.562   5.191  0.4251  0.4370  0.2773
 2595TIP3    H129276   5.997   2.657   5.183  2.9178  0.4741  0.0080
 2595TIP3    H229277   5.914   2.535   5.152  0.4371  2.3852 -1.2733
 2596TIP3   OH229278   3.233   1.359  12.192  0.5851 -0.0221 -0.0866
 2596TIP3    H129279   3.162   1.396  12.140  0.3991  2.1382  1.5806
 2596TIP3    H229280   3.310   1.366  12.135 -0.0049  0.2281 -0.8755
 2597TIP3   OH229281   3.856   1.278   1.326 -0.3221 -0.1871 -0.0738
 2597TIP3    H129282   3.832   1.188   1.305  2.0829 -0.8519 -0.2881
 2597TIP3    H229283   3.862   1.280   1.421  3.3729 -1.4669 -0.1172
 2598TIP3   OH229284   1.153   5.472   0.988 -0.0268  0.0107  0.3060
 2598TIP3    H129285   1.205   5.460   0.909 -0.6342  1.1007 -0.2953
 2598TIP3    H229286   1.178   5.559   1.020  0.6177 -0.6484  1.6326
 2599TIP3   OH229287   3.334   5.309  11.832  0.4580 -0.5310 -0.7252
 2599TIP3    H129288   3.282   5.297  11.753  2.0186 -1.9289 -1.6020
 2599TIP3    H229289   3.420   5.337  11.801 -0.0229  3.2946  0.7593
 2600TIP3   OH229290   1.360   5.663   4.848 -0.2045 -0.0445  0.0395
 2600TIP3    H129291   1.396   5.574   4.852  0.9335  0.2998 -1.5425
 2600TIP3    H229292   1.335   5.674   4.756  2.7096  2.3411 -0.6244
 2601TIP3   OH229293   4.608   0.721  15.610  0.1990  0.1653  0.2206
 2601TIP3    H129294   4.571   0.716  15.522  0.4589  2.8045 -0.1119
 2601TIP3    H229295   4.634   0.631  15.630 -4.2501 -1.5361 -0.4089
 2602TIP3   OH229296   2.223   1.675  12.327  0.0206 -0.1960 -0.4040
 2602TIP3    H129297   2.265   1.679  12.414 -1.4177 -1.4467  0.3919
 2602TIP3    H229298   2.260   1.597  12.286 -1.2285 -1.1169  0.1702
 2603TIP3   OH229299   5.965   4.067  16.860 -0.3924 -0.3055  0.3634
 2603TIP3    H129300   5.929   3.995  16.911  0.6250 -1.7683 -0.9054
 2603TIP3    H229301   6.056   4.073  16.887 -0.3954  0.3381  0.2589
 2604TIP3   OH229302   5.442   6.768   4.453  0.3539 -0.2715 -0.4672
 2604TIP3    H129303   5.489   6.819   4.519 -0.6333 -0.7733  0.6585
 2604TIP3    H229304   5.406   6.834   4.394  1.0699  0.2011 -0.3960
 2605TIP3   OH229305   1.421   3.379  13.823 -0.3170  0.0168 -0.3513
 2605TIP3    H129306   1.377   3.456  13.788  0.6192  1.0342  0.6462
 2605TIP3    H229307   1.514   3.402  13.822 -0.0383 -1.0264  0.1467
 2606TIP3   OH229308   3.066   1.910  12.142 -0.2206  0.1912 -0.4122
 2606TIP3    H129309   3.158   1.883  12.142 -0.2606  0.0336 -1.0888
 2606TIP3    H229310   3.035   1.890  12.231  0.0174 -1.0944 -0.5920
 2607TIP3   OH229311   1.708   2.077  14.864  0.1562  0.3209 -0.5532
 2607TIP3    H129312   1.691   2.020  14.939  1.0317 -1.3897 -1.5833
 2607TIP3    H229313   1.767   2.144  14.897  1.7816 -1.2866  0.0056
 2608TIP3   OH229314   4.259   4.749  14.530  0.0979  0.2824 -0.7835
 2608TIP3    H129315   4.319   4.822  14.514  0.2768 -0.1185 -2.0655
 2608TIP3    H229316   4.200   4.750  14.454 -0.7102 -0.1336 -0.1803
 2609TIP3   OH229317   4.962   5.164   4.481 -0.1916  0.3115 -0.2521
 2609TIP3    H129318   4.904   5.147   4.407 -1.4942  0.9544  0.5721
 2609TIP3    H229319   4.955   5.086   4.536 -0.6668  0.5765  0.0755
 2610TIP3   OH229320   4.100   1.984  12.715  0.1733 -0.1128  0.0661
 2610TIP3    H129321   4.185   1.966  12.676  0.7059  0.4957  0.8922
 2610TIP3    H229322   4.116   1.978  12.810 -0.3898  1.2239  0.2776
 2611TIP3   OH229323   5.807   6.345   1.437  0.3710 -0.1745 -0.5199
 2611TIP3    H129324   5.878   6.396   1.476 -1.1235 -0.0468  2.2584
 2611TIP3    H229325   5.731   6.404   1.439 -0.6224 -1.4122 -0.2168
 2612TIP3   OH229326   2.531   6.403   3.278 -0.0016 -0.3688 -0.1662
 2612TIP3    H129327   2.522   6.494   3.253 -2.1020 -0.4461  0.1267
 2612TIP3    H229328   2.586   6.405   3.357 -0.8060  0.7612  0.3962
 2613TIP3   OH229329   1.377   3.082   4.058 -0.0650  0.2170  0.5268
 2613TIP3    H129330   1.293   3.055   4.022  0.4470 -1.8289  0.7258
 2613TIP3    H229331   1.442   3.043   3.999  0.8533  3.4140 -0.8282
 2614TIP3   OH229332   5.431   0.112   4.839  0.1699 -0.2967  0.3283
 2614TIP3    H129333   5.340   0.144   4.843  0.4021  0.6427 -1.0963
 2614TIP3    H229334   5.450   0.107   4.746  0.8796 -2.6446  0.5372
 2615TIP3   OH229335   2.275   5.961  10.769 -0.1913 -0.5649 -0.0219
 2615TIP3    H129336   2.286   5.906  10.848 -1.9648  1.8648  2.0798
 2615TIP3    H229337   2.332   5.920  10.704  1.8316 -2.4166  2.6613
 2616TIP3   OH229338   1.012   4.115  16.580  0.2321  0.1443 -0.0110
 2616TIP3    H129339   1.026   4.146  16.669  0.1180 -2.4267  0.9768
 2616TIP3    H229340   1.100   4.094  16.548  0.2313  0.6468 -0.3497
 2617TIP3   OH229341   0.954   2.858   3.559 -0.2889  0.2185  0.4044
 2617TIP3    H129342   0.923   2.904   3.481  0.5596  0.1378  0.0198
 2617TIP3    H229343   0.877   2.808   3.588 -0.4664 -0.1784 -0.6864
 2618TIP3   OH229344   0.258   4.515   3.261  0.6194 -0.4864 -0.0723
 2618TIP3    H129345   0.221   4.514   3.349 -0.2063  0.4632 -0.3883
 2618TIP3    H229346   0.187   4.486   3.204  0.0113  2.1093 -0.7757
 2619TIP3   OH229347   6.428   6.252  13.435  0.4081  0.2734  0.3033
 2619TIP3    H129348   6.490   6.323  13.420 -0.1379  1.1659  2.0778
 2619TIP3    H229349   6.482   6.173  13.436  0.8416  0.3289 -3.3778
 2620TIP3   OH229350   5.263   3.649   2.740 -0.0612 -0.1432 -0.3435
 2620TIP3    H129351   5.168   3.643   2.733 -0.1256  0.1671  0.1711
 2620TIP3    H229352   5.295   3.566   2.705 -0.5835 -0.7991  0.6739
 2621TIP3   OH229353   3.323   4.078  12.376  0.7043 -0.0772  0.3734
 2621TIP3    H129354   3.333   4.144  12.307 -1.9638  0.2654  0.2028
 2621TIP3    H229355   3.402   4.025  12.370  2.1826  2.1071 -0.5780
 2622TIP3   OH229356   3.062   6.844  11.217 -0.3233 -0.2594  0.0825
 2622TIP3    H129357   3.024   6.924  11.179  0.8267 -0.8171 -2.4920
 2622TIP3    H229358   2.988   6.783  11.223 -0.7214  0.1575 -0.4413
 2623TIP3   OH229359   4.882   0.146   1.026 -0.7599 -0.3684 -0.0394
 2623TIP3    H129360   4.836   0.065   1.048 -0.5066 -0.5812 -0.2793
 2623TIP3    H229361   4.862   0.205   1.098  0.0230 -1.0353  0.7521
 2624TIP3   OH229362   4.004   5.383  11.567 -0.3713 -0.3323  0.3237
 2624TIP3    H129363   4.025   5.290  11.571 -0.0384 -0.2311  1.1419
 2624TIP3    H229364   4.085   5.427  11.593  0.6038  0.3451 -3.3300
 2625TIP3   OH229365   0.222   3.937  10.985  0.5530 -0.0988  0.0853
 2625TIP3    H129366   0.303   3.943  10.934  0.6948  1.4637  0.4620
 2625TIP3    H229367   0.153   3.955  10.921  0.5030 -1.0590 -0.1534
 2626TIP3   OH229368   0.192   6.267  14.019 -0.7434 -0.2907 -0.2742
 2626TIP3    H129369   0.223   6.193  13.967  0.3736 -0.9060  1.1914
 2626TIP3    H229370   0.272   6.315  14.042 -1.4435  1.4605 -1.2537
 2627TIP3   OH229371   3.714   3.691  12.775 -0.2851 -0.5004 -0.5481
 2627TIP3    H129372   3.759   3.694  12.859  2.6386 -0.5836 -1.9721
 2627TIP3    H229373   3.682   3.601  12.768 -1.6322 -0.1638  0.9471
 2628TIP3   OH229374   0.314   6.038  16.685 -0.0373  0.7471 -0.2897
 2628TIP3    H129375   0.362   6.111  16.645 -0.0853 -0.4480 -2.7258
 2628TIP3    H229376   0.223   6.052  16.660 -0.1323  0.1544 -0.2879
 2629TIP3   OH229377   2.847   3.600  13.441 -0.2368 -0.5136 -0.1410
 2629TIP3    H129378   2.789   3.567  13.509 -0.6923  3.5824  1.7206
 2629TIP3    H229379   2.791   3.608  13.364 -0.3660 -2.7571 -0.3386
 2630TIP3   OH229380   5.669   5.114  16.680 -0.1642  0.0669 -0.6102
 2630TIP3    H129381   5.726   5.185  16.710 -0.8698 -0.4463  2.3164
 2630TIP3    H229382   5.718   5.071  16.610  0.7055  2.7849 -1.7809
 2631TIP3   OH229383   1.143   1.638  14.774 -0.2678  0.0706  0.6860
 2631TIP3    H129384   1.083   1.596  14.712  2.0511 -2.3865 -0.0814
 2631TIP3    H229385   1.123   1.731  14.767 -1.2766 -0.2620 -2.5100
 2632TIP3   OH229386   4.738   3.116  17.030  0.1222 -0.3710  0.3864
 2632TIP3    H129387   4.671   3.071  16.980 -0.1752 -0.2623  0.6840
 2632TIP3    H229388   4.698   3.200  17.053  0.9589  0.4049 -0.8718
 2633TIP3   OH229389   2.554   4.850   6.291  0.3653 -0.6010  0.0049
 2633TIP3    H129390   2.570   4.756   6.280  2.5962 -0.3628  0.7273
 2633TIP3    H229391   2.641   4.889   6.298 -0.4649  1.6989 -1.3416
 2634TIP3   OH229392   4.307   1.328  15.389  0.9935 -0.2366  0.4930
 2634TIP3    H129393   4.382   1.357  15.337  0.1831 -1.8850 -1.7396
 2634TIP3    H229394   4.242   1.301  15.324  0.1549 -3.0718  2.3547
 2635TIP3   OH229395   6.444   5.730   2.321  0.4090 -0.2617 -0.4193
 2635TIP3    H129396   6.490   5.777   2.251 -1.5761  0.9227 -1.0273
 2635TIP3    H229397   6.434   5.641   2.288  0.2422  0.0712 -1.3013
 2636TIP3   OH229398   1.067   5.798   4.236  0.0944  0.1504 -0.0961
 2636TIP3    H129399   1.086   5.842   4.153 -1.2533  1.6650  0.3421
 2636TIP3    H229400   1.151   5.760   4.263  1.5456  2.9807 -0.2204
 2637TIP3   OH229401   1.753   5.986  14.923  0.3390 -0.4477  0.3662
 2637TIP3    H129402   1.740   5.894  14.902 -0.9476 -0.1182 -0.4254
 2637TIP3    H229403   1.743   5.991  15.018 -1.9096 -0.8196  0.2077
 2638TIP3   OH229404   1.484   3.213  15.185  0.1674 -0.1322 -0.4460
 2638TIP3    H129405   1.439   3.276  15.241  1.2295  1.1567 -0.9973
 2638TIP3    H229406   1.488   3.133  15.238  3.0659  1.6126  2.3081
 2639TIP3   OH229407   5.430   4.355  11.275  0.2127 -0.6917  0.2917
 2639TIP3    H129408   5.384   4.437  11.296  0.1657 -0.5482 -0.3602
 2639TIP3    H229409   5.523   4.375  11.290  0.3298 -0.1290 -1.0423
 2640TIP3   OH229410   1.632   0.209  16.467  0.8785 -0.0403  0.1379
 2640TIP3    H129411   1.562   0.160  16.509 -0.2519  1.1290 -0.3051
 2640TIP3    H229412   1.712   0.179  16.510  0.3444 -2.6770 -0.5015
 2641TIP3   OH229413   0.779   3.969   3.765  0.0626 -0.0725 -0.0866
 2641TIP3    H129414   0.739   4.028   3.702 -1.0461 -1.6146 -0.8914
 2641TIP3    H229415   0.816   3.898   3.711  3.4237  0.9513  0.6507
 2642TIP3   OH229416   2.864   5.113  14.132  0.2925  0.1612  0.5648
 2642TIP3    H129417   2.773   5.142  14.135 -0.4417 -1.8095 -0.6164
 2642TIP3    H229418   2.881   5.098  14.039  3.1144  4.0932  0.2157
 2643TIP3   OH229419   2.422   0.662  12.258  0.0756 -0.2118  0.0358
 2643TIP3    H129420   2.500   0.608  12.242  0.0337 -1.0461  2.2190
 2643TIP3    H229421   2.457   0.748  12.279  0.3307 -0.2412 -0.2553
 2644TIP3   OH229422   3.222   0.413  15.443  0.1714 -0.3348 -0.2954
 2644TIP3    H129423   3.197   0.427  15.352  2.1967 -1.2231 -1.0560
 2644TIP3    H229424   3.318   0.422  15.443  0.2044 -0.2072  1.7789
 2645TIP3   OH229425   1.581   5.774  16.526 -0.7579 -0.0249  0.4594
 2645TIP3    H129426   1.553   5.824  16.603 -0.7447  0.3432  0.2286
 2645TIP3    H229427   1.577   5.683  16.554  0.6488  0.1480  1.3982
 2646TIP3   OH229428   6.077   6.573   4.592  0.5578 -0.7723  0.5708
 2646TIP3    H129429   6.057   6.652   4.543  4.0675 -0.9704 -1.5145
 2646TIP3    H229430   6.002   6.515   4.578 -1.0691  1.3049  0.3050
 2647TIP3   OH229431   5.269   0.621  11.239  0.8727  0.4305 -0.2914
 2647TIP3    H129432   5.246   0.703  11.195  1.8663 -0.0151 -1.7153
 2647TIP3    H229433   5.327   0.576  11.177  1.7671 -0.5531  1.2040
 2648TIP3   OH229434   2.607   5.401   5.548 -0.0996  0.7844  0.9496
 2648TIP3    H129435   2.596   5.415   5.454  0.5881  0.8167  0.8680
 2648TIP3    H229436   2.698   5.372   5.558 -0.7123 -1.1554  1.3906
 2649TIP3   OH229437   2.354   2.911  11.998  0.1088  0.6044  0.1917
 2649TIP3    H129438   2.386   2.882  12.083 -1.3038 -0.2195  0.4772
 2649TIP3    H229439   2.364   2.835  11.941 -1.0587  0.4099  0.2248
 2650TIP3   OH229440   5.539   4.390  13.257  0.5255 -0.4366 -0.2166
 2650TIP3    H129441   5.500   4.305  13.279  2.3516 -1.4496 -0.7051
 2650TIP3    H229442   5.564   4.427  13.342  2.7017 -1.9254 -0.1299
 2651TIP3   OH229443   5.691   6.145  16.547 -0.8775 -0.3961  0.5724
 2651TIP3    H129444   5.785   6.160  16.553 -0.9254 -0.2270  0.9051
 2651TIP3    H229445   5.674   6.135  16.453 -0.5295 -0.4287  0.5123
 2652TIP3   OH229446   2.229   4.106  12.196 -0.5867  0.0982  0.1313
 2652TIP3    H129447   2.217   4.199  12.216  0.8672  0.3815 -0.2540
 2652TIP3    H229448   2.322   4.096  12.178 -0.5492 -1.6194  1.0491
 2653TIP3   OH229449   6.537   4.103   1.694 -0.3298  0.4248  0.6800
 2653TIP3    H129450   6.443   4.101   1.715 -0.5020 -0.0603 -0.0775
 2653TIP3    H229451   6.580   4.091   1.779 -0.9958 -1.6176  0.8062
 2654TIP3   OH229452   3.973   0.049  12.740 -0.2779 -0.7414  0.2944
 2654TIP3    H129453   3.947  -0.038  12.709  2.1803 -1.8452  1.0087
 2654TIP3    H229454   3.902   0.076  12.798 -1.2011 -2.1760 -0.1139
 2655TIP3   OH229455   2.125   1.494   4.764 -0.3769  0.4246 -0.1984
 2655TIP3    H129456   2.206   1.468   4.810 -0.3616  1.6908  0.5242
 2655TIP3    H229457   2.055   1.468   4.823 -0.8095 -3.3957 -2.0419
 2656TIP3   OH229458   3.174   6.228   2.377  0.0136 -0.2608  0.2546
 2656TIP3    H129459   3.090   6.195   2.408  0.7080 -1.9191  0.5509
 2656TIP3    H229460   3.238   6.169   2.418  1.3533  1.2783  0.4660
 2657TIP3   OH229461   1.731   0.056   0.384  0.5503 -0.2594  0.5408
 2657TIP3    H129462   1.801   0.009   0.338  0.9224  1.1297 -0.3811
 2657TIP3    H229463   1.672   0.085   0.314  0.0578  0.1947  1.1298
 2658TIP3   OH229464   6.638   0.801  16.823 -0.3348 -1.0284  0.6591
 2658TIP3    H129465   6.610   0.870  16.763  0.2141 -0.6918  0.7887
 2658TIP3    H229466   6.556   0.764  16.857 -0.6315 -0.3130  0.7345
 2659TIP3   OH229467   4.212   4.985   3.270 -0.0855  0.0434  0.7935
 2659TIP3    H129468   4.177   5.064   3.228 -0.3961 -0.0932  0.7935
 2659TIP3    H229469   4.292   5.015   3.313  1.7723 -0.3560 -2.1457
 2660TIP3   OH229470   5.055   3.580   1.037  0.1456  0.3519  0.0774
 2660TIP3    H129471   5.048   3.637   1.113  0.3661  2.6315 -1.5014
 2660TIP3    H229472   5.144   3.546   1.040 -0.6029 -1.6897  2.1424
 2661TIP3   OH229473   1.194   4.141  13.173  0.3532 -0.6231  0.6023
 2661TIP3    H129474   1.278   4.185  13.159  0.0834 -0.3291 -0.1091
 2661TIP3    H229475   1.179   4.149  13.267  1.0044 -0.4634  0.6973
 2662TIP3   OH229476   0.816   0.406   0.022  0.4843 -0.1380  0.0674
 2662TIP3    H129477   0.866   0.425   0.101 -0.3051  0.5223  0.4213
 2662TIP3    H229478   0.742   0.353   0.051  0.3613 -0.1599 -0.2724
 2663TIP3   OH229479   2.739   6.066   1.465  0.1117 -0.0536  0.1667
 2663TIP3    H129480   2.706   5.982   1.497 -1.1847  0.6347  0.6844
 2663TIP3    H229481   2.807   6.042   1.402 -2.0170 -1.5796 -1.6974
 2664TIP3   OH229482   5.769   2.432  12.662  0.1234  0.2167  0.1961
 2664TIP3    H129483   5.725   2.352  12.691 -2.4826  2.8667  4.6240
 2664TIP3    H229484   5.715   2.463  12.589 -0.4980 -0.6614  0.2585
 2665TIP3   OH229485   6.172   6.111  15.596  0.3165 -0.8657 -0.3955
 2665TIP3    H129486   6.154   6.174  15.526  1.8049 -1.1474 -1.0756
 2665TIP3    H229487   6.217   6.038  15.552 -0.0566 -1.7308  0.6201
 2666TIP3   OH229488   1.313   0.966   2.217 -0.1349 -0.5670  0.0425
 2666TIP3    H129489   1.362   1.003   2.291  0.3263 -1.4955  0.2156
 2666TIP3    H229490   1.313   0.872   2.234 -1.4429 -0.6364 -0.2955
 2667TIP3   OH229491   3.707   0.245  10.675  0.3963  0.1538 -1.0427
 2667TIP3    H129492   3.778   0.296  10.711 -0.2580 -0.4308  1.1995
 2667TIP3    H229493   3.715   0.257  10.580  1.6926  2.4012 -0.7082
 2668TIP3   OH229494   1.894   0.216  14.559 -0.9547 -0.0614  0.3097
 2668TIP3    H129495   1.880   0.276  14.632 -0.0454 -0.3066  0.7020
 2668TIP3    H229496   1.828   0.148  14.570 -1.2238  0.2387  0.5467
 2669TIP3   OH229497   1.111   0.341   5.705 -0.1580 -0.1564 -0.5433
 2669TIP3    H129498   1.113   0.347   5.609  1.1773  0.6349 -0.4887
 2669TIP3    H229499   1.092   0.430   5.734 -2.4312 -0.7288 -0.0588
 2670TIP3   OH229500   0.173   6.773  10.635 -0.4749  0.0737 -0.5056
 2670TIP3    H129501   0.216   6.703  10.684 -1.4202  0.7078  1.3228
 2670TIP3    H229502   0.084   6.741  10.621 -0.5021  0.3265 -0.9162
 2671TIP3   OH229503   5.856   4.593  14.867  0.6911  0.4721  0.3472
 2671TIP3    H129504   5.907   4.651  14.924  1.3798  1.1140 -0.8622
 2671TIP3    H229505   5.774   4.578  14.914  1.2624  0.9170  1.5207
 2672TIP3   OH229506   0.473   1.861   3.191 -0.5795 -0.3403 -0.1407
 2672TIP3    H129507   0.419   1.876   3.269  0.3172  0.0896  0.4134
 2672TIP3    H229508   0.499   1.949   3.163  0.0351 -0.5503 -0.2422
 2673TIP3   OH229509   1.861   1.104  13.761 -0.5007 -0.5146  0.4747
 2673TIP3    H129510   1.929   1.047  13.723 -0.6504 -1.1995  1.2241
 2673TIP3    H229511   1.803   1.045  13.807 -2.5169 -0.1396 -1.4117
 2674TIP3   OH229512   0.325   0.253   0.887 -0.0355 -0.3466 -0.2127
 2674TIP3    H129513   0.275   0.302   0.952  0.3954  0.2886 -0.3558
 2674TIP3    H229514   0.403   0.305   0.871  0.7312 -1.3769  0.0751
 2675TIP3   OH229515   3.928   4.130   0.704  0.3327  0.6407  0.1114
 2675TIP3    H129516   3.985   4.196   0.744  1.2433 -0.1224  0.1088
 2675TIP3    H229517   3.894   4.172   0.625  0.7363  1.1806  0.2185
 2676TIP3   OH229518   4.286   3.875   3.044 -0.1178  0.4409  0.7850
 2676TIP3    H129519   4.377   3.850   3.024  0.1908  0.5189  2.0388
 2676TIP3    H229520   4.237   3.793   3.040  0.1544  0.2715  0.8851
 2677TIP3   OH229521   0.831   4.999   2.575 -0.1390  0.1854  0.5359
 2677TIP3    H129522   0.847   5.084   2.615 -3.4253  0.9159  0.5677
 2677TIP3    H229523   0.784   4.949   2.642 -0.6356 -0.6614 -0.4133
 2678TIP3   OH229524   4.210   3.613   4.748  0.1137 -0.2523 -0.3570
 2678TIP3    H129525   4.198   3.521   4.722 -3.0960  0.3836 -1.6308
 2678TIP3    H229526   4.131   3.634   4.798  0.5398  1.9492 -0.5180
 2679TIP3   OH229527   2.641   1.627  10.607  0.3416  0.4894  1.0472
 2679TIP3    H129528   2.671   1.548  10.653  0.5236  0.9981  1.8234
 2679TIP3    H229529   2.709   1.643  10.541 -0.6510 -1.0889 -0.4525
 2680TIP3   OH229530   2.500   4.270  11.932  0.8518  0.1290  0.3417
 2680TIP3    H129531   2.503   4.228  12.018  0.5832  0.4313  0.5022
 2680TIP3    H229532   2.454   4.208  11.876  0.8465  0.0186  0.4685
 2681TIP3   OH229533   5.360   1.038  13.076  0.2119 -0.0906  0.0799
 2681TIP3    H129534   5.337   1.061  12.986  4.3606  0.0413 -1.1474
 2681TIP3    H229535   5.345   0.943  13.080 -0.5212 -0.0137 -0.5481
 2682TIP3   OH229536   1.397   6.678  13.679 -0.0830  0.2324 -0.6084
 2682TIP3    H129537   1.416   6.597  13.630 -1.0762  0.5475 -1.5424
 2682TIP3    H229538   1.357   6.736  13.615 -0.6413  0.9792  0.3931
 2683TIP3   OH229539   2.905   5.167   0.454 -0.2616 -0.6223 -0.2863
 2683TIP3    H129540   2.982   5.151   0.509 -0.6758 -0.4235  0.3599
 2683TIP3    H229541   2.940   5.209   0.376  0.1634  0.5313  0.5017
 2684TIP3   OH229542   5.469   3.872   2.215 -0.4079  0.7490 -0.3130
 2684TIP3    H129543   5.518   3.829   2.145 -1.1254  0.5002 -0.6679
 2684TIP3    H229544   5.534   3.887   2.283  0.3156  1.0222 -1.0364
 2685TIP3   OH229545   3.652   3.687  12.188  0.4217  0.2896 -0.1594
 2685TIP3    H129546   3.600   3.610  12.167  0.8321 -0.6571  1.9883
 2685TIP3    H229547   3.659   3.685  12.284  1.3446  2.4132 -0.1329
 2686TIP3   OH229548   6.368   5.979  13.084 -0.6196  0.4679 -0.4120
 2686TIP3    H129549   6.374   6.004  12.992  0.9965 -1.3061 -0.8645
 2686TIP3    H229550   6.457   5.991  13.118 -0.3972 -1.8837  0.0192
 2687TIP3   OH229551   3.523   2.092  13.552 -1.0705 -0.0672 -0.1244
 2687TIP3    H129552   3.551   2.174  13.509  0.9672 -0.7652 -0.2295
 2687TIP3    H229553   3.477   2.044  13.483 -2.4968  1.0332 -0.0038
 2688TIP3   OH229554   6.831   1.842   1.932  0.3007  0.0306 -0.4797
 2688TIP3    H129555   6.803   1.906   1.866 -0.6543  0.4872  0.3384
 2688TIP3    H229556   6.898   1.889   1.984  2.0146 -0.7582 -1.8746
 2689TIP3   OH229557   3.576   5.713  14.455  0.0161  0.1874 -0.2656
 2689TIP3    H129558   3.661   5.724  14.411 -0.3538 -1.6811 -1.5492
 2689TIP3    H229559   3.589   5.640  14.515 -0.6353 -0.0246 -0.3734
 2690TIP3   OH229560   0.005   1.316  15.926 -0.1402 -0.2194 -0.1140
 2690TIP3    H129561   0.097   1.342  15.937 -0.6599  1.5532  0.2409
 2690TIP3    H229562   0.000   1.286  15.836  1.0759 -1.6806  0.2545
 2691TIP3   OH229563   2.777   0.734   3.394  0.1240 -0.3352  0.1733
 2691TIP3    H129564   2.709   0.751   3.329  0.7763  3.4225  0.2960
 2691TIP3    H229565   2.729   0.713   3.474 -0.7097 -2.7477 -0.8602
 2692TIP3   OH229566   5.800   1.260   0.942 -0.1535 -0.0700  0.3103
 2692TIP3    H129567   5.748   1.227   1.015 -1.0409 -0.8929 -0.6534
 2692TIP3    H229568   5.737   1.310   0.890  0.0988 -0.7591 -0.6771
 2693TIP3   OH229569   5.579   5.878  13.632 -0.3915 -0.1048 -0.6936
 2693TIP3    H129570   5.494   5.872  13.590 -1.4082 -0.8712  1.3469
 2693TIP3    H229571   5.560   5.884  13.726  1.8041 -0.6053 -0.1461
 2694TIP3   OH229572   0.931   0.385   3.289  0.1732  0.4759  0.2140
 2694TIP3    H129573   1.012   0.376   3.340  0.6670  0.3443 -0.5852
 2694TIP3    H229574   0.923   0.302   3.242 -0.4442  0.4820  0.2981
 2695TIP3   OH229575   3.244   5.090   1.663  0.2334 -0.2263  0.1036
 2695TIP3    H129576   3.227   4.997   1.676 -0.3518 -0.2775 -0.8599
 2695TIP3    H229577   3.164   5.134   1.692  1.0468  0.1194  1.9337
 2696TIP3   OH229578   3.273   4.580   2.145 -0.2700 -0.2102 -0.5011
 2696TIP3    H129579   3.322   4.501   2.167 -3.4414 -2.0739  0.6064
 2696TIP3    H229580   3.284   4.638   2.220  2.4667  0.7071 -1.5215
 2697TIP3   OH229581   3.389   2.467  16.089 -0.3948  0.4962  0.3635
 2697TIP3    H129582   3.382   2.561  16.102 -0.5215  0.5442 -0.0224
 2697TIP3    H229583   3.471   2.442  16.131 -0.2855  0.8029  0.3290
 2698TIP3   OH229584   6.351   6.853   2.255  0.8545  0.2028 -0.1371
 2698TIP3    H129585   6.274   6.905   2.233  2.0058  2.0427 -0.0075
 2698TIP3    H229586   6.316   6.768   2.280 -1.1465  1.0543  0.1415
 2699TIP3   OH229587   5.067   1.935  13.410 -0.0831  0.1759 -0.2318
 2699TIP3    H129588   5.051   2.019  13.453 -1.6233  0.0737 -0.5730
 2699TIP3    H229589   4.993   1.923  13.351 -1.6819 -2.8618  2.0722
 2700TIP3   OH229590   1.020   3.698   5.867 -0.4294 -0.4070 -0.2007
 2700TIP3    H129591   0.995   3.663   5.953 -0.1641  0.0843  0.0821
 2700TIP3    H229592   0.953   3.763   5.848  0.4210  0.6687  0.4022
 2701TIP3   OH229593   2.746   1.931   0.582 -0.5494 -0.3041 -0.8891
 2701TIP3    H129594   2.664   1.980   0.580  0.4992  1.5726 -0.3235
 2701TIP3    H229595   2.801   1.977   0.645  0.3731 -2.5033  0.0440
 2702TIP3   OH229596   3.507   3.712   0.891 -0.4447 -0.0622 -0.1588
 2702TIP3    H129597   3.466   3.772   0.954 -3.2728 -1.5116 -0.4380
 2702TIP3    H229598   3.556   3.769   0.833 -0.0322  1.5918  1.6860
 2703TIP3   OH229599   0.778   5.581   1.688 -0.2992 -0.2989 -0.1752
 2703TIP3    H129600   0.682   5.590   1.689 -0.2880 -0.1622 -0.5226
 2703TIP3    H229601   0.802   5.583   1.781 -0.4991  1.0039 -0.1372
 2704TIP3   OH229602   4.449   6.732  10.280 -0.8431 -0.1333  0.3291
 2704TIP3    H129603   4.380   6.668  10.265 -1.6958  0.7295  0.4988
 2704TIP3    H229604   4.479   6.757  10.193  0.5245 -1.8125  0.2593
 2705TIP3   OH229605   6.644   0.835   0.200 -0.1796  0.1667 -0.1932
 2705TIP3    H129606   6.591   0.764   0.238  1.0310 -1.0312 -0.6992
 2705TIP3    H229607   6.704   0.860   0.271  1.3969 -1.3814 -0.9154
 2706TIP3   OH229608   6.070   5.019  14.118 -0.1153 -0.3420 -0.2232
 2706TIP3    H129609   5.975   5.006  14.118  0.0202 -1.3750 -0.1461
 2706TIP3    H229610   6.082   5.106  14.078 -1.1247  0.1087  0.4048
 2707TIP3   OH229611   1.962   2.447   1.915 -0.1081 -0.0356 -0.3976
 2707TIP3    H129612   1.936   2.369   1.866  0.9005 -0.1461 -0.7923
 2707TIP3    H229613   1.934   2.429   2.005  0.0190 -0.8122 -0.5045
 2708TIP3   OH229614   1.689   5.298   0.466 -0.4094  0.0266 -0.0532
 2708TIP3    H129615   1.766   5.352   0.449 -0.5207 -0.0260 -0.7578
 2708TIP3    H229616   1.665   5.317   0.557 -0.3856  1.0881 -0.2575
 2709TIP3   OH229617   4.777   6.074  10.004 -0.3966  0.9506  0.6287
 2709TIP3    H129618   4.785   6.164  10.035  2.8085  0.5747  1.1734
 2709TIP3    H229619   4.834   6.023  10.061 -1.8240 -1.4011  0.0825
 2710TIP3   OH229620   2.610   4.055  11.298  0.1805  0.1237 -0.6222
 2710TIP3    H129621   2.578   3.966  11.313 -1.1383  0.3804 -1.7377
 2710TIP3    H229622   2.675   4.047  11.229  1.8129 -0.2508  0.8881
 2711TIP3   OH229623   1.103   4.448  13.601  0.1099 -0.1525 -0.7325
 2711TIP3    H129624   1.189   4.483  13.626 -0.4007  1.4445 -1.1187
 2711TIP3    H229625   1.095   4.467  13.508 -0.9458  0.3508 -0.5525
 2712TIP3   OH229626   1.381   5.523  16.374 -0.1290  0.2051  0.0145
 2712TIP3    H129627   1.356   5.453  16.312  0.8639 -0.0807 -0.0838
 2712TIP3    H229628   1.371   5.483  16.460  1.2002 -0.3457 -0.0639
 2713TIP3   OH229629   2.272   5.272  13.378  0.0036 -0.6240  0.1957
 2713TIP3    H129630   2.284   5.257  13.284  1.0698  1.1294  0.0091
 2713TIP3    H229631   2.351   5.234  13.418 -0.7252 -1.9016  0.4776
 2714TIP3   OH229632   5.715   0.240  15.281 -0.0124  0.3956  0.3131
 2714TIP3    H129633   5.667   0.179  15.337  0.6074  0.6642  1.1587
 2714TIP3    H229634   5.698   0.326  15.319  0.7364  0.5419  0.3424
 2715TIP3   OH229635   0.085   4.867  12.190 -0.3661 -0.2136 -0.1094
 2715TIP3    H129636   0.111   4.775  12.184  0.6222  0.0449 -0.0283
 2715TIP3    H229637   0.044   4.886  12.105 -0.7378 -0.7720 -0.0583
 2716TIP3   OH229638   5.219   6.529  13.403 -0.1536  0.4048  0.0960
 2716TIP3    H129639   5.290   6.578  13.444 -1.0485 -0.1028  2.4706
 2716TIP3    H229640   5.172   6.593  13.351  0.9607  1.1560 -0.0262
 2717TIP3   OH229641   5.935   4.052   2.819  0.4875  0.1772 -0.8011
 2717TIP3    H129642   5.945   4.064   2.913 -0.9093  0.8307 -0.7070
 2717TIP3    H229643   5.846   4.018   2.808  0.2405  1.1114 -1.9543
 2718TIP3   OH229644   1.387   2.823   0.312  0.0125  0.0543 -0.6433
 2718TIP3    H129645   1.425   2.906   0.340 -0.2901 -0.5141  1.6689
 2718TIP3    H229646   1.429   2.757   0.368 -2.1354 -0.9254 -0.0630
 2719TIP3   OH229647   0.802   4.520  13.498  0.2787  0.4268 -0.3352
 2719TIP3    H129648   0.895   4.541  13.497 -0.2431  3.1784  0.3196
 2719TIP3    H229649   0.773   4.542  13.587 -0.7220 -2.0937  0.0552
 2720TIP3   OH229650   5.165   4.764  10.715 -0.2021 -0.1543  0.3431
 2720TIP3    H129651   5.170   4.668  10.720  1.0869 -0.0657  1.0761
 2720TIP3    H229652   5.143   4.781  10.623 -2.6974 -1.1829  0.6600
 2721TIP3   OH229653   5.704   5.544  15.373 -0.6633  0.2220 -0.2300
 2721TIP3    H129654   5.718   5.452  15.353 -0.1977 -0.2764  2.1025
 2721TIP3    H229655   5.787   5.587  15.350 -0.0981 -0.3407  0.7009
 2722TIP3   OH229656   5.995   6.321   0.673  0.5165  0.0938 -0.4032
 2722TIP3    H129657   6.002   6.228   0.650  0.6893  0.1380 -0.5259
 2722TIP3    H229658   5.906   6.345   0.648 -0.7470 -0.8821  2.6202
 2723TIP3   OH229659   1.815   0.485  11.539 -0.0686  0.8479 -0.3269
 2723TIP3    H129660   1.803   0.456  11.449  0.4261  0.0623 -0.1451
 2723TIP3    H229661   1.810   0.406  11.591  0.0184  1.2530  0.3087
 2724TIP3   OH229662   5.414   6.802  10.819  0.3756  0.6402 -0.1707
 2724TIP3    H129663   5.448   6.886  10.851  0.7818  0.4721 -0.1591
 2724TIP3    H229664   5.402   6.749  10.898  1.2006  0.2913 -0.2721
 2725TIP3   OH229665   6.111   1.810   0.364 -0.5240  0.0622 -0.7190
 2725TIP3    H129666   6.016   1.815   0.375 -0.4853  0.6043 -0.5786
 2725TIP3    H229667   6.130   1.875   0.296 -0.3144 -0.4194 -1.1188
 2726TIP3   OH229668   5.228   6.333   3.035  0.5583  0.3516 -0.4849
 2726TIP3    H129669   5.221   6.349   3.129  1.8312 -0.0625 -0.2984
 2726TIP3    H229670   5.312   6.372   3.010 -0.6137  2.1278 -1.8395
 2727TIP3   OH229671   0.552   3.465  11.959  0.3107 -0.0902 -0.1745
 2727TIP3    H129672   0.471   3.508  11.934  0.7956  0.8556 -0.1750
 2727TIP3    H229673   0.524   3.389  12.010 -0.5636  0.8330  0.7868
 2728TIP3   OH229674   6.299   4.571   0.973  0.4061  0.2470  0.0472
 2728TIP3    H129675   6.257   4.655   0.953  0.9560  0.6555  0.5704
 2728TIP3    H229676   6.245   4.506   0.927 -1.0060  0.7139  0.9564
 2729TIP3   OH229677   5.796   0.110  11.202 -0.4831  0.1186  0.2663
 2729TIP3    H129678   5.821   0.057  11.278 -0.9021 -0.0917  0.2598
 2729TIP3    H229679   5.712   0.073  11.173 -0.8409  0.8447  0.3305
 2730TIP3   OH229680   5.159   2.975  16.971  0.0882  0.2981 -0.0078
 2730TIP3    H129681   5.208   2.914  17.027  1.6544  0.5245 -1.0904
 2730TIP3    H229682   5.223   3.041  16.945 -0.8726  0.7944 -1.2108
 2731TIP3   OH229683   2.265   5.413  15.433  0.3985  0.0205 -0.1668
 2731TIP3    H129684   2.175   5.397  15.463  0.6343 -0.1482  0.4695
 2731TIP3    H229685   2.319   5.389  15.508  1.0125 -0.4627 -0.7549
 2732TIP3   OH229686   5.240   5.521   4.254  0.2453  0.1903  0.1518
 2732TIP3    H129687   5.223   5.450   4.316 -2.0736  0.4875 -0.0513
 2732TIP3    H229688   5.315   5.491   4.202 -0.4570 -1.9725  0.2920
 2733TIP3   OH229689   3.598   3.128   1.281 -0.1995 -0.0003 -0.1049
 2733TIP3    H129690   3.673   3.182   1.306 -1.0728  1.4043 -0.3530
 2733TIP3    H229691   3.635   3.044   1.255  1.1938  0.3586  0.6212
 2734TIP3   OH229692   0.492   4.634   1.035  0.5907 -0.0465  0.5130
 2734TIP3    H129693   0.440   4.572   1.085 -0.4814 -0.5669 -1.1533
 2734TIP3    H229694   0.433   4.708   1.018  0.5331 -0.3796 -0.8931
 2735TIP3   OH229695   4.284   6.359   3.905  0.4317 -0.3148  0.4862
 2735TIP3    H129696   4.202   6.408   3.899  0.7424  0.6984  3.3354
 2735TIP3    H229697   4.279   6.296   3.832 -1.3798  1.8300 -1.3931
 2736TIP3   OH229698   5.067   3.375   3.691  0.3849 -0.5054 -0.8466
 2736TIP3    H129699   5.147   3.386   3.743  0.4621 -0.8818 -0.8830
 2736TIP3    H229700   4.996   3.397   3.752  0.5667  1.0865 -1.1816
 2737TIP3   OH229701   3.310   4.197   5.523  0.3649  0.2819 -0.5315
 2737TIP3    H129702   3.264   4.167   5.445  0.3100 -0.2610 -0.2913
 2737TIP3    H229703   3.266   4.154   5.595 -0.2395  1.5579 -0.1018
 2738TIP3   OH229704   0.271   4.538  14.220  0.3144  0.4925 -0.1003
 2738TIP3    H129705   0.353   4.526  14.172 -0.9682 -1.9235 -1.9465
 2738TIP3    H229706   0.212   4.580  14.157 -0.9523 -1.3571 -0.2616
 2739TIP3   OH229707   0.394   1.483  15.751 -0.6296 -0.5216 -0.1087
 2739TIP3    H129708   0.310   1.526  15.765 -0.8296 -1.1811  0.8185
 2739TIP3    H229709   0.378   1.391  15.771  0.7008 -0.4042  1.8585
 2740TIP3   OH229710   1.482   3.635   4.170 -0.1225  0.3056  0.0997
 2740TIP3    H129711   1.577   3.643   4.175 -0.1195  0.7677 -0.4811
 2740TIP3    H229712   1.460   3.567   4.233  0.7888 -1.1488 -1.0650
 2741TIP3   OH229713   3.532   0.544  11.300  0.2932 -0.6006 -0.5710
 2741TIP3    H129714   3.613   0.496  11.319 -0.2263 -1.2498  0.0394
 2741TIP3    H229715   3.463   0.478  11.307 -0.5872  0.4830  1.6178
 2742TIP3   OH229716   0.881   2.906   1.999  0.1535  0.1077  0.4126
 2742TIP3    H129717   0.927   2.928   2.080 -0.8235 -1.3315  1.4002
 2742TIP3    H229718   0.949   2.911   1.931  1.0505  1.0679  1.3430
 2743TIP3   OH229719   2.504   5.630  12.132 -0.1823 -0.1003 -0.2478
 2743TIP3    H129720   2.569   5.560  12.137 -0.7511 -0.5791  0.7000
 2743TIP3    H229721   2.425   5.587  12.100 -1.0181 -0.3072  1.8828
 2744TIP3   OH229722   6.625   3.013   4.161  0.4483 -0.2710  0.3485
 2744TIP3    H129723   6.661   3.012   4.073  1.2727  1.0859  0.6429
 2744TIP3    H229724   6.698   2.989   4.218  0.8251  2.0241  0.9107
 2745TIP3   OH229725   1.868   3.500   5.173  0.0025  0.0804 -0.5742
 2745TIP3    H129726   1.915   3.579   5.200 -0.6265  0.6982 -1.2449
 2745TIP3    H229727   1.801   3.489   5.240  1.6095 -1.3292  0.9022
 2746TIP3   OH229728   0.419   1.962   2.047  0.9182  0.1585  0.6948
 2746TIP3    H129729   0.418   1.872   2.014  0.4143 -0.2221  1.6871
 2746TIP3    H229730   0.406   2.016   1.970 -1.4583 -0.7337  0.3548
 2747TIP3   OH229731   5.209   0.227  16.345  0.5426 -0.4107 -0.1238
 2747TIP3    H129732   5.158   0.164  16.295 -2.5540  2.6214 -1.1703
 2747TIP3    H229733   5.257   0.277  16.278  1.1394 -0.1424  0.4904
 2748TIP3   OH229734   5.370   2.311  16.606  0.7902  0.4776  0.3214
 2748TIP3    H129735   5.321   2.390  16.626  1.5212  0.8624  0.6163
 2748TIP3    H229736   5.415   2.330  16.524 -0.9574 -0.5307 -0.9294
 2749TIP3   OH229737   2.153   6.761   1.824  0.5711 -0.4559  0.1713
 2749TIP3    H129738   2.130   6.734   1.913 -0.6378  0.5148  0.1622
 2749TIP3    H229739   2.088   6.718   1.769  0.5310 -0.0081 -0.1283
 2750TIP3   OH229740   5.194   0.681  15.845 -0.0858  0.3212  0.1420
 2750TIP3    H129741   5.280   0.668  15.886 -0.1337 -0.6529 -0.0438
 2750TIP3    H229742   5.209   0.747  15.778  0.4927  0.2615  0.2089
 2751TIP3   OH229743   3.013   5.167  16.790  0.0920  0.2233  0.0877
 2751TIP3    H129744   2.987   5.197  16.703  0.2747 -0.2921 -0.1508
 2751TIP3    H229745   2.932   5.161  16.840  0.1343  1.9111  0.4072
 2752TIP3   OH229746   2.886   5.746   5.964  0.3945 -0.0405  0.3152
 2752TIP3    H129747   2.809   5.797   5.939 -1.5998 -2.7131  0.6480
 2752TIP3    H229748   2.930   5.727   5.881  0.4445  1.0165  0.0726
 2753TIP3   OH229749   1.269   1.677  11.328  0.0125  0.2169 -0.3053
 2753TIP3    H129750   1.262   1.599  11.383  1.3362  0.7549  0.6850
 2753TIP3    H229751   1.344   1.724  11.363 -0.4830  1.7194 -1.1752
 2754TIP3   OH229752   1.824   1.248   1.102 -0.3727 -0.0345 -0.5100
 2754TIP3    H129753   1.752   1.186   1.106 -1.2032  0.9070 -0.6055
 2754TIP3    H229754   1.877   1.229   1.180 -0.9346 -0.4752 -0.2353
 2755TIP3   OH229755   4.075   2.148  11.239 -0.3558 -0.4746 -0.1035
 2755TIP3    H129756   4.143   2.182  11.180 -0.9149 -1.2841 -1.2420
 2755TIP3    H229757   4.002   2.126  11.182 -1.2955 -0.3601  1.0189
 2756TIP3   OH229758   0.073   2.059   1.807 -0.1310 -0.0226 -0.2355
 2756TIP3    H129759   0.006   2.122   1.781 -1.1006 -0.9110  0.0413
 2756TIP3    H229760   0.105   2.091   1.891  0.6268  1.0236 -0.8917
 2757TIP3   OH229761   0.279   1.837   6.549 -0.3341  0.0042 -0.5607
 2757TIP3    H129762   0.242   1.784   6.478 -1.4918  3.1736 -2.5576
 2757TIP3    H229763   0.370   1.807   6.555 -0.6148 -1.4410 -2.3328
 2758TIP3   OH229764   2.952   2.677   2.651  0.1804 -0.0654  0.0677
 2758TIP3    H129765   2.978   2.677   2.558  1.9125 -0.8698  0.5142
 2758TIP3    H229766   2.864   2.715   2.651 -0.0229 -0.4168 -1.9516
 2759TIP3   OH229767   3.953   6.715  11.751  0.0419  0.4246  0.4057
 2759TIP3    H129768   3.969   6.745  11.662 -0.7159  0.5053  0.2911
 2759TIP3    H229769   3.958   6.619  11.745  2.0776  0.4747  0.6979
 2760TIP3   OH229770   1.473   5.303   4.129 -0.0466  0.1856 -0.8635
 2760TIP3    H129771   1.380   5.321   4.117  0.0152 -0.0293 -1.7549
 2760TIP3    H229772   1.490   5.321   4.221 -0.6262  1.7618 -1.0431
 2761TIP3   OH229773   5.757   3.978   0.990  0.6382  0.3100  0.0940
 2761TIP3    H129774   5.715   3.905   0.945  1.1015  0.2096 -0.1851
 2761TIP3    H229775   5.839   3.991   0.942  0.5054  1.0860  0.0713
 2762TIP3   OH229776   4.454   6.197  12.908  0.5017 -0.3157  0.1768
 2762TIP3    H129777   4.459   6.288  12.879  1.4384 -0.5618 -0.4658
 2762TIP3    H229778   4.363   6.173  12.894 -0.2382  1.0762  2.1176
 2763TIP3   OH229779   1.163   2.050   0.947 -0.6345 -0.2783  0.1796
 2763TIP3    H129780   1.243   2.037   0.896  1.1000 -0.6271  2.7756
 2763TIP3    H229781   1.135   1.962   0.971 -2.6575 -0.2545 -1.7797
 2764TIP3   OH229782   4.040   0.640  11.812  0.0461 -0.1015 -0.1843
 2764TIP3    H129783   4.081   0.608  11.732 -1.0871  2.0609 -1.7318
 2764TIP3    H229784   4.003   0.562  11.853 -0.9683 -1.0751 -2.7506
 2765TIP3   OH229785   5.965   6.057  16.056 -0.0912 -0.6535 -0.3540
 2765TIP3    H129786   5.958   5.996  16.129 -0.7359 -0.1373  0.0243
 2765TIP3    H229787   5.951   6.003  15.978 -1.6915 -0.8354  0.0243
 2766TIP3   OH229788   2.643   5.837  11.469 -0.3475 -0.5258  0.0278
 2766TIP3    H129789   2.678   5.781  11.539  1.6118  0.9216  0.2900
 2766TIP3    H229790   2.701   5.823  11.395  0.8777  1.8830  0.4355
 2767TIP3   OH229791   0.746   4.547  15.791  0.4497  0.2467 -0.1194
 2767TIP3    H129792   0.739   4.634  15.751 -1.1047  1.2707  2.2205
 2767TIP3    H229793   0.687   4.550  15.866  2.9767 -1.6723  2.1060
 2768TIP3   OH229794   4.738   1.058   4.406 -0.3301 -0.7476  0.2635
 2768TIP3    H129795   4.812   1.118   4.408 -0.3738 -0.6966  0.3301
 2768TIP3    H229796   4.678   1.091   4.474 -1.2311  0.2752 -0.9659
 2769TIP3   OH229797   3.199   1.011   3.053 -0.2838  0.0707 -0.2636
 2769TIP3    H129798   3.143   1.070   3.104 -1.6431 -2.0949  0.9087
 2769TIP3    H229799   3.139   0.942   3.024  1.5019 -1.5115 -0.3172
 2770TIP3   OH229800   4.386   0.192   5.305  0.2809 -0.3922  0.1142
 2770TIP3    H129801   4.473   0.159   5.325  0.5751  0.4712  0.3252
 2770TIP3    H229802   4.342   0.197   5.390  0.8539  1.3981  0.3636
 2771TIP3   OH229803   1.098   0.899   0.724  0.1661  0.1123 -0.1043
 2771TIP3    H129804   1.045   0.910   0.645  0.3474 -0.8597 -0.3655
 2771TIP3    H229805   1.036   0.869   0.791  0.0407  0.7987  0.1041
 2772TIP3   OH229806   4.766   1.420  12.145 -0.5044  0.5397 -0.3708
 2772TIP3    H129807   4.726   1.461  12.222  1.3395 -0.7867  1.4199
 2772TIP3    H229808   4.696   1.364  12.110 -0.9558 -0.0626  1.3493
 2773TIP3   OH229809   5.810   0.989  11.867  0.1946 -0.8715 -0.0623
 2773TIP3    H129810   5.902   0.967  11.857  0.2744 -0.1894 -0.8881
 2773TIP3    H229811   5.809   1.083  11.884 -0.3389 -0.8979  0.0873
 2774TIP3   OH229812   3.701   3.317  10.764 -0.4396  0.0366  0.4559
 2774TIP3    H129813   3.645   3.274  10.829  0.3299  0.9177  1.7733
 2774TIP3    H229814   3.652   3.394  10.737 -0.5678 -0.0879  0.3327
 2775TIP3   OH229815   4.326   4.942   5.027  0.4134  0.0245  0.0819
 2775TIP3    H129816   4.309   5.033   5.051  0.2278  0.2683 -0.8900
 2775TIP3    H229817   4.358   4.901   5.107  4.5073  1.9320 -0.3364
 2776TIP3   OH229818   4.490   4.692  13.101 -0.4167 -0.3329  0.3306
 2776TIP3    H129819   4.443   4.775  13.097  0.2034 -0.0228 -0.8106
 2776TIP3    H229820   4.420   4.626  13.107 -1.0855  0.0853 -1.8197
 2777TIP3   OH229821   0.370   3.735   1.018  0.2714 -0.5272  0.4673
 2777TIP3    H129822   0.318   3.809   0.987  1.9300  0.0009 -1.2834
 2777TIP3    H229823   0.316   3.658   1.000 -1.4673  0.1891  2.2864
 2778TIP3   OH229824   6.878   3.981   2.276 -0.6654 -0.3331  1.0036
 2778TIP3    H129825   6.799   4.023   2.243 -0.8567 -0.6859  1.0073
 2778TIP3    H229826   6.851   3.939   2.357 -0.7556 -1.4242  0.4256
 2779TIP3   OH229827   6.333   1.016   1.234 -0.5308  0.5814 -0.3123
 2779TIP3    H129828   6.365   1.087   1.178 -0.2834 -0.6231 -1.7832
 2779TIP3    H229829   6.367   0.936   1.193 -0.9435 -0.4078  1.1835
 2780TIP3   OH229830   3.940   0.726   4.553  0.1568  0.0835 -0.6946
 2780TIP3    H129831   3.971   0.778   4.627  3.7507 -0.6819 -1.4902
 2780TIP3    H229832   4.010   0.730   4.489 -0.5743 -3.4153 -1.9726
 2781TIP3   OH229833   6.305   1.059   4.060 -0.0610 -0.1040  0.3339
 2781TIP3    H129834   6.225   1.085   4.105 -0.4669  1.5667 -1.2042
 2781TIP3    H229835   6.338   1.141   4.022  0.7686 -1.2454 -1.5395
 2782TIP3   OH229836   3.028   3.716  11.866 -0.4932 -0.0302 -0.0075
 2782TIP3    H129837   3.001   3.761  11.786  0.1980  0.0062 -0.2335
 2782TIP3    H229838   3.013   3.624  11.848 -0.2276 -0.0329 -0.2312
 2783TIP3   OH229839   6.404   4.469  16.546 -0.7160 -0.1781 -0.2038
 2783TIP3    H129840   6.384   4.561  16.565  0.9364  0.1908 -0.0975
 2783TIP3    H229841   6.436   4.469  16.456 -0.7766 -0.6604 -0.2292
 2784TIP3   OH229842   3.550   4.896   3.659 -0.0365  0.5384 -0.0432
 2784TIP3    H129843   3.604   4.919   3.734  1.8834 -1.9098 -0.5307
 2784TIP3    H229844   3.460   4.913   3.687  0.7657  1.7474  1.9730
 2785TIP3   OH229845   0.357   1.446  13.001  0.1871 -0.1882  0.1825
 2785TIP3    H129846   0.273   1.433  13.043 -0.8798 -0.0550 -1.7903
 2785TIP3    H229847   0.405   1.504  13.060 -0.9259 -0.5866  1.5229
 2786TIP3   OH229848   2.072   2.475   5.081 -0.1058 -0.5025 -0.0950
 2786TIP3    H129849   2.013   2.444   5.149 -0.4483 -0.2964 -0.2925
 2786TIP3    H229850   2.155   2.493   5.126 -0.2543 -0.6007  0.2173
 2787TIP3   OH229851   4.474   3.145  15.938  0.0279 -0.5305  0.3364
 2787TIP3    H129852   4.487   3.097  15.856  1.8906 -0.7004  0.6860
 2787TIP3    H229853   4.562   3.157  15.972 -0.7703 -1.6397  3.0113
 2788TIP3   OH229854   0.812   6.134   0.997  0.2654  0.2426  0.2432
 2788TIP3    H129855   0.780   6.054   1.038  1.0822  0.0274  0.4680
 2788TIP3    H229856   0.777   6.204   1.051 -2.8432  0.2451 -1.5165
 2789TIP3   OH229857   0.575   5.408  10.451  0.3532 -0.3341  0.3868
 2789TIP3    H129858   0.558   5.500  10.431  1.0344 -0.1881  0.4634
 2789TIP3    H229859   0.534   5.360  10.379 -0.2952  0.0044  0.5189
 2790TIP3   OH229860   5.238   0.391  16.055 -0.2403  0.5851  0.8572
 2790TIP3    H129861   5.177   0.335  16.007  2.8594 -0.2962 -2.4842
 2790TIP3    H229862   5.216   0.480  16.029 -0.8545  0.3934  0.7006
 2791TIP3   OH229863   4.998   2.727   4.389 -0.5698 -0.0493 -0.0030
 2791TIP3    H129864   5.053   2.754   4.315 -0.8174 -1.6365 -0.8200
 2791TIP3    H229865   4.911   2.759   4.368 -0.4907  0.1662 -0.0095
 2792TIP3   OH229866   6.345   3.748   6.327  0.2744  0.5652  0.1635
 2792TIP3    H129867   6.365   3.739   6.420  2.0488 -1.5129 -0.3400
 2792TIP3    H229868   6.263   3.699   6.316 -0.5009  1.6760  0.7500
 2793TIP3   OH229869   1.808   4.501  16.745 -0.5027 -0.3252  0.3945
 2793TIP3    H129870   1.765   4.446  16.680 -1.0881 -0.9032  1.2400
 2793TIP3    H229871   1.818   4.586  16.702  0.4912 -1.0984 -0.9491
 2794TIP3   OH229872   4.014   2.191  14.702  0.1033 -0.6158  0.3800
 2794TIP3    H129873   4.041   2.105  14.734  0.9883  0.3288  2.4431
 2794TIP3    H229874   3.974   2.233  14.779 -0.3875  0.7672 -0.5965
 2795TIP3   OH229875   5.665   3.228   1.880 -0.8197 -0.5263 -0.6259
 2795TIP3    H129876   5.660   3.134   1.864  0.6506 -0.8638  0.6130
 2795TIP3    H229877   5.734   3.237   1.946  0.2424  1.5579 -1.8942
 2796TIP3   OH229878   5.985   2.929  15.904  0.5962  0.0506  0.0333
 2796TIP3    H129879   5.893   2.904  15.914  0.3785 -0.0568 -1.8877
 2796TIP3    H229880   6.029   2.847  15.881  1.0254  0.2554  0.1237
 2797TIP3   OH229881   4.590   4.856   5.161  0.2951  0.1216 -0.1038
 2797TIP3    H129882   4.575   4.950   5.152 -0.0216 -0.0207 -1.0926
 2797TIP3    H229883   4.570   4.838   5.253 -0.6576  0.8370 -0.1598
 2798TIP3   OH229884   0.755   1.712   0.925  0.7613 -0.4598 -0.9933
 2798TIP3    H129885   0.842   1.721   0.963  1.7661 -0.7251 -3.0555
 2798TIP3    H229886   0.771   1.668   0.841 -1.5906 -2.3617 -0.5551
 2799TIP3   OH229887   1.003   3.863  16.064  0.3030  0.5900  0.2562
 2799TIP3    H129888   0.935   3.913  16.019  0.2616 -1.1183 -1.7534
 2799TIP3    H229889   1.079   3.921  16.065  0.2801  0.7584 -2.0538
 2800TIP3   OH229890   1.079   2.410  11.878 -0.6383 -0.1791  0.1681
 2800TIP3    H129891   1.073   2.397  11.973  1.6305 -1.6954  0.1803
 2800TIP3    H229892   1.124   2.494  11.868  2.2298 -1.5434  0.6058
 2801TIP3   OH229893   4.406   4.136  15.503  0.5385 -0.4213 -0.1354
 2801TIP3    H129894   4.484   4.184  15.533  0.6620 -1.0179  0.5264
 2801TIP3    H229895   4.395   4.066  15.567  2.0748 -3.1511 -2.6312
 2802TIP3   OH229896   4.174   5.984   0.248  0.2861 -0.0099 -0.0314
 2802TIP3    H129897   4.097   6.038   0.228  0.5191  0.9353  1.4416
 2802TIP3    H229898   4.248   6.044   0.241  0.9656 -0.9994 -1.7877
 2803TIP3   OH229899   1.799   6.159  12.539  0.3044  0.2841  0.0379
 2803TIP3    H129900   1.792   6.223  12.610  0.9716 -0.1198  0.4831
 2803TIP3    H229901   1.853   6.089  12.576 -1.1667 -0.9867 -0.1137
 2804TIP3   OH229902   2.735   5.888   2.021  0.2768  0.3239 -0.5905
 2804TIP3    H129903   2.686   5.821   1.972  0.1239  1.0813 -1.4998
 2804TIP3    H229904   2.679   5.966   2.017 -0.0989  0.2281  1.4453
 2805TIP3   OH229905   1.975   4.693  14.348  0.3168 -0.4601 -0.3332
 2805TIP3    H129906   1.974   4.600  14.326 -1.3382 -0.5350 -0.0432
 2805TIP3    H229907   1.886   4.723  14.330  0.6465  0.9133  0.2217
 2806TIP3   OH229908   3.518   1.710  15.010  0.5446  0.0928  0.0507
 2806TIP3    H129909   3.519   1.691  14.916 -0.6666 -0.7341  0.1803
 2806TIP3    H229910   3.534   1.625  15.051  1.9327  0.6008  0.6019
 2807TIP3   OH229911   2.814   0.392   4.792  0.4793  0.3789 -0.4868
 2807TIP3    H129912   2.884   0.438   4.836  0.2830  1.6903 -1.4842
 2807TIP3    H229913   2.740   0.397   4.852  0.7987  0.3059 -0.0820
 2808TIP3   OH229914   5.532   6.431   4.659  0.2867 -0.8260  0.3237
 2808TIP3    H129915   5.520   6.484   4.738  0.8518 -1.5409  0.9075
 2808TIP3    H229916   5.559   6.494   4.592  0.4189 -0.2965  0.8627
 2809TIP3   OH229917   2.775   4.786  13.686  0.3470 -0.1076 -0.1018
 2809TIP3    H129918   2.859   4.754  13.719  0.5173 -1.2253 -1.5136
 2809TIP3    H229919   2.711   4.721  13.717  0.2582 -0.2008 -0.4739
 2810TIP3   OH229920   0.437   4.580  10.918 -0.4476 -0.3802  0.2039
 2810TIP3    H129921   0.416   4.610  10.829  2.3592  0.2694 -0.3450
 2810TIP3    H229922   0.493   4.649  10.954 -2.1634 -0.2408  2.8473
 2811TIP3   OH229923   2.255   6.178  14.915  0.2096 -0.0877  0.4521
 2811TIP3    H129924   2.319   6.147  14.851  0.0927 -0.3689  0.4693
 2811TIP3    H229925   2.184   6.114  14.911 -1.1805  1.4733 -1.2698
 2812TIP3   OH229926   0.657   6.231   2.299 -0.3589  0.1134  0.0020
 2812TIP3    H129927   0.706   6.149   2.305  0.9934  0.9530  1.4002
 2812TIP3    H229928   0.639   6.242   2.206  0.6689 -1.0663 -0.3631
 2813TIP3   OH229929   1.186   1.370  16.755  0.5330  0.8124  0.3943
 2813TIP3    H129930   1.252   1.434  16.783 -1.1030  2.2593  1.0812
 2813TIP3    H229931   1.113   1.422  16.723 -0.3061 -0.7547 -0.3658
 2814TIP3   OH229932   0.843   0.018   6.017  0.0551 -0.0014  0.4399
 2814TIP3    H129933   0.896   0.096   6.000  0.4585 -0.7345 -2.1947
 2814TIP3    H229934   0.780   0.045   6.083 -0.2760  2.7999 -0.8828
 2815TIP3   OH229935   0.136   5.141  12.790  0.2587  0.8494  0.1424
 2815TIP3    H129936   0.169   5.224  12.757 -1.8253  3.1302  3.2624
 2815TIP3    H229937   0.056   5.126  12.739 -0.8368  2.3137  1.3135
 2816TIP3   OH229938   1.207   1.111   2.656 -0.0586 -0.2478  0.4047
 2816TIP3    H129939   1.169   1.186   2.609  0.8391 -1.3279 -2.2699
 2816TIP3    H229940   1.141   1.042   2.648  0.8645 -1.0138 -1.0295
 2817TIP3   OH229941   6.705   1.787  10.867 -0.4136  1.2496 -0.2530
 2817TIP3    H129942   6.633   1.735  10.830 -0.0359  1.4155 -1.2655
 2817TIP3    H229943   6.762   1.722  10.908 -0.7942  1.0421 -0.0441
 2818TIP3   OH229944   0.290   3.059   0.483 -0.1756 -0.1997  0.8383
 2818TIP3    H129945   0.384   3.072   0.497  0.3825 -2.5711 -0.2702
 2818TIP3    H229946   0.260   3.142   0.446  2.1225 -0.3487 -1.6350
 2819TIP3   OH229947   1.920   4.599   1.532  0.0763 -0.1667  0.0257
 2819TIP3    H129948   1.945   4.538   1.463  0.0895 -0.1905  0.0514
 2819TIP3    H229949   1.993   4.598   1.593 -0.6236 -1.4022  0.8908
 2820TIP3   OH229950   0.692   1.735  10.765 -0.3446 -0.5614  0.0415
 2820TIP3    H129951   0.727   1.707  10.850 -1.2783 -1.0701  0.2756
 2820TIP3    H229952   0.764   1.720  10.703  0.3807 -0.0814  0.7493
 2821TIP3   OH229953   2.633   0.078   0.201  0.0377 -0.6562  0.6722
 2821TIP3    H129954   2.577   0.149   0.231 -0.5782 -1.2859  1.0498
 2821TIP3    H229955   2.572   0.007   0.179  0.5115 -0.5351 -1.2393
 2822TIP3   OH229956   1.397   3.442   3.240 -0.0878  0.2780 -0.5968
 2822TIP3    H129957   1.390   3.464   3.333  0.7491 -0.5068 -0.3384
 2822TIP3    H229958   1.372   3.523   3.194  0.3866  0.9570  0.3098
 2823TIP3   OH229959   5.780   2.732   4.861  0.3984 -0.0793  0.2634
 2823TIP3    H129960   5.875   2.741   4.869  0.2738  0.5067  1.3195
 2823TIP3    H229961   5.748   2.822   4.864 -0.2254 -0.3088  0.4824
 2824TIP3   OH229962   1.611   1.722   3.145 -0.3064 -0.6321 -0.5321
 2824TIP3    H129963   1.610   1.645   3.202  0.7508 -0.7886 -0.7053
 2824TIP3    H229964   1.587   1.795   3.203  0.8650 -0.7714  0.1672
 2825TIP3   OH229965   5.960   5.514  13.951  0.2382  0.0389 -0.1367
 2825TIP3    H129966   5.995   5.465  14.025  2.3327  0.8003 -0.5386
 2825TIP3    H229967   5.937   5.447  13.886  2.4103 -0.5320 -0.4147
 2826TIP3   OH229968   2.529   1.461  13.022  0.0436 -0.2589 -0.6522
 2826TIP3    H129969   2.578   1.381  13.004 -0.3793 -0.2851 -1.7507
 2826TIP3    H229970   2.555   1.486  13.111  0.6397 -1.2760 -0.5292
 2827TIP3   OH229971   0.805   6.026   2.386 -0.5465  0.0795 -0.1463
 2827TIP3    H129972   0.891   6.028   2.428 -1.4811  1.9597  1.8915
 2827TIP3    H229973   0.752   5.968   2.441 -0.7990 -0.5558 -1.0205
 2828TIP3   OH229974   6.248   2.818   0.046  0.1478  0.0667  0.0858
 2828TIP3    H129975   6.325   2.870   0.025  0.9856 -1.1206  0.1168
 2828TIP3    H229976   6.276   2.728   0.032 -0.3428 -0.5921  2.7528
 2829TIP3   OH229977   1.411   5.577  10.355  0.0327  0.4718 -0.4553
 2829TIP3    H129978   1.348   5.580  10.427 -0.2807 -4.0046 -0.2378
 2829TIP3    H229979   1.488   5.622  10.388 -0.3254 -0.8755  2.5618
 2830TIP3   OH229980   3.364   1.944  16.491  0.9565  0.2071  0.2881
 2830TIP3    H129981   3.443   1.964  16.541  0.1666  0.0928  1.6256
 2830TIP3    H229982   3.351   2.021  16.436  1.3329  0.7460  0.9358
 2831TIP3   OH229983   1.697   4.149  14.854  0.4947 -0.2832  0.1174
 2831TIP3    H129984   1.660   4.127  14.940  1.3364 -1.9731  0.0941
 2831TIP3    H229985   1.660   4.085  14.794  1.6137 -0.5254 -0.3475
 2832TIP3   OH229986   3.166   4.524   0.139 -0.0009  0.1827  0.3804
 2832TIP3    H129987   3.142   4.559   0.225  0.0614  0.8993  0.1155
 2832TIP3    H229988   3.215   4.444   0.159 -0.9243 -0.2594  0.9730
 2833TIP3   OH229989   0.858   5.588  14.697  0.2100 -0.9101 -0.7236
 2833TIP3    H129990   0.878   5.676  14.664  1.3729 -1.1093 -0.5736
 2833TIP3    H229991   0.914   5.578  14.774 -0.6934 -1.3921 -0.1077
 2834TIP3   OH229992   4.214   1.711   5.927 -0.2154  0.9202 -0.0953
 2834TIP3    H129993   4.261   1.793   5.918 -0.5960  1.3477  1.4366
 2834TIP3    H229994   4.127   1.729   5.891 -0.3900  1.2923  0.4952
 2835TIP3   OH229995   5.234   2.235  14.754 -0.0252 -0.8272 -0.2629
 2835TIP3    H129996   5.277   2.248  14.669  0.1453  0.2930 -0.0167
 2835TIP3    H229997   5.288   2.283  14.816 -2.0661  1.4149 -0.0736
 2836TIP3   OH229998   6.849   1.332  16.552 -0.1880 -0.7824  0.0890
 2836TIP3    H129999   6.877   1.283  16.475 -1.3802 -2.3100  0.5863
 2836TIP3    H230000   6.928   1.376  16.583  0.7224 -1.6955 -0.8883
 2837TIP3   OH230001   3.897   4.218  14.152 -0.2503  0.3974  0.3029
 2837TIP3    H130002   3.949   4.197  14.075 -1.2318 -1.5904  0.1045
 2837TIP3    H230003   3.810   4.236  14.118 -0.4791  0.4052  0.8786
 2838TIP3   OH230004   3.866   0.801  14.919  0.9056 -0.0023  0.5533
 2838TIP3    H130005   3.810   0.761  14.985 -1.5974 -0.4133 -1.6522
 2838TIP3    H230006   3.950   0.755  14.928  0.1963 -1.0518  2.4043
 2839TIP3   OH230007   2.708   2.962   1.420 -0.1795 -0.1365  0.4632
 2839TIP3    H130008   2.785   2.985   1.368  0.5438 -0.9707  1.1268
 2839TIP3    H230009   2.667   3.046   1.441  1.5334  0.4783  1.5593
 2840TIP3   OH230010   0.180   6.624  14.940  0.3511 -0.1047 -0.7790
 2840TIP3    H130011   0.222   6.683  15.002 -1.4768  1.1028 -0.6473
 2840TIP3    H230012   0.192   6.666  14.854 -0.3337  0.1173 -0.7718
 2841TIP3   OH230013   2.368   1.127   3.083 -0.1828  0.3076  0.5758
 2841TIP3    H130014   2.369   1.092   3.172  0.5932 -1.1285  0.0355
 2841TIP3    H230015   2.447   1.090   3.042 -0.8434  0.4573 -0.8831
 2842TIP3   OH230016   6.221   6.083  12.579 -0.0300  0.1948  0.5626
 2842TIP3    H130017   6.180   6.157  12.624 -0.8048  0.5837 -0.7304
 2842TIP3    H230018   6.148   6.026  12.555 -0.0875  1.4784 -2.8347
 2843TIP3   OH230019   3.788   5.483  11.918 -0.3007  0.3066 -0.9013
 2843TIP3    H130020   3.706   5.495  11.966  0.3396  0.9560  0.0689
 2843TIP3    H230021   3.818   5.395  11.944  0.2852  0.8402  0.3066
 2844TIP3   OH230022   6.818   6.706  14.459  0.9274 -0.7760  0.1185
 2844TIP3    H130023   6.774   6.766  14.520  2.3412 -1.1851  1.6045
 2844TIP3    H230024   6.900   6.684  14.502  1.3575 -2.1902 -1.3329
 2845TIP3   OH230025   3.386   4.023  11.159  0.0759 -0.0817 -0.4506
 2845TIP3    H130026   3.298   3.988  11.171  0.0816  0.2793  0.6854
 2845TIP3    H230027   3.407   4.003  11.067 -1.1340 -0.2660 -0.7017
 2846TIP3   OH230028   6.109   3.136  12.045 -0.2817 -0.1106  0.5092
 2846TIP3    H130029   6.159   3.072  11.993  1.2157  0.9795  0.5521
 2846TIP3    H230030   6.018   3.110  12.033  0.1641 -1.1135 -1.0010
 2847TIP3   OH230031   2.651   5.357  14.732  0.1030 -0.0330  0.2680
 2847TIP3    H130032   2.698   5.318  14.805  2.5513  0.4562 -0.9197
 2847TIP3    H230033   2.585   5.413  14.772  0.3626 -0.9294  2.0378
 2848TIP3   OH230034   1.653   0.774   0.661 -0.0164 -0.2504 -0.6217
 2848TIP3    H130035   1.576   0.821   0.628  0.0913  1.5436  1.3721
 2848TIP3    H230036   1.725   0.806   0.608 -0.3049  0.0555 -0.8365
 2849TIP3   OH230037   6.171   5.741   1.761 -0.2937  0.6471 -0.2896
 2849TIP3    H130038   6.221   5.813   1.800 -0.4318  0.7219 -0.2513
 2849TIP3    H230039   6.124   5.702   1.834 -0.9354  1.0955 -0.4553
 2850TIP3   OH230040   0.438   3.958  13.964  0.1233  0.7810  0.4231
 2850TIP3    H130041   0.474   3.870  13.975  1.0754  1.0249 -0.5339
 2850TIP3    H230042   0.343   3.946  13.968  0.1820 -0.5186 -1.1226
 2851TIP3   OH230043   2.623   1.886   3.793  0.3221 -0.3264  0.4227
 2851TIP3    H130044   2.655   1.796   3.795  0.3311 -0.4853 -2.7294
 2851TIP3    H230045   2.528   1.878   3.802  0.4632 -0.4027  2.3706
 2852TIP3   OH230046   0.342   4.423   1.200 -0.1932 -0.3297  0.2904
 2852TIP3    H130047   0.279   4.352   1.183 -0.9269  0.1887  0.7522
 2852TIP3    H230048   0.299   4.476   1.267 -0.6365  1.7540 -1.5569
 2853TIP3   OH230049   3.503   4.233  12.897  0.0291 -0.4637 -0.3938
 2853TIP3    H130050   3.557   4.156  12.878 -0.2647 -1.2219  1.5019
 2853TIP3    H230051   3.417   4.196  12.918 -0.3800  0.4626 -0.4092
 2854TIP3   OH230052   6.831   0.471  11.248  0.0198  0.5090 -0.1004
 2854TIP3    H130053   6.779   0.454  11.327  0.7322  0.8700  0.4514
 2854TIP3    H230054   6.892   0.398  11.243  1.0155  1.2767  0.5577
 2855TIP3   OH230055   0.234   1.021   1.019 -0.1612  0.3343  0.5471
 2855TIP3    H130056   0.212   0.928   1.022 -1.0362  0.4291 -1.4492
 2855TIP3    H230057   0.330   1.023   1.017 -0.1200 -0.7183 -2.3239
 2856TIP3   OH230058   2.858   3.366   0.546 -0.4221  0.2339  0.6032
 2856TIP3    H130059   2.932   3.427   0.550  0.8237 -1.0463 -1.1182
 2856TIP3    H230060   2.780   3.421   0.550  0.6297  1.7566  0.9034
 2857TIP3   OH230061   4.467   1.222  10.876  0.0527 -0.4292  0.0382
 2857TIP3    H130062   4.524   1.297  10.891 -0.4250 -0.3252  1.3793
 2857TIP3    H230063   4.464   1.176  10.960 -1.5929 -0.6086 -0.0960
 2858TIP3   OH230064   5.546   4.162  14.735 -0.4051  0.5410  0.2853
 2858TIP3    H130065   5.454   4.156  14.764  0.0553 -1.3865  1.5574
 2858TIP3    H230066   5.548   4.112  14.653 -0.3882 -0.0670  0.6430
 2859TIP3   OH230067   5.680   1.746  14.399 -0.1400  0.0328 -0.2190
 2859TIP3    H130068   5.747   1.700  14.348 -0.9032 -2.7948  1.0903
 2859TIP3    H230069   5.625   1.788  14.333  0.4649 -1.2030 -1.5969
 2860TIP3   OH230070   1.181   5.157   2.895 -0.0457  0.1600 -1.0619
 2860TIP3    H130071   1.201   5.155   2.989  2.4150  0.9268 -1.4878
 2860TIP3    H230072   1.165   5.065   2.873  0.6459 -0.2108 -0.1185
 2861TIP3   OH230073   5.476   2.749   4.134  0.3835 -0.0897  0.3395
 2861TIP3    H130074   5.408   2.681   4.138 -0.3848  0.6787  0.4800
 2861TIP3    H230075   5.449   2.805   4.062  0.8416  0.2654  0.4410
 2862TIP3   OH230076   2.363   0.126   3.888 -0.1544  0.1775  0.1315
 2862TIP3    H130077   2.422   0.191   3.927  1.0631 -1.6197  1.4361
 2862TIP3    H230078   2.332   0.075   3.962 -3.4693  1.0501 -0.4988
 2863TIP3   OH230079   1.083   5.940  16.030  0.5224 -0.7375 -0.0031
 2863TIP3    H130080   1.094   6.033  16.007  0.7969 -0.5244  0.9493
 2863TIP3    H230081   1.171   5.909  16.049  0.6562 -1.6529 -1.9140
 2864TIP3   OH230082   1.929   5.397   1.641  0.3005 -0.4972 -0.2714
 2864TIP3    H130083   1.983   5.457   1.589  0.9803 -0.8737 -0.0047
 2864TIP3    H230084   1.845   5.396   1.596  0.9636 -1.0409 -1.5294
 2865TIP3   OH230085   3.832   5.544  14.840  0.4549 -0.6335 -0.0668
 2865TIP3    H130086   3.896   5.614  14.826  0.6145 -0.7107  0.2723
 2865TIP3    H230087   3.783   5.540  14.758  0.5066 -0.1869 -0.1226
 2866TIP3   OH230088   4.385   0.288   5.766  0.1776  0.1134  0.5182
 2866TIP3    H130089   4.320   0.338   5.815  0.0138 -0.0346  0.4513
 2866TIP3    H230090   4.445   0.254   5.833  0.0463  0.0450  0.6001
 2867TIP3   OH230091   6.035   5.052  15.344  0.2726  0.0625 -0.5087
 2867TIP3    H130092   6.096   4.981  15.364  0.7510  0.0531 -1.8781
 2867TIP3    H230093   6.045   5.066  15.250 -0.5732  1.2513 -0.4425
 2868TIP3   OH230094   5.873   4.645  13.371 -0.2107  0.3097  0.8450
 2868TIP3    H130095   5.935   4.593  13.423  0.2046  1.1648  1.2162
 2868TIP3    H230096   5.834   4.581  13.311  1.8770 -0.0437 -0.2279
 2869TIP3   OH230097   4.801   6.596   1.587 -0.5565  0.5263  0.1946
 2869TIP3    H130098   4.810   6.653   1.511  0.5494 -1.0100 -0.9025
 2869TIP3    H230099   4.724   6.628   1.633  0.3903  3.2776  0.0207
 2870TIP3   OH230100   5.042   1.421  12.844  0.0537 -0.8835  0.1564
 2870TIP3    H130101   5.012   1.331  12.830  0.1306 -0.8224 -0.4032
 2870TIP3    H230102   4.974   1.460  12.900 -0.5726 -0.9572 -0.5266
 2871TIP3   OH230103   0.386   4.381   2.856  0.0452  0.3384  0.4402
 2871TIP3    H130104   0.306   4.401   2.904  0.8085 -0.4889  2.1546
 2871TIP3    H230105   0.457   4.415   2.911  0.8997  0.9628 -0.9898
 2872TIP3   OH230106   2.837   0.158   0.403 -0.5163 -0.5659  0.2795
 2872TIP3    H130107   2.744   0.135   0.412 -0.6288  0.1551  1.2300
 2872TIP3    H230108   2.836   0.240   0.353 -0.3978 -0.5349  0.3281
 2873TIP3   OH230109   3.634   1.221  12.305 -0.3882 -0.1889  0.2223
 2873TIP3    H130110   3.619   1.182  12.220  1.1703  0.8342 -0.5650
 2873TIP3    H230111   3.593   1.308  12.299 -1.9869 -0.8145  1.2339
 2874TIP3   OH230112   2.921   4.907   0.774 -0.2600 -0.4638 -0.5299
 2874TIP3    H130113   2.989   4.967   0.805 -2.0765  1.4984 -0.0742
 2874TIP3    H230114   2.904   4.850   0.849 -0.8433  0.7088  0.2656
 2875TIP3   OH230115   0.178   3.323   0.799  0.4772 -0.0817 -0.2846
 2875TIP3    H130116   0.099   3.306   0.749  0.8741 -0.9242 -0.6448
 2875TIP3    H230117   0.150   3.380   0.871 -0.6532 -1.2260  0.2142
 2876TIP3   OH230118   0.546   1.501   2.000 -0.2044 -0.2304 -0.6757
 2876TIP3    H130119   0.600   1.535   2.072 -0.9316 -3.1658  1.4277
 2876TIP3    H230120   0.610   1.467   1.937  0.4569 -0.3115  0.0158
 2877TIP3   OH230121   0.869   4.304   0.410  0.3846 -0.7970 -0.1815
 2877TIP3    H130122   0.817   4.363   0.464 -1.2681 -1.0534 -1.4125
 2877TIP3    H230123   0.870   4.222   0.459 -0.7520 -0.9089 -0.3099
 2878TIP3   OH230124   2.878   2.016  13.248 -0.1399 -0.4917 -0.0595
 2878TIP3    H130125   2.927   1.935  13.243 -1.0084 -1.0713  0.6027
 2878TIP3    H230126   2.869   2.044  13.156  1.7644 -0.1199 -0.1769
 2879TIP3   OH230127   4.608   1.680  11.984  0.4080  0.3695  0.0652
 2879TIP3    H130128   4.522   1.638  11.971  0.3959 -0.2336  1.8319
 2879TIP3    H230129   4.665   1.636  11.921 -0.3069 -0.1062 -0.2706
 2880TIP3   OH230130   6.837   5.362  16.768  0.2896  0.1091 -0.1495
 2880TIP3    H130131   6.881   5.325  16.845  0.4741  0.5319 -0.0494
 2880TIP3    H230132   6.773   5.423  16.804  0.4010  0.3357 -0.3351
 2881TIP3   OH230133   1.405   0.646  14.569  0.1539 -0.7390  1.1947
 2881TIP3    H130134   1.364   0.665  14.484 -1.0936 -0.1682  1.8990
 2881TIP3    H230135   1.335   0.605  14.620  1.0274 -1.4835  1.8139
 2882TIP3   OH230136   4.828   1.660  13.342 -0.4921 -0.0331 -0.0261
 2882TIP3    H130137   4.804   1.707  13.422  0.5133  0.6471 -0.1075
 2882TIP3    H230138   4.857   1.574  13.373 -2.1418 -0.5795  0.1395
 2883TIP3   OH230139   4.441   4.971   2.874  0.6698 -0.3652 -0.3694
 2883TIP3    H130140   4.382   4.925   2.933 -0.8336 -0.1845 -1.6955
 2883TIP3    H230141   4.423   5.064   2.890  1.6607 -0.2548  0.2414
 2884TIP3   OH230142   3.913   0.424  11.924  0.0564 -0.7259 -1.2672
 2884TIP3    H130143   3.936   0.351  11.866 -2.7251 -4.3859  1.6849
 2884TIP3    H230144   3.818   0.428  11.920  0.0624  2.2400 -0.5456
 2885TIP3   OH230145   0.737   5.154  14.933  0.0409  0.0157 -0.0527
 2885TIP3    H130146   0.734   5.250  14.930  0.7062  0.0315 -0.6374
 2885TIP3    H230147   0.727   5.127  14.841  3.2208 -0.3224 -0.4102
 2886TIP3   OH230148   3.815   3.928  13.391 -0.4015 -0.0395 -0.4567
 2886TIP3    H130149   3.731   3.884  13.382  1.2468 -3.1975 -1.9690
 2886TIP3    H230150   3.806   3.980  13.471 -3.0812 -2.0097  0.6852
 2887TIP3   OH230151   4.682   2.244  12.812  0.0573 -0.3475 -0.4825
 2887TIP3    H130152   4.683   2.156  12.850  1.0510 -1.0258 -1.9733
 2887TIP3    H230153   4.599   2.282  12.842 -0.3759 -1.7777  0.2345
 2888TIP3   OH230154   0.467   1.322   3.859 -0.3134  0.3556  0.0768
 2888TIP3    H130155   0.529   1.376   3.907  0.4776 -0.1958 -0.3102
 2888TIP3    H230156   0.457   1.243   3.912 -1.4313  0.8311  0.6191
 2889TIP3   OH230157   0.450   4.122  15.045 -0.1828 -0.1692 -0.5155
 2889TIP3    H130158   0.439   4.028  15.035  0.0072 -0.1926 -0.5120
 2889TIP3    H230159   0.477   4.133  15.137  2.9453 -0.4131 -1.2845
 2890TIP3   OH230160   4.117   6.161  14.454 -0.1503 -0.3812  0.2890
 2890TIP3    H130161   4.074   6.216  14.389  0.3948  0.8845  0.9648
 2890TIP3    H230162   4.157   6.222  14.515 -0.1200 -1.5318  1.4832
 2891TIP3   OH230163   2.605   3.131  12.046 -0.7826  0.0046 -0.0324
 2891TIP3    H130164   2.672   3.195  12.069  0.7201 -1.1927 -0.9393
 2891TIP3    H230165   2.626   3.105  11.956 -2.0432 -0.9364 -0.0885
 2892TIP3   OH230166   0.427   1.884   4.500  0.3240  0.0496  0.0764
 2892TIP3    H130167   0.470   1.833   4.431  2.5406 -1.9034  2.7221
 2892TIP3    H230168   0.334   1.863   4.490  0.5255  0.0574 -2.4400
 2893TIP3   OH230169   3.899   2.627  16.643 -0.4514 -0.1168  0.6695
 2893TIP3    H130170   3.944   2.549  16.677 -3.0172 -1.4801  1.1869
 2893TIP3    H230171   3.917   2.695  16.708  1.7089 -0.2464  0.2853
 2894TIP3   OH230172   5.189   0.934  12.846  0.1172  0.8217  0.1788
 2894TIP3    H130173   5.101   0.943  12.882 -0.2670  1.7148 -0.9172
 2894TIP3    H230174   5.186   0.980  12.762  0.8646 -1.5082 -1.2255
 2895TIP3   OH230175   2.037   1.897  16.742 -0.5321 -0.0314  0.3138
 2895TIP3    H130176   2.073   1.956  16.809 -0.9414  0.0531  0.4565
 2895TIP3    H230177   1.943   1.894  16.760 -0.7359  0.4544 -0.6095
 2896TIP3   OH230178   1.357   1.751  15.408 -0.3559 -0.7800  0.0386
 2896TIP3    H130179   1.276   1.700  15.407 -0.3435 -0.8294  0.8690
 2896TIP3    H230180   1.423   1.690  15.441 -0.4254 -0.1337  1.4665
 2897TIP3   OH230181   6.456   5.444   2.628 -0.1441  0.3007 -0.0601
 2897TIP3    H130182   6.451   5.424   2.721  2.4435  2.3737  0.6485
 2897TIP3    H230183   6.450   5.359   2.585 -0.7342 -0.7796  2.0296
 2898TIP3   OH230184   4.419   0.208  14.568 -0.6196 -0.0685 -0.3701
 2898TIP3    H130185   4.486   0.190  14.633  0.4868  1.5580 -0.9996
 2898TIP3    H230186   4.377   0.123  14.553  1.2861 -1.1473  0.0448
 2899TIP3   OH230187   0.482   4.905  12.116  0.4053 -0.6122 -0.2961
 2899TIP3    H130188   0.408   4.960  12.091 -1.0259 -2.2293  0.2682
 2899TIP3    H230189   0.543   4.914  12.042 -0.2803  0.7975 -0.7390
 2900TIP3   OH230190   1.179   3.716  16.620 -0.5268  0.0002 -0.1403
 2900TIP3    H130191   1.210   3.798  16.582  0.1738  1.1261  2.5795
 2900TIP3    H230192   1.084   3.725  16.622 -0.4384  0.9498  0.4721
 2901TIP3   OH230193   0.286   6.202   5.076 -0.0329 -0.3926  0.3648
 2901TIP3    H130194   0.325   6.131   5.128 -0.7067 -1.7919 -0.9397
 2901TIP3    H230195   0.355   6.225   5.013 -0.0771 -0.4242  0.3046
 2902TIP3   OH230196   4.857   0.033   5.191  0.6650  0.2050 -0.2588
 2902TIP3    H130197   4.934  -0.016   5.161  1.6096  0.7226  1.2217
 2902TIP3    H230198   4.849   0.106   5.129  1.1360 -0.0560 -0.6335
 2903TIP3   OH230199   5.915   5.167  12.784  0.0193  0.3145 -0.9117
 2903TIP3    H130200   5.974   5.092  12.773 -0.2378 -0.0527  0.0146
 2903TIP3    H230201   5.970   5.236  12.820 -0.2493 -0.3348  0.8899
 2904TIP3   OH230202   5.657   0.610   4.947  0.0210 -0.8675 -0.3808
 2904TIP3    H130203   5.628   0.559   5.023 -1.4899  0.2362 -0.1527
 2904TIP3    H230204   5.601   0.580   4.875 -1.0397  0.5437 -0.1931
 2905TIP3   OH230205   4.240   4.240   4.896  0.9847  0.5155  0.0945
 2905TIP3    H130206   4.237   4.306   4.827  1.4668 -1.1122 -1.5669
 2905TIP3    H230207   4.166   4.181   4.876  0.7064  0.3937  1.3873
 2906TIP3   OH230208   4.703   5.927   3.907 -0.7185  0.2369  0.1867
 2906TIP3    H130209   4.641   5.899   3.974 -2.1208  1.0120 -0.7360
 2906TIP3    H230210   4.651   5.981   3.847  0.9778  1.3922 -0.3221
 2907TIP3   OH230211   6.829   6.710   4.820  0.3339  0.2050 -0.4621
 2907TIP3    H130212   6.870   6.636   4.775 -0.0956 -0.0923 -0.3665
 2907TIP3    H230213   6.862   6.705   4.910 -0.1241 -0.2028 -0.3109
 2908TIP3   OH230214   4.329   5.366  16.388  0.1610  0.3264 -0.6384
 2908TIP3    H130215   4.249   5.418  16.398 -0.2388 -0.2406 -0.8134
 2908TIP3    H230216   4.375   5.406  16.315 -0.2723  0.2803 -0.9434
 2909TIP3   OH230217   3.455   2.581  14.064  0.4805  0.4159  0.0077
 2909TIP3    H130218   3.435   2.522  13.991  0.7327  1.3839 -0.8658
 2909TIP3    H230219   3.456   2.668  14.025 -0.4190  1.0747  1.3823
 2910TIP3   OH230220   2.438   6.191   3.977  0.2001 -0.3911  0.2737
 2910TIP3    H130221   2.474   6.122   3.922  0.5504 -0.8744  1.0995
 2910TIP3    H230222   2.500   6.199   4.050 -0.5586 -0.1779  0.9141
 2911TIP3   OH230223   5.296   4.274   1.835 -0.1068 -0.3593  0.4252
 2911TIP3    H130224   5.349   4.285   1.915  2.0416  0.7992 -1.0423
 2911TIP3    H230225   5.340   4.329   1.770 -0.2685 -3.1430 -2.2726
 2912TIP3   OH230226   2.666   1.367  17.026  0.0745  0.5636 -0.4427
 2912TIP3    H130227   2.681   1.273  17.040  1.6712  0.7790 -0.4906
 2912TIP3    H230228   2.627   1.398  17.107  0.3493  0.0075 -0.0897
 2913TIP3   OH230229   6.795   1.631  12.588 -0.2071  0.4457 -0.3587
 2913TIP3    H130230   6.791   1.654  12.495  0.2214 -2.4521 -1.1927
 2913TIP3    H230231   6.827   1.541  12.589  1.3027  0.8903  2.7125
 2914TIP3   OH230232   6.637   4.167  13.630 -0.2723 -0.1471  0.4142
 2914TIP3    H130233   6.616   4.113  13.707  0.7493 -0.5255  0.4404
 2914TIP3    H230234   6.622   4.109  13.555  0.7468 -0.4642  0.4384
 2915TIP3   OH230235   4.842   6.119   5.050  0.0649  0.0328  0.3410
 2915TIP3    H130236   4.927   6.089   5.084  0.6034 -0.1606 -1.1173
 2915TIP3    H230237   4.814   6.050   4.991 -1.0994  0.1312  0.7470
 2916TIP3   OH230238   3.121   5.818  14.804  0.0356 -0.0899 -0.3309
 2916TIP3    H130239   3.129   5.794  14.712  0.2684 -0.0031 -0.3339
 2916TIP3    H230240   3.032   5.792  14.828 -0.2494  0.4623 -0.7527
 2917TIP3   OH230241   6.759   5.492  14.456 -0.1492  0.4726 -0.3435
 2917TIP3    H130242   6.769   5.398  14.439 -1.1330  0.4300 -0.7730
 2917TIP3    H230243   6.699   5.496  14.531 -0.8910  0.7637 -0.9450
 2918TIP3   OH230244   3.787   3.295  16.317 -1.0409  0.7650  0.0588
 2918TIP3    H130245   3.820   3.338  16.397  0.4784 -0.3224  0.0604
 2918TIP3    H230246   3.854   3.313  16.252 -0.3066 -1.6213  0.0819
 2919TIP3   OH230247   2.596   0.954   5.524  0.3534 -0.6243 -0.0920
 2919TIP3    H130248   2.525   0.912   5.572  1.2118 -0.8186  1.0588
 2919TIP3    H230249   2.644   1.003   5.591  2.1702 -1.6775 -0.5707
 2920TIP3   OH230250   6.739   5.933  15.714  0.0838  0.7502 -0.2203
 2920TIP3    H130251   6.705   6.011  15.669 -0.1286 -0.4983 -2.3693
 2920TIP3    H230252   6.680   5.863  15.687 -0.2828 -0.0587  2.3915
 2921TIP3   OH230253   5.231   1.982   2.303  0.0793 -0.1970 -0.3743
 2921TIP3    H130254   5.285   2.047   2.258 -0.9853 -0.5479 -2.2991
 2921TIP3    H230255   5.187   2.030   2.373 -0.4476  1.0987 -1.5539
 2922TIP3   OH230256   4.136   5.350   1.152 -0.3804 -0.2474  0.6446
 2922TIP3    H130257   4.173   5.333   1.065 -0.4448 -0.8510  0.7336
 2922TIP3    H230258   4.211   5.383   1.203  0.6859 -3.6044  1.4807
 2923TIP3   OH230259   0.261   6.336  16.997  0.2081  0.3235  0.8294
 2923TIP3    H130260   0.353   6.343  16.974  0.1568  0.0718  0.5426
 2923TIP3    H230261   0.249   6.398  17.069  0.1295  1.9057 -0.5092
 2924TIP3   OH230262   5.983   2.496   2.536 -0.2225 -0.6039 -0.4421
 2924TIP3    H130263   5.930   2.565   2.575 -0.7343 -0.6464 -1.0417
 2924TIP3    H230264   6.068   2.537   2.520  0.4145 -0.9190  1.7753
 2925TIP3   OH230265   0.841   4.552  11.726  0.7656 -0.1011 -0.2700
 2925TIP3    H130266   0.854   4.473  11.778  1.1907  0.5447  0.6380
 2925TIP3    H230267   0.928   4.575  11.695  0.5550 -0.3175 -1.0371
 2926TIP3   OH230268   3.709   3.883   4.320  0.4764 -0.3999  0.0862
 2926TIP3    H130269   3.624   3.839   4.312 -0.0858  0.6170  0.2569
 2926TIP3    H230270   3.705   3.927   4.405  0.5049  0.9824 -0.5932
 2927TIP3   OH230271   5.788   2.678   1.045 -0.0013  0.3828 -0.0539
 2927TIP3    H130272   5.725   2.657   0.976  2.2333 -2.5343 -1.3960
 2927TIP3    H230273   5.745   2.651   1.126 -1.1108  0.0112 -0.7442
 2928TIP3   OH230274   0.096   2.195   0.635 -0.2542 -0.9115 -0.0456
 2928TIP3    H130275   0.090   2.286   0.608 -1.8500 -0.7876  0.6253
 2928TIP3    H230276   0.190   2.177   0.639  0.0794  0.6469 -0.3260
 2929TIP3   OH230277   0.879   6.725   4.474 -0.1158 -0.0753 -0.5126
 2929TIP3    H130278   0.905   6.716   4.382 -1.8199  1.5580 -1.2250
 2929TIP3    H230279   0.961   6.739   4.521  0.6966  0.0660 -1.9261
 2930TIP3   OH230280   1.518   6.425   5.441  0.1036  0.4699 -0.4103
 2930TIP3    H130281   1.490   6.470   5.521  1.9334 -1.7295  1.6516
 2930TIP3    H230282   1.612   6.410   5.454  0.4550 -0.0337 -2.9935
 2931TIP3   OH230283   5.587   2.902   3.275 -0.0377 -0.0372 -0.0796
 2931TIP3    H130284   5.569   2.838   3.343 -2.0710  0.0184 -0.4871
 2931TIP3    H230285   5.676   2.932   3.292 -0.2189 -0.5815  2.0780
 2932TIP3   OH230286   1.690   3.873   5.140  0.3710 -0.0355 -0.2528
 2932TIP3    H130287   1.769   3.897   5.189  0.0344 -0.1464  0.3413
 2932TIP3    H230288   1.623   3.859   5.206 -0.3191  0.6636 -0.7857
 2933TIP3   OH230289   3.758   3.011   4.828  0.2428  0.0185 -0.3418
 2933TIP3    H130290   3.821   2.940   4.818 -0.1714 -0.4989  0.6315
 2933TIP3    H230291   3.679   2.969   4.863 -0.0867  0.9181  0.0261
 2934TIP3   OH230292   3.486   5.588   1.428  0.6595  0.1185  0.2041
 2934TIP3    H130293   3.516   5.593   1.337  0.4099 -1.1626  0.0311
 2934TIP3    H230294   3.437   5.506   1.433  0.3423  0.3581  1.4040
 2935TIP3   OH230295   1.457   5.127   4.738 -0.3113 -0.3842  0.1644
 2935TIP3    H130296   1.541   5.118   4.694 -0.2114  2.8403 -0.5511
 2935TIP3    H230297   1.475   5.103   4.829  1.3668  0.1406 -0.0025
 2936TIP3   OH230298   5.798   1.061   1.639  0.5298 -0.2153 -0.6943
 2936TIP3    H130299   5.815   1.075   1.546  2.7266 -0.5556 -0.4078
 2936TIP3    H230300   5.813   1.146   1.680 -3.3256  0.7204 -0.8940
 2937TIP3   OH230301   0.757   2.165  12.593 -0.1554  0.4299 -0.4040
 2937TIP3    H130302   0.668   2.146  12.562  0.0893  1.4146 -1.8114
 2937TIP3    H230303   0.751   2.252  12.631  0.1641  0.3815 -0.2361
 2938TIP3   OH230304   6.025   2.511  12.657 -0.5088 -0.2887 -0.1686
 2938TIP3    H130305   5.945   2.473  12.622  0.9397 -2.0416 -1.7997
 2938TIP3    H230306   6.090   2.441  12.650  0.8729  0.6017  2.4165
 2939TIP3   OH230307   5.593   4.861   4.821  0.6362  0.4548 -0.1152
 2939TIP3    H130308   5.646   4.935   4.789  1.7059 -1.5245 -3.3688
 2939TIP3    H230309   5.536   4.839   4.747 -1.2532 -0.6311  1.5840
 2940TIP3   OH230310   5.657   6.497  11.051  0.0299 -0.7974 -0.2313
 2940TIP3    H130311   5.682   6.413  11.089 -0.6178 -0.4186  1.0625
 2940TIP3    H230312   5.604   6.539  11.118 -0.4287  0.2583 -1.2286
 2941TIP3   OH230313   2.840   3.434  12.882  0.6679  0.4134 -0.1942
 2941TIP3    H130314   2.838   3.363  12.946 -0.1422 -0.6998 -1.4059
 2941TIP3    H230315   2.754   3.475  12.888 -1.1989 -2.4810 -3.4641
 2942TIP3   OH230316   2.450   5.431   5.288 -0.0579  0.0285  0.4231
 2942TIP3    H130317   2.485   5.504   5.338  0.4960 -0.5642  0.9099
 2942TIP3    H230318   2.504   5.428   5.209 -0.3642  0.4128  0.1955
 2943TIP3   OH230319   0.261   1.817   0.450 -0.1509  0.5878 -0.6967
 2943TIP3    H130320   0.188   1.765   0.483 -0.2661 -0.2926 -2.2522
 2943TIP3    H230321   0.221   1.898   0.418 -0.1745  0.9580  0.2298
 2944TIP3   OH230322   2.778   2.955  16.807  0.2694 -0.1985 -0.2420
 2944TIP3    H130323   2.702   2.901  16.825 -0.2164  0.3878 -0.4837
 2944TIP3    H230324   2.749   3.015  16.738  0.6795  0.5992  0.2671
 2945TIP3   OH230325   3.865   2.972   3.690  0.0869 -0.2879  0.3750
 2945TIP3    H130326   3.930   2.968   3.760  1.8135  1.7223 -0.9750
 2945TIP3    H230327   3.905   2.925   3.617 -0.7049 -0.3999 -0.0053
 2946TIP3   OH230328   6.713   4.973   4.858 -0.1916 -0.9229  0.9287
 2946TIP3    H130329   6.783   4.943   4.801  0.2641 -1.9036  1.9630
 2946TIP3    H230330   6.691   5.060   4.825 -0.0884 -1.5285 -0.8343
 2947TIP3   OH230331   2.876   2.424  12.431 -0.2223 -0.2001  0.2312
 2947TIP3    H130332   2.798   2.400  12.382 -0.3907  0.4327  0.1766
 2947TIP3    H230333   2.857   2.512  12.464  0.8193  0.3517 -0.5611
 2948TIP3   OH230334   4.816   1.062  11.817  0.0990 -0.0805  0.2139
 2948TIP3    H130335   4.878   1.033  11.750  1.0390 -0.7204  1.3229
 2948TIP3    H230336   4.745   0.998  11.812  1.3248 -1.6282  1.4360
 2949TIP3   OH230337   1.124   2.257   4.481  0.7553 -0.5054 -0.0048
 2949TIP3    H130338   1.206   2.282   4.522 -0.0761 -0.7882  1.9570
 2949TIP3    H230339   1.076   2.339   4.469  0.1233 -0.5920  1.6733
 2950TIP3   OH230340   5.370   1.021   2.690  0.6514  0.2840  0.3542
 2950TIP3    H130341   5.322   0.978   2.620  1.3084  2.7838 -1.8330
 2950TIP3    H230342   5.303   1.066   2.741  0.3330  0.8168 -0.4993
 2951TIP3   OH230343   1.645   2.981   0.967  0.0973  0.5282  0.2714
 2951TIP3    H130344   1.562   3.010   0.928 -0.4058  0.2366  1.1003
 2951TIP3    H230345   1.712   3.008   0.904 -0.5852  1.1987 -0.1807
 2952TIP3   OH230346   0.257   3.438  15.845  0.0673  0.1296 -0.7917
 2952TIP3    H130347   0.318   3.489  15.791 -0.8736  1.7064 -0.4344
 2952TIP3    H230348   0.244   3.492  15.923 -0.5225 -0.9513 -0.1204
 2953TIP3   OH230349   1.243   3.653   4.944  0.1258  0.3262  0.1643
 2953TIP3    H130350   1.211   3.590   4.879  0.3987  0.8876 -0.5371
 2953TIP3    H230351   1.202   3.626   5.026  0.0687 -0.6287 -0.1644
 2954TIP3   OH230352   1.270   6.312  14.394 -0.7451  0.0140 -0.1808
 2954TIP3    H130353   1.365   6.320  14.398 -0.4812 -2.1830 -0.8453
 2954TIP3    H230354   1.238   6.379  14.455  1.2072  0.6596  0.2212
 2955TIP3   OH230355   2.188   2.374  13.237 -0.5506  0.5566  0.0769
 2955TIP3    H130356   2.199   2.289  13.194  0.9143  0.3205  0.8408
 2955TIP3    H230357   2.214   2.438  13.171  0.6341  0.2555  0.2124
 2956TIP3   OH230358   0.528   4.485  14.124  0.1685  0.2349 -0.4131
 2956TIP3    H130359   0.512   4.403  14.077 -1.7067 -0.1444  0.8176
 2956TIP3    H230360   0.579   4.459  14.201 -0.2398  0.2587 -0.1349
 2957TIP3   OH230361   1.671   5.656   4.013 -0.4779 -0.3198  0.0038
 2957TIP3    H130362   1.702   5.565   4.017  1.6790  0.3840  0.6045
 2957TIP3    H230363   1.669   5.676   3.919 -0.1003 -0.7097 -0.0919
 2958TIP3   OH230364   2.370   0.231   4.492 -0.0888 -0.0635  0.7233
 2958TIP3    H130365   2.344   0.273   4.410  0.1453  0.9496  1.1604
 2958TIP3    H230366   2.294   0.243   4.550 -0.1521 -0.5501  0.7513
 2959TIP3   OH230367   1.106   4.547   1.801 -0.5761  0.7431 -0.1987
 2959TIP3    H130368   1.197   4.520   1.811  0.0636  2.2604 -1.5535
 2959TIP3    H230369   1.085   4.528   1.710 -2.0956 -0.8602  0.4313
 2960TIP3   OH230370   0.726   3.904   4.144 -0.0570  0.6557 -0.3363
 2960TIP3    H130371   0.707   3.927   4.236  0.3772  2.8254 -0.7185
 2960TIP3    H230372   0.785   3.974   4.114 -1.1630  0.6891 -2.6253
 2961TIP3   OH230373   3.726   6.855  13.599 -0.3013  0.1847  0.4323
 2961TIP3    H130374   3.638   6.857  13.636 -0.3747  2.7177  0.2644
 2961TIP3    H230375   3.775   6.921  13.649  1.6552 -1.4296  0.7981
 2962TIP3   OH230376   6.383   0.977  16.538 -0.1296 -0.4559 -0.5871
 2962TIP3    H130377   6.344   1.060  16.510 -2.6915 -1.1654  0.5498
 2962TIP3    H230378   6.423   0.997  16.622  2.0223  0.2614 -1.7172
 2963TIP3   OH230379   3.909   5.304  14.939 -0.4354  0.5695 -0.3179
 2963TIP3    H130380   3.965   5.303  14.862 -0.2383  2.4084 -0.2422
 2963TIP3    H230381   3.858   5.385  14.931 -3.1323 -1.0229 -0.3850
 2964TIP3   OH230382   2.337   6.077  13.498  0.5070 -0.3049  0.2613
 2964TIP3    H130383   2.311   6.168  13.509  0.1871 -0.3101 -0.4002
 2964TIP3    H230384   2.261   6.035  13.458  1.4312 -0.3576 -1.5357
 2965TIP3   OH230385   2.500   6.742  12.353  0.4128 -0.6284  0.3163
 2965TIP3    H130386   2.584   6.773  12.386  0.4702  0.4288 -0.7663
 2965TIP3    H230387   2.494   6.778  12.265 -2.1126  1.1422  1.0866
 2966TIP3   OH230388   5.894   5.643  10.560 -0.0686  1.3188 -0.7012
 2966TIP3    H130389   5.983   5.637  10.524 -0.9706 -1.3768 -2.7976
 2966TIP3    H230390   5.849   5.704  10.502 -0.3776  0.2436 -1.6317
 2967TIP3   OH230391   5.939   0.517  16.902  0.1839 -0.0616 -0.3391
 2967TIP3    H130392   5.844   0.515  16.914  0.1265  0.3098 -0.7220
 2967TIP3    H230393   5.972   0.454  16.966 -0.2384  0.5808  0.5486
 2968TIP3   OH230394   2.874   5.654  13.416  0.1880  0.4319  0.1401
 2968TIP3    H130395   2.928   5.675  13.492 -0.0405  0.0727  0.4069
 2968TIP3    H230396   2.824   5.734  13.400  0.2934  0.5356  0.3265
 2969TIP3   OH230397   4.776   6.507   5.427  0.3750 -0.2258  0.0611
 2969TIP3    H130398   4.764   6.446   5.501  0.6757  1.0952  1.2391
 2969TIP3    H230399   4.814   6.585   5.466 -1.4222  1.3349 -1.1191
 2970TIP3   OH230400   1.816   3.851   2.499 -0.2481 -0.5327 -0.7288
 2970TIP3    H130401   1.830   3.848   2.404 -0.1737  0.1689 -0.7436
 2970TIP3    H230402   1.725   3.878   2.508  0.6116  2.7210 -0.6156
 2971TIP3   OH230403   0.129   3.233  13.166 -0.1940 -0.7166 -0.3208
 2971TIP3    H130404   0.166   3.172  13.102  1.1808  0.9560 -1.2149
 2971TIP3    H230405   0.171   3.209  13.249 -1.5392 -2.5126 -0.0922
 2972TIP3   OH230406   0.771   1.289   5.580 -0.5548  0.0665  0.2517
 2972TIP3    H130407   0.713   1.267   5.654 -0.7524 -0.2865 -0.0041
 2972TIP3    H230408   0.759   1.217   5.519 -0.8234  0.6392 -0.3819
 2973TIP3   OH230409   5.796   1.244  14.888  0.2767  0.3417 -0.4160
 2973TIP3    H130410   5.704   1.269  14.888  0.1289 -0.1746 -0.4970
 2973TIP3    H230411   5.829   1.272  14.973 -0.8147 -2.4779  1.0618
 2974TIP3   OH230412   6.185   0.887   2.010  0.5829  0.1461  0.2550
 2974TIP3    H130413   6.204   0.974   1.974  2.1080 -0.9142 -1.6719
 2974TIP3    H230414   6.101   0.863   1.971 -0.6963  1.3412  2.0823
 2975TIP3   OH230415   0.087   1.215   3.319  0.3779  0.6008 -0.0989
 2975TIP3    H130416   0.014   1.211   3.380  0.0182  0.2603 -0.5444
 2975TIP3    H230417   0.163   1.191   3.372  0.2980  1.6953  0.5456
 2976TIP3   OH230418   3.518   5.735   0.204 -0.9490 -0.6472  0.2589
 2976TIP3    H130419   3.466   5.735   0.284  0.3532 -1.0400  1.1348
 2976TIP3    H230420   3.581   5.806   0.216 -0.3251 -1.1228 -0.1259
 2977TIP3   OH230421   2.420   1.869   1.423 -0.3331  0.8932  0.1988
 2977TIP3    H130422   2.484   1.909   1.482 -1.4761  1.7520  0.8887
 2977TIP3    H230423   2.403   1.783   1.462  0.9023  0.3609 -0.3824
 2978TIP3   OH230424   5.987   4.465   4.825  0.1677 -0.1789 -0.0728
 2978TIP3    H130425   6.013   4.429   4.740 -0.1039  0.2274 -0.3301
 2978TIP3    H230426   5.901   4.425   4.842 -0.3930  0.7525 -0.6203
 2979TIP3   OH230427   2.890   6.254  16.362  0.5131 -0.1644 -0.0481
 2979TIP3    H130428   2.917   6.206  16.283 -1.8824  1.9463 -2.3649
 2979TIP3    H230429   2.969   6.301  16.389  0.8520  1.1555 -2.9056
 2980TIP3   OH230430   1.437   6.801   0.930  0.4183  0.0224  0.2248
 2980TIP3    H130431   1.400   6.719   0.896 -0.3879  0.4444  0.0656
 2980TIP3    H230432   1.401   6.869   0.873  0.9729  0.5065  0.4427
 2981TIP3   OH230433   2.109   1.913  16.017  0.2035  0.1945  0.2368
 2981TIP3    H130434   2.030   1.867  16.046 -0.5569  1.3107  0.0399
 2981TIP3    H230435   2.106   1.909  15.922 -0.4050  1.4357  0.1748
 2982TIP3   OH230436   2.185   2.006  12.500 -0.2010  0.9228 -0.0406
 2982TIP3    H130437   2.180   1.987  12.594 -1.7831 -0.7603 -0.4143
 2982TIP3    H230438   2.111   2.063  12.483  0.9192  2.4293 -0.0548
 2983TIP3   OH230439   4.584   3.479   4.972 -0.1135  0.2576  0.0918
 2983TIP3    H130440   4.677   3.501   4.962 -0.3953  1.7943  0.6534
 2983TIP3    H230441   4.554   3.532   5.045 -1.0921 -1.3927  0.9512
 2984TIP3   OH230442   3.987   3.841   1.908  0.4819 -0.4903  0.4127
 2984TIP3    H130443   4.082   3.851   1.901  0.2941  0.9894 -0.4885
 2984TIP3    H230444   3.970   3.844   2.002  1.3027 -0.5121  0.5699
 2985TIP3   OH230445   4.457   3.430  16.510  0.5514  0.2625  0.0519
 2985TIP3    H130446   4.530   3.486  16.537  0.0817  0.3596  1.1911
 2985TIP3    H230447   4.465   3.352  16.565  0.5393 -0.2994 -0.7268
 2986TIP3   OH230448   3.697   1.293  11.104 -0.2879 -0.0376 -0.2561
 2986TIP3    H130449   3.622   1.239  11.080 -0.4902  0.3673 -0.5449
 2986TIP3    H230450   3.696   1.365  11.042  1.7090 -1.2082 -1.7783
 2987TIP3   OH230451   0.246   3.214  13.406 -0.2070  0.3186 -0.5983
 2987TIP3    H130452   0.203   3.245  13.485  0.3920  1.1541 -0.5884
 2987TIP3    H230453   0.323   3.165  13.437  0.5499  1.4346 -0.6628
 2988TIP3   OH230454   0.159   2.893   6.045 -0.2476  0.3336  0.0228
 2988TIP3    H130455   0.251   2.917   6.053 -0.2110  0.5134 -0.8767
 2988TIP3    H230456   0.158   2.798   6.057  0.0677  0.3205 -0.0481
 2989TIP3   OH230457   2.503   6.044  13.039 -0.3805 -0.6231  0.0345
 2989TIP3    H130458   2.559   5.970  13.063 -0.0883 -0.7321 -0.9407
 2989TIP3    H230459   2.430   6.039  13.101  1.1028  0.0721  1.9473
 2990TIP3   OH230460   6.298   6.294   2.313  0.5156  1.0199 -0.1567
 2990TIP3    H130461   6.342   6.208   2.316 -1.4699 -0.0259  0.6938
 2990TIP3    H230462   6.205   6.273   2.308 -0.1219  3.1114  1.6324
 2991TIP3   OH230463   2.893   6.484   1.974 -0.7729 -0.5769  0.1985
 2991TIP3    H130464   2.988   6.498   1.978 -0.6739 -0.9809 -0.5983
 2991TIP3    H230465   2.875   6.469   1.881 -1.6223 -0.4883  0.3443
 2992TIP3   OH230466   3.496   4.693   5.641  0.1707 -0.0466  0.2444
 2992TIP3    H130467   3.475   4.600   5.632  1.3103 -0.2299 -0.8082
 2992TIP3    H230468   3.575   4.705   5.588 -0.3250  1.6573 -0.1765
 2993TIP3   OH230469   0.065   0.483   0.668  0.1048 -0.8097 -0.2453
 2993TIP3    H130470   0.104   0.505   0.584  0.8042  1.3815  0.5807
 2993TIP3    H230471   0.137   0.486   0.730 -0.3852 -2.4650  0.4795
 2994TIP3   OH230472   4.422   0.165  14.870  0.1230  0.0703  0.0736
 2994TIP3    H130473   4.413   0.072  14.852 -1.1441  0.5075 -1.8977
 2994TIP3    H230474   4.348   0.186  14.927 -0.7022  0.1718 -0.9926
 2995TIP3   OH230475   5.363   6.029  12.369  0.5518 -0.2713  0.5284
 2995TIP3    H130476   5.338   6.035  12.461  1.1328 -0.8559  0.7255
 2995TIP3    H230477   5.424   5.956  12.365  0.9982  0.1350 -0.2252
 2996TIP3   OH230478   4.236   0.773  12.945  0.0467  0.1496 -0.0865
 2996TIP3    H130479   4.159   0.731  12.983 -0.2694  0.0893 -0.7682
 2996TIP3    H230480   4.306   0.758  13.009 -0.5804  0.5038  0.6968
 2997TIP3   OH230481   6.392   4.973  10.848 -0.6944  0.2136 -0.1438
 2997TIP3    H130482   6.359   4.912  10.915 -1.4800  0.8130  0.0381
 2997TIP3    H230483   6.416   4.917  10.774  0.9564 -0.5436  0.9095
 2998TIP3   OH230484   4.538   4.195  11.879  0.4318 -0.0760  0.3600
 2998TIP3    H130485   4.517   4.191  11.972  0.0235  0.2937  0.2843
 2998TIP3    H230486   4.454   4.203  11.835  0.5382 -1.4033 -0.1209
 2999TIP3   OH230487   1.708   2.995  10.601 -0.0943 -0.2598  0.0953
 2999TIP3    H130488   1.696   3.090  10.606 -0.0551 -0.2623  0.2161
 2999TIP3    H230489   1.802   2.982  10.591 -0.0220 -0.3211  0.8356
 3000TIP3   OH230490   1.926   5.863  15.318 -0.0433  0.0287 -0.5711
 3000TIP3    H130491   1.944   5.915  15.397  1.6904 -2.2192  0.6443
 3000TIP3    H230492   2.011   5.829  15.292 -1.0670 -2.2296 -1.2321
 3001TIP3   OH230493   0.435   4.264  14.795 -0.4583 -0.1756  0.1943
 3001TIP3    H130494   0.456   4.236  14.885 -1.2206  0.8572  0.7127
 3001TIP3    H230495   0.353   4.219  14.775 -0.4227 -0.2016  0.1073
 3002TIP3   OH230496   1.107   3.627   3.184  0.2170  0.1241 -0.0430
 3002TIP3    H130497   1.085   3.716   3.157  0.0494 -0.0253 -0.4011
 3002TIP3    H230498   1.198   3.633   3.212 -0.1236  0.6373  0.9807
 3003TIP3   OH230499   1.737   5.815  11.270  0.3407 -0.3903  0.4463
 3003TIP3    H130500   1.706   5.734  11.309  0.1011 -1.8364 -2.4603
 3003TIP3    H230501   1.831   5.799  11.255  0.0151 -0.8009 -1.4392
 3004TIP3   OH230502   0.280   4.802   1.997 -0.1564  0.6145 -0.1563
 3004TIP3    H130503   0.223   4.837   1.929 -1.5508 -2.0974 -0.5606
 3004TIP3    H230504   0.229   4.730   2.035  1.4142  0.7219  2.3502
 3005TIP3   OH230505   0.180   0.813   4.638 -0.8337 -0.9374 -0.2315
 3005TIP3    H130506   0.274   0.830   4.637 -1.0665  0.4620  0.4214
 3005TIP3    H230507   0.174   0.717   4.645  0.5275 -1.0914 -0.8300
 3006TIP3   OH230508   0.641   6.711  15.997 -0.1356 -0.2378  0.3545
 3006TIP3    H130509   0.617   6.643  16.060 -0.3713  0.5022  1.0842
 3006TIP3    H230510   0.617   6.675  15.912  0.3772 -1.3369  0.6632
 3007TIP3   OH230511   2.464   5.453  14.987  0.3180  0.3315 -0.3536
 3007TIP3    H130512   2.544   5.491  14.952 -0.0160  0.2460 -1.2546
 3007TIP3    H230513   2.487   5.363  15.010  0.7496  0.6355  0.4391
 3008TIP3   OH230514   5.130   6.321   2.286 -0.0626  0.1760 -0.2169
 3008TIP3    H130515   5.082   6.297   2.207  1.7065 -0.8750 -1.0518
 3008TIP3    H230516   5.066   6.316   2.356 -1.1207 -1.3721 -1.2410
 3009TIP3   OH230517   1.003   2.068   3.039  0.7034  0.3972  0.1131
 3009TIP3    H130518   0.920   2.113   3.022  0.7188 -0.0709 -1.3837
 3009TIP3    H230519   1.067   2.117   2.986  0.6236 -1.6215 -2.0161
 3010TIP3   OH230520   1.078   1.506   0.066  0.2236  0.0186 -0.7676
 3010TIP3    H130521   0.993   1.545   0.088  0.2572  0.1016 -0.7882
 3010TIP3    H230522   1.055   1.430   0.011  0.0611 -0.9002  0.5285
 3011TIP3   OH230523   5.268   1.544   5.781  0.0093 -0.8561 -0.3817
 3011TIP3    H130524   5.183   1.509   5.756  0.6436 -1.4366 -1.8480
 3011TIP3    H230525   5.263   1.638   5.762 -1.7332  0.0807  3.6600
 3012TIP3   OH230526   5.853   4.092  16.633 -0.3254 -0.0623 -0.3130
 3012TIP3    H130527   5.872   4.095  16.726  0.5487 -2.1059 -0.3812
 3012TIP3    H230528   5.878   4.178  16.600  0.7682  0.1744  1.0730
 3013TIP3   OH230529   4.214   5.135   2.875  0.3137 -0.6877 -0.0589
 3013TIP3    H130530   4.177   5.047   2.868 -0.3460 -0.5290  1.0865
 3013TIP3    H230531   4.216   5.168   2.785 -1.5455 -1.0432 -0.2815
 3014TIP3   OH230532   6.746   0.214   5.317  0.5115 -0.1330 -0.6069
 3014TIP3    H130533   6.744   0.118   5.317 -1.6429 -0.1224 -0.8117
 3014TIP3    H230534   6.760   0.237   5.225 -1.8542 -0.2830 -1.0581
 3015TIP3   OH230535   6.861   3.001  16.663  0.3002 -0.4864 -0.4195
 3015TIP3    H130536   6.905   2.953  16.593 -0.8765  0.5141 -1.8806
 3015TIP3    H230537   6.775   3.023  16.628  0.0289  0.8647  0.9749
 3016TIP3   OH230538   3.758   0.453  11.569  0.1339  0.0886  0.1397
 3016TIP3    H130539   3.736   0.498  11.651  1.1635  0.7714  0.0692
 3016TIP3    H230540   3.809   0.518  11.519  1.9512 -1.2303  0.1632
 3017TIP3   OH230541   1.796   3.649  14.665 -0.2924  0.0686  0.1049
 3017TIP3    H130542   1.775   3.628  14.756 -0.0853 -1.4005 -0.1580
 3017TIP3    H230543   1.717   3.689  14.630 -0.6393 -0.0741  0.7198
 3018TIP3   OH230544   0.072   6.753   5.857  0.3206  0.2250 -0.2487
 3018TIP3    H130545   0.048   6.789   5.942 -0.0738  2.0401 -1.0806
 3018TIP3    H230546   0.161   6.718   5.870  0.4956  1.0065  0.7441
 3019TIP3   OH230547   2.215   2.477   5.503  0.0625 -0.4832  0.2463
 3019TIP3    H130548   2.145   2.540   5.522  0.0239 -0.2002 -0.7499
 3019TIP3    H230549   2.223   2.424   5.582 -1.7839 -0.9997  0.1288
 3020TIP3   OH230550   5.104   2.866  14.611 -0.3383 -0.6513 -0.0665
 3020TIP3    H130551   5.131   2.934  14.549 -0.3148 -0.4493  0.1577
 3020TIP3    H230552   5.174   2.866  14.677 -0.3917 -0.8217 -0.0098
 3021TIP3   OH230553   2.588   0.176  16.933  0.4338 -0.8284 -0.0080
 3021TIP3    H130554   2.665   0.163  16.988 -0.2052 -2.7958  0.5008
 3021TIP3    H230555   2.617   0.154  16.845  1.3374  1.8814 -0.4767
 3022TIP3   OH230556   0.528   5.672  10.321 -0.0609 -0.0915  0.6090
 3022TIP3    H130557   0.605   5.676  10.264 -1.1535 -0.5151 -0.9659
 3022TIP3    H230558   0.520   5.761  10.356  2.9725 -0.7511  3.4567
 3023TIP3   OH230559   5.524   4.711  15.342 -0.4407 -0.2731  0.3212
 3023TIP3    H130560   5.601   4.753  15.303 -0.4285 -1.5940 -1.1807
 3023TIP3    H230561   5.454   4.724  15.278 -0.2784 -2.9913 -0.5076
 3024TIP3   OH230562   2.977   6.011   4.081  0.2557 -0.4932 -0.4646
 3024TIP3    H130563   3.046   5.987   4.019 -0.3828  0.4018 -1.5501
 3024TIP3    H230564   3.015   6.081   4.133  0.3001 -0.2442 -0.8276
 3025TIP3   OH230565   4.839   1.379   4.386  0.4604 -0.7963 -0.7628
 3025TIP3    H130566   4.923   1.338   4.409  1.4581  0.7586 -1.4750
 3025TIP3    H230567   4.790   1.379   4.468  1.1865 -1.6247 -0.3022
 3026TIP3   OH230568   4.263   3.900  15.914 -0.0773  0.5610  0.2107
 3026TIP3    H130569   4.205   3.849  15.970 -0.7263  1.2926  0.2221
 3026TIP3    H230570   4.344   3.907  15.964  0.4251 -1.3766 -0.2647
 3027TIP3   OH230571   0.422   4.923  11.458 -0.5828 -0.0789  0.3131
 3027TIP3    H130572   0.501   4.976  11.466  0.0121 -0.4022 -2.3691
 3027TIP3    H230573   0.440   4.845  11.511  0.0229  0.7663  1.3766
 3028TIP3   OH230574   4.068   6.799   1.637  0.1349  0.2664 -0.4309
 3028TIP3    H130575   4.160   6.823   1.628  0.8887 -1.6657  1.3639
 3028TIP3    H230576   4.053   6.733   1.570  0.2430  0.1064 -0.2975
 3029TIP3   OH230577   2.772   0.095  16.742  0.1798 -0.4369 -0.0858
 3029TIP3    H130578   2.783   0.002  16.727  1.5811 -0.4674  0.8922
 3029TIP3    H230579   2.848   0.120  16.796 -0.1529  1.2587 -0.3299
 3030TIP3   OH230580   1.820   4.044   3.837 -0.8307  0.2501 -0.4869
 3030TIP3    H130581   1.811   4.004   3.923 -0.9591  0.2958 -0.4791
 3030TIP3    H230582   1.877   3.984   3.788  0.5879  1.0365  0.1370
 3031TIP3   OH230583   6.568   3.725   6.165 -0.0405  0.7147 -0.2193
 3031TIP3    H130584   6.656   3.720   6.202 -0.5886 -4.3787  1.1566
 3031TIP3    H230585   6.510   3.731   6.241 -0.9907  1.3247 -0.9604
 3032TIP3   OH230586   1.005   0.881   1.914  0.2573 -0.1819  0.9255
 3032TIP3    H130587   0.948   0.808   1.890  0.7197  0.3752 -2.1804
 3032TIP3    H230588   0.949   0.958   1.908  0.8015  0.1504 -0.1698
 3033TIP3   OH230589   4.833   2.819  16.164  0.0733 -0.1576  0.7664
 3033TIP3    H130590   4.790   2.885  16.218  0.9340 -0.0325  1.3107
 3033TIP3    H230591   4.768   2.796  16.098 -1.3269 -0.9107  2.3304
 3034TIP3   OH230592   5.811   4.387   5.285  0.4794  0.1822  0.2365
 3034TIP3    H130593   5.724   4.360   5.313  0.9642 -1.1054  0.5910
 3034TIP3    H230594   5.862   4.392   5.366  0.5525  1.7048  0.1222
 3035TIP3   OH230595   5.847   1.833   0.098  0.0114  0.1877  0.0928
 3035TIP3    H130596   5.861   1.841   0.193  0.6580 -1.6154  0.1958
 3035TIP3    H230597   5.759   1.798   0.090  0.4825 -1.0648  0.1353
 3036TIP3   OH230598   5.183   1.277  15.253  0.6423 -0.1922  0.1776
 3036TIP3    H130599   5.101   1.227  15.255  0.3289  0.2826 -0.5500
 3036TIP3    H230600   5.249   1.214  15.226  0.6661 -0.7702  1.5126
 3037TIP3   OH230601   2.535   4.718  11.678 -0.0808 -0.3717  0.3927
 3037TIP3    H130602   2.560   4.655  11.746 -0.2562 -0.8415  0.0326
 3037TIP3    H230603   2.617   4.762  11.654  0.5614 -2.2048 -1.0901
 3038TIP3   OH230604   6.715   3.657   0.207 -0.3433  0.1889 -0.6766
 3038TIP3    H130605   6.772   3.731   0.186  0.1072  0.6437  1.8604
 3038TIP3    H230606   6.771   3.580   0.195 -0.5929  0.2472 -2.5813
 3039TIP3   OH230607   6.243   0.840  15.398 -0.1928 -0.1760  0.2324
 3039TIP3    H130608   6.293   0.897  15.340 -0.7847  0.0970 -0.0143
 3039TIP3    H230609   6.256   0.752  15.363  0.7798 -0.2193  0.6544
 3040TIP3   OH230610   3.369   2.028   1.890  0.3215  0.3220 -0.0414
 3040TIP3    H130611   3.355   2.052   1.798 -1.0067 -0.6280 -0.1314
 3040TIP3    H230612   3.282   2.002   1.921  0.5055  1.8179  1.8688
 3041TIP3   OH230613   0.298   1.035  11.382  0.1907  0.0516  0.2585
 3041TIP3    H130614   0.238   1.073  11.446 -1.8573  0.8633 -1.9733
 3041TIP3    H230615   0.328   0.953  11.423 -1.0227  0.5250  2.2126
 3042TIP3   OH230616   1.793   1.899  16.102  0.2039  0.3898 -0.4172
 3042TIP3    H130617   1.770   1.987  16.133 -0.4630 -0.1860  0.8309
 3042TIP3    H230618   1.738   1.885  16.025 -0.1144  0.8555 -0.2805
 3043TIP3   OH230619   2.623   6.851  14.032 -0.5046  0.4266 -0.1147
 3043TIP3    H130620   2.661   6.872  13.947  1.9253  1.1412  1.0490
 3043TIP3    H230621   2.661   6.766  14.055 -0.9361  0.3625  0.3787
 3044TIP3   OH230622   0.591   5.514  14.458 -0.1332 -0.4506  0.3494
 3044TIP3    H130623   0.617   5.603  14.436  1.2048 -0.6862  0.9248
 3044TIP3    H230624   0.501   5.507  14.426 -0.2363  1.0814  0.2506
 3045TIP3   OH230625   5.891   4.233   5.783 -0.1500  0.6913  0.7329
 3045TIP3    H130626   5.829   4.208   5.852  0.7849 -0.6876  1.1072
 3045TIP3    H230627   5.977   4.216   5.821  0.3797 -2.2198 -1.4684
 3046TIP3   OH230628   3.169   6.324   3.861 -0.0630  0.1347  0.0637
 3046TIP3    H130629   3.233   6.396   3.860  1.2960 -1.0203 -1.7999
 3046TIP3    H230630   3.084   6.369   3.860  0.6460  1.7023  2.0783
 3047TIP3   OH230631   0.887   5.341   4.387  0.1099 -0.1157 -0.5275
 3047TIP3    H130632   0.958   5.357   4.449 -0.7338  0.1848  0.3954
 3047TIP3    H230633   0.919   5.270   4.331  2.0148  1.4353 -1.5643
 3048TIP3   OH230634   2.587   4.614  13.832  0.2823  0.9150 -0.4253
 3048TIP3    H130635   2.518   4.588  13.893  0.7438 -0.2276 -0.3679
 3048TIP3    H230636   2.622   4.531  13.798  0.3173  1.5109 -1.9323
 3049TIP3   OH230637   4.142   3.324   5.479 -0.3291  0.8926 -0.0684
 3049TIP3    H130638   4.087   3.380   5.535  0.0272 -0.5176  1.7873
 3049TIP3    H230639   4.132   3.237   5.516  2.7447  0.4761  0.0409
 3050TIP3   OH230640   2.335   4.195  10.553 -0.1464  0.0075 -0.9325
 3050TIP3    H130641   2.283   4.275  10.562  0.9491  0.5968  0.6698
 3050TIP3    H230642   2.404   4.204  10.619 -1.4433 -3.4021  1.1887
 3051TIP3   OH230643   4.498   1.427  14.035 -0.0335 -0.3179  0.0574
 3051TIP3    H130644   4.492   1.484  13.959 -3.6508 -0.8914 -0.2733
 3051TIP3    H230645   4.509   1.487  14.109 -0.5449  0.5648 -0.5614
 3052TIP3   OH230646   6.440   5.665  12.263  0.0827  0.1129 -0.4459
 3052TIP3    H130647   6.466   5.610  12.190 -0.3974 -0.7880  0.0316
 3052TIP3    H230648   6.409   5.603  12.330  1.1976  0.8506  0.8161
 3053TIP3   OH230649   4.815   5.136  16.877 -0.0366  0.2240  0.3981
 3053TIP3    H130650   4.749   5.204  16.867  0.3222  0.5475  0.2030
 3053TIP3    H230651   4.852   5.124  16.790  0.0834 -0.0409  0.4813
 3054TIP3   OH230652   4.554   5.921  10.036  0.1221  0.0922 -0.1186
 3054TIP3    H130653   4.622   5.988  10.036 -0.0235  0.3098  1.7892
 3054TIP3    H230654   4.590   5.850  10.089 -0.2907 -0.7407 -0.9315
 3055TIP3   OH230655   4.931   0.715   2.356  0.1139  0.1573  0.2907
 3055TIP3    H130656   4.943   0.682   2.267  0.8682 -1.9409  1.1024
 3055TIP3    H230657   4.955   0.807   2.350 -1.4556  0.5017 -1.9868
 3056TIP3   OH230658   2.736   6.043  14.652 -0.3841  0.2187 -0.3765
 3056TIP3    H130659   2.738   6.050  14.747  1.5115 -1.6011 -0.2131
 3056TIP3    H230660   2.795   6.111  14.621 -1.6916  1.4120 -0.3589
 3057TIP3   OH230661   1.733   1.653  12.209 -0.7352 -0.6524 -0.0585
 3057TIP3    H130662   1.747   1.601  12.288  0.7947 -0.4452 -0.1635
 3057TIP3    H230663   1.819   1.657  12.168 -0.9890  1.2773 -0.4900
 3058TIP3   OH230664   2.875   3.597   0.930 -0.1708 -0.1533 -0.0461
 3058TIP3    H130665   2.940   3.656   0.970 -1.6141 -0.6095  3.2816
 3058TIP3    H230666   2.927   3.530   0.887  1.5367  1.1510 -0.1172
 3059TIP3   OH230667   2.201   4.847  11.468 -0.2869 -0.0938  0.1455
 3059TIP3    H130668   2.228   4.872  11.557 -1.0526 -1.7841  0.8952
 3059TIP3    H230669   2.106   4.846  11.472 -0.3201 -0.2662 -0.6865
 3060TIP3   OH230670   5.768   1.517  10.651  0.0301 -0.4306 -0.1696
 3060TIP3    H130671   5.764   1.454  10.579 -0.1232  0.8410 -1.3080
 3060TIP3    H230672   5.856   1.506  10.688  0.3910 -0.5769 -1.0446
 3061TIP3   OH230673   5.429   0.726  13.655  0.3282 -0.0746  0.0597
 3061TIP3    H130674   5.400   0.787  13.587  1.6076  0.5672  0.0594
 3061TIP3    H230675   5.460   0.649  13.607  2.0727  0.7314 -0.1822
 3062TIP3   OH230676   1.229   6.481  11.110 -0.3099 -0.0333  0.5665
 3062TIP3    H130677   1.175   6.453  11.036 -0.1705  0.6751  0.1884
 3062TIP3    H230678   1.172   6.537  11.162 -1.1520 -2.3222  2.2802
 3063TIP3   OH230679   1.127   4.781   6.491  0.3887  0.2233 -0.4398
 3063TIP3    H130680   1.213   4.784   6.531 -0.1970 -1.7231  1.1116
 3063TIP3    H230681   1.143   4.798   6.398  2.1579  1.8132  0.0927
 3064TIP3   OH230682   3.875   2.226   0.560  0.7082 -0.0780  0.1000
 3064TIP3    H130683   3.815   2.152   0.558  1.1345 -0.4841  1.3255
 3064TIP3    H230684   3.848   2.281   0.486  0.6070 -1.6093 -1.0439
 3065TIP3   OH230685   6.307   0.826   0.145  0.0421 -0.8381  0.1127
 3065TIP3    H130686   6.330   0.856   0.057  0.3345  1.0730  0.7970
 3065TIP3    H230687   6.230   0.877   0.169  1.3372  0.4131  1.8450
 3066TIP3   OH230688   2.219   0.682   5.748 -0.4313 -0.0044 -0.1162
 3066TIP3    H130689   2.155   0.612   5.734  0.6726 -0.6079 -2.9482
 3066TIP3    H230690   2.272   0.652   5.822 -3.8238  0.9538  2.9310
 3067TIP3   OH230691   0.294   1.517  11.496  0.2524 -0.3457  0.0873
 3067TIP3    H130692   0.245   1.572  11.558 -0.9094 -0.6195 -0.5480
 3067TIP3    H230693   0.296   1.431  11.539 -0.8208 -0.6137 -0.3543
 3068TIP3   OH230694   1.277   4.373   0.179  0.0968  0.1230 -0.0995
 3068TIP3    H130695   1.302   4.460   0.210  0.8139  0.7742 -2.3125
 3068TIP3    H230696   1.280   4.380   0.083 -1.4709 -1.8726 -0.3606
 3069TIP3   OH230697   3.533   4.352  11.917  0.3518  0.0275 -0.5315
 3069TIP3    H130698   3.576   4.269  11.941 -0.1713 -0.6239 -1.7823
 3069TIP3    H230699   3.600   4.400  11.869  0.9167  0.7006  0.8732
 3070TIP3   OH230700   5.215   3.170   2.132  0.1667 -0.2965 -0.1947
 3070TIP3    H130701   5.175   3.095   2.087 -0.0743  0.4089 -1.1730
 3070TIP3    H230702   5.223   3.237   2.065  1.3604  0.2041  0.4226
 3071TIP3   OH230703   4.354   3.911   5.703 -0.2567 -0.5397  0.3442
 3071TIP3    H130704   4.290   3.979   5.723 -0.2264 -0.3523 -0.1955
 3071TIP3    H230705   4.398   3.896   5.787 -1.3475 -1.0434  0.8570
 3072TIP3   OH230706   5.970   2.571  11.943 -0.7306  0.1579  0.6073
 3072TIP3    H130707   5.985   2.665  11.934 -1.6339  0.4390  1.7659
 3072TIP3    H230708   5.991   2.552  12.035 -3.4556 -0.1524  1.2380
 3073TIP3   OH230709   2.224   2.869   0.950  0.7161 -0.3736 -0.1249
 3073TIP3    H130710   2.200   2.933   0.882 -0.4202 -1.7085 -1.0404
 3073TIP3    H230711   2.244   2.922   1.027  2.1342  1.1983 -1.4953
 3074TIP3   OH230712   1.110   4.712   3.250 -1.0003  0.2367 -0.2561
 3074TIP3    H130713   1.195   4.720   3.206 -1.0363 -0.1264 -0.4005
 3074TIP3    H230714   1.110   4.624   3.287 -0.3711  1.0518  1.7738
 3075TIP3   OH230715   2.657   0.061   3.699 -0.5374  0.2382  0.0431
 3075TIP3    H130716   2.703   0.046   3.616 -3.0650 -4.4594 -0.8376
 3075TIP3    H230717   2.701   0.003   3.762 -3.8490 -3.1856 -0.4610
 3076TIP3   OH230718   5.016   6.388   0.805  0.0110  0.2978  0.0108
 3076TIP3    H130719   4.999   6.300   0.838 -0.8001  0.7614  0.9034
 3076TIP3    H230720   5.036   6.439   0.884  3.3469  0.3456 -0.7273
 3077TIP3   OH230721   4.566   6.207  11.998 -0.2056 -0.0828 -0.4880
 3077TIP3    H130722   4.533   6.294  12.023  3.1722  0.8957  1.1529
 3077TIP3    H230723   4.505   6.146  12.038  0.3731  1.5814  3.4128
 3078TIP3   OH230724   1.575   4.229   1.502  0.0455 -0.3597 -0.5203
 3078TIP3    H130725   1.645   4.256   1.443  0.1193 -1.6028 -1.0317
 3078TIP3    H230726   1.619   4.214   1.586 -0.1022  1.6746 -0.0158
 3079TIP3   OH230727   3.431   3.861  15.530  0.3007  0.0576 -0.1730
 3079TIP3    H130728   3.375   3.807  15.585 -0.5329  1.1386  0.0904
 3079TIP3    H230729   3.389   3.947  15.531  1.4535  0.6507 -0.7604
 3080TIP3   OH230730   2.975   6.015   2.933 -0.0205 -0.0111  0.1643
 3080TIP3    H130731   3.060   5.974   2.916 -0.0575 -0.4545  0.9890
 3080TIP3    H230732   2.911   5.949   2.907 -0.1058  0.0838  0.1334
 3081TIP3   OH230733   5.947   2.848  11.761  0.3132  0.5987  0.3134
 3081TIP3    H130734   6.019   2.908  11.782  1.5654  0.9649 -3.9506
 3081TIP3    H230735   5.885   2.902  11.711 -1.4520 -0.4422  1.2628
 3082TIP3   OH230736   5.923   1.999  13.445 -0.0622  0.0841 -0.2623
 3082TIP3    H130737   5.888   1.957  13.367  1.0955  2.4440 -2.1841
 3082TIP3    H230738   5.868   2.076  13.458  0.8951  0.7356  0.0824
 3083TIP3   OH230739   5.629   5.355   4.705 -0.4716  1.0396 -0.0706
 3083TIP3    H130740   5.556   5.357   4.767 -0.3171 -0.5112  0.1921
 3083TIP3    H230741   5.613   5.430   4.647 -2.7874  0.2226 -0.5869
 3084TIP3   OH230742   1.445   2.831   6.165 -0.2808 -0.1304  0.0894
 3084TIP3    H130743   1.358   2.794   6.182 -0.7822  0.9682 -0.0281
 3084TIP3    H230744   1.428   2.910   6.113  0.7603  0.2992  0.3805
 3085TIP3   OH230745   4.692   6.535   3.830  0.0605 -0.4782  0.6267
 3085TIP3    H130746   4.754   6.497   3.768 -0.7465  0.0091 -0.5183
 3085TIP3    H230747   4.623   6.572   3.775 -1.0508 -0.6606  1.8534
 3086TIP3   OH230748   6.513   2.614   1.939  0.0812  0.8449 -0.2979
 3086TIP3    H130749   6.421   2.595   1.956  0.3331 -0.2474 -0.0578
 3086TIP3    H230750   6.526   2.703   1.971 -0.7524  0.7911  0.2127
 3087TIP3   OH230751   5.217   0.006   2.252  0.0965 -0.0448  0.6353
 3087TIP3    H130752   5.153  -0.050   2.296 -1.6630  0.1438 -1.5104
 3087TIP3    H230753   5.278  -0.056   2.212 -1.1063 -0.4540 -0.6564
 3088TIP3   OH230754   4.284   1.851   2.526 -0.1317  0.1468  0.2584
 3088TIP3    H130755   4.329   1.883   2.604 -0.9063  0.0574  0.7487
 3088TIP3    H230756   4.250   1.765   2.551 -0.2091  0.0279 -0.2440
 3089TIP3   OH230757   6.325   1.427  15.969 -0.0194 -0.2310  0.5124
 3089TIP3    H130758   6.391   1.361  15.949  0.9434  1.1049 -1.0713
 3089TIP3    H230759   6.241   1.382  15.959  0.6269 -1.4934  0.6622
 3090TIP3   OH230760   5.404   0.012   5.093 -0.3528 -0.2721 -0.1320
 3090TIP3    H130761   5.483  -0.026   5.132  0.6710 -1.3955 -3.0416
 3090TIP3    H230762   5.433   0.047   5.009 -2.0808  3.5226  0.6085
 3091TIP3   OH230763   3.006   3.681  12.848 -0.0027  0.2766 -0.4252
 3091TIP3    H130764   2.933   3.719  12.800 -1.8285 -1.7158  0.5847
 3091TIP3    H230765   2.971   3.598  12.882  2.4885 -0.3567  0.8023
 3092TIP3   OH230766   6.697   2.757   3.470 -0.4081 -0.2055  0.6954
 3092TIP3    H130767   6.756   2.713   3.409  0.4378  1.3939  0.2982
 3092TIP3    H230768   6.615   2.709   3.462 -0.7161  0.6017 -2.6215
 3093TIP3   OH230769   3.072   4.424   1.439  0.4074 -0.3046  0.2393
 3093TIP3    H130770   3.119   4.380   1.368 -0.3319  1.4777 -1.4578
 3093TIP3    H230771   3.116   4.509   1.447 -0.3423  0.0217  1.0175
 3094TIP3   OH230772   4.360   2.390  11.601  0.0276  0.1098  0.5221
 3094TIP3    H130773   4.309   2.431  11.670  0.0282  0.8125  0.1130
 3094TIP3    H230774   4.374   2.459  11.536  0.0432 -0.5213 -0.1734
 3095TIP3   OH230775   6.519   3.756  16.925  0.6240 -0.0051 -0.2522
 3095TIP3    H130776   6.476   3.842  16.927  2.0999  0.7509  1.4478
 3095TIP3    H230777   6.455   3.696  16.963 -0.1488  0.4525 -0.7998
 3096TIP3   OH230778   4.487   0.107  13.448  0.1850  0.4723 -0.1346
 3096TIP3    H130779   4.512   0.049  13.376  3.3270  0.6903  0.6222
 3096TIP3    H230780   4.459   0.188  13.404 -1.3479 -0.5553 -1.1256
 3097TIP3   OH230781   5.186   1.191  15.842  0.0403 -0.5351 -0.0054
 3097TIP3    H130782   5.205   1.280  15.873 -0.5563 -0.4403  0.1123
 3097TIP3    H230783   5.117   1.202  15.776 -1.5846 -1.0518  1.5025
 3098TIP3   OH230784   0.521   4.988  11.132 -0.1213  0.3713 -0.2819
 3098TIP3    H130785   0.514   5.072  11.086 -1.8115  0.2812 -0.2641
 3098TIP3    H230786   0.572   5.007  11.211  0.0847  1.2281 -0.6160
 3099TIP3   OH230787   3.806   4.644  13.009 -0.2123 -0.0562 -0.3324
 3099TIP3    H130788   3.834   4.691  12.930 -1.5833 -1.9280 -2.0298
 3099TIP3    H230789   3.729   4.693  13.040 -1.8220 -1.2216 -2.2656
 3100TIP3   OH230790   3.717   1.525   0.140  0.5396  0.3183 -0.3508
 3100TIP3    H130791   3.622   1.510   0.139  0.4124  0.8253 -3.3230
 3100TIP3    H230792   3.733   1.566   0.225 -1.5529 -1.6477  1.1083
 3101TIP3   OH230793   3.907   3.268  11.639 -0.1540  0.1671  0.2438
 3101TIP3    H130794   3.860   3.191  11.670 -0.1580  0.5241  1.1508
 3101TIP3    H230795   3.843   3.339  11.644  0.0093  0.3382 -0.0643
 3102TIP3   OH230796   6.235   0.885   5.249  0.3069 -0.0721  0.1346
 3102TIP3    H130797   6.321   0.854   5.279  1.0624  0.5783 -1.2532
 3102TIP3    H230798   6.174   0.853   5.315  1.4337 -1.8103  0.4244
 3103TIP3   OH230799   6.231   3.493   1.563  0.4579 -0.3732 -0.2226
 3103TIP3    H130800   6.326   3.491   1.577  0.2164 -3.7864  2.4675
 3103TIP3    H230801   6.215   3.428   1.495  0.0850  1.5783 -2.0874
 3104TIP3   OH230802   2.471   3.128   2.080  0.1790  0.1136  0.0451
 3104TIP3    H130803   2.438   3.198   2.024  0.6286  0.9600  0.7897
 3104TIP3    H230804   2.563   3.118   2.054 -0.3855 -1.6551 -1.4562
 3105TIP3   OH230805   3.361   1.283  16.254 -0.1418 -0.7884  0.0447
 3105TIP3    H130806   3.456   1.296  16.255 -0.4490  1.9766  0.2178
 3105TIP3    H230807   3.346   1.213  16.318  1.7494 -1.3068 -0.0049
 3106TIP3   OH230808   2.610   0.123   4.456 -0.0584 -0.2402 -0.2019
 3106TIP3    H130809   2.524   0.161   4.442 -0.5016 -1.2468 -0.2735
 3106TIP3    H230810   2.638   0.158   4.541 -0.1219  0.8229 -0.6042
 3107TIP3   OH230811   4.367   3.135  14.670 -0.1758 -0.1402  0.1081
 3107TIP3    H130812   4.440   3.194  14.689 -0.5673  0.4067 -0.1037
 3107TIP3    H230813   4.380   3.109  14.579 -0.4346  0.2170 -0.0291
 3108TIP3   OH230814   4.577   6.777  14.385 -0.1443  0.1764 -0.1791
 3108TIP3    H130815   4.659   6.729  14.383 -0.5761 -0.7071  1.2047
 3108TIP3    H230816   4.575   6.827  14.304  0.5721 -1.7772 -1.4641
 3109TIP3   OH230817   5.619   0.088  10.947  0.3600 -0.3592 -0.2288
 3109TIP3    H130818   5.655   0.161  10.898  0.7941 -1.0185 -0.9100
 3109TIP3    H230819   5.670   0.012  10.919  0.1884 -0.8627  0.7574
 3110TIP3   OH230820   5.798   4.710   5.004  0.1509 -0.5347  0.2628
 3110TIP3    H130821   5.791   4.638   4.941 -0.8273  0.4379 -0.8095
 3110TIP3    H230822   5.716   4.759   4.993  0.8117  0.7729  0.9078
 3111TIP3   OH230823   3.036   3.918   2.898  0.2537 -0.2009  0.0676
 3111TIP3    H130824   3.021   3.983   2.829 -2.1608 -0.0949  0.5881
 3111TIP3    H230825   2.982   3.949   2.971  1.4825 -1.1780  1.4469
 3112TIP3   OH230826   5.476   1.794  11.971  0.3196  0.3139 -0.6619
 3112TIP3    H130827   5.415   1.773  11.900 -0.6549 -2.7292  0.9197
 3112TIP3    H230828   5.422   1.834  12.039  0.5110 -0.3571 -0.1136
 3113TIP3   OH230829   1.440   0.980  11.135  0.1302  0.3723 -0.4804
 3113TIP3    H130830   1.530   0.946  11.127 -0.0605 -0.0713 -0.7833
 3113TIP3    H230831   1.449   1.075  11.128  0.7007  0.4067  0.5737
 3114TIP3   OH230832   2.448   3.132  14.671 -0.1980  0.0610  0.2124
 3114TIP3    H130833   2.480   3.131  14.762 -0.6662  0.0137  0.3781
 3114TIP3    H230834   2.396   3.052  14.663 -1.9604  1.1059  0.5626
 3115TIP3   OH230835   4.403   0.469  15.467  0.2376 -0.0056 -0.0107
 3115TIP3    H130836   4.415   0.539  15.403 -0.6454 -0.7802 -1.0537
 3115TIP3    H230837   4.397   0.514  15.551  1.7660  1.0072 -0.4052
 3116TIP3   OH230838   5.474   6.369  14.755 -0.2771  0.3690  1.0501
 3116TIP3    H130839   5.547   6.431  14.753  0.1268 -0.1043 -0.5003
 3116TIP3    H230840   5.512   6.287  14.786 -0.4833  0.4919  1.6445
 3117TIP3   OH230841   6.644   4.836   3.403  0.3094 -0.0656  0.0609
 3117TIP3    H130842   6.684   4.779   3.338 -1.2181  0.5459 -1.4919
 3117TIP3    H230843   6.715   4.855   3.465  2.4626  1.0204 -2.5390
 3118TIP3   OH230844   4.096   6.436   5.777 -0.8572 -0.1282 -0.1348
 3118TIP3    H130845   4.081   6.350   5.818 -1.6271  0.2568  0.4104
 3118TIP3    H230846   4.133   6.489   5.848 -1.4957  0.3289 -0.1416
 3119TIP3   OH230847   4.655   2.763   5.351 -0.0842 -0.4461  0.3502
 3119TIP3    H130848   4.611   2.678   5.342 -0.5803 -0.1322 -0.4043
 3119TIP3    H230849   4.583   2.827   5.345  0.4126  0.0611 -0.3308
 3120TIP3   OH230850   3.499   5.951  13.125  0.2409 -0.0660  0.2817
 3120TIP3    H130851   3.477   5.861  13.148  0.3789  0.1136  1.1539
 3120TIP3    H230852   3.514   5.949  13.031  0.7890 -1.0754  0.3792
 3121TIP3   OH230853   4.667   6.703  15.093 -0.0869 -0.3610  0.3600
 3121TIP3    H130854   4.693   6.784  15.137  0.1435 -0.2937  0.1028
 3121TIP3    H230855   4.746   6.649  15.094 -0.3291 -0.7188  0.8268
 3122TIP3   OH230856   5.893   6.234  14.463  0.2770  0.1816 -0.2339
 3122TIP3    H130857   5.873   6.149  14.501  0.6571 -0.2332 -0.9466
 3122TIP3    H230858   5.813   6.285  14.476  0.9205  0.6220  2.5787
 3123TIP3   OH230859   3.443   6.381   3.585  0.5432  0.1150 -0.5558
 3123TIP3    H130860   3.493   6.448   3.632 -0.1321 -0.1589  0.5871
 3123TIP3    H230861   3.500   6.304   3.586  0.0155 -0.3056  1.0567
 3124TIP3   OH230862   6.502   3.299  14.700  0.5188  0.7785  0.1333
 3124TIP3    H130863   6.575   3.324  14.643  1.0804 -0.1556  0.4257
 3124TIP3    H230864   6.433   3.363  14.680  1.6642  2.1483  0.3989
 3125TIP3   OH230865   4.498   0.412   5.570 -0.5421 -0.2587  0.2626
 3125TIP3    H130866   4.444   0.338   5.598 -2.3175  0.8636 -0.0264
 3125TIP3    H230867   4.448   0.489   5.598  0.4583  0.8449 -0.8974
 3126TIP3   OH230868   6.042   3.987   4.202 -0.2165  0.3870 -0.2355
 3126TIP3    H130869   6.112   3.966   4.140  0.3967  0.0082  0.5695
 3126TIP3    H230870   5.961   3.964   4.155  0.3363 -2.8488  0.1461
 3127TIP3   OH230871   0.853   0.304  16.607 -0.2276 -0.0455  0.0841
 3127TIP3    H130872   0.886   0.296  16.518 -1.2885  0.9897 -0.4363
 3127TIP3    H230873   0.925   0.274  16.663  0.6339 -0.2294 -1.0904
 3128TIP3   OH230874   6.677   6.696  13.768  0.2896  0.6074 -0.1859
 3128TIP3    H130875   6.764   6.668  13.798 -0.5491 -0.5822  1.2727
 3128TIP3    H230876   6.629   6.614  13.757 -0.5527  1.2348 -1.3790
 3129TIP3   OH230877   4.869   2.652  13.022 -0.3886 -0.0908 -0.8147
 3129TIP3    H130878   4.911   2.666  12.937 -0.1757  1.1390 -0.5258
 3129TIP3    H230879   4.924   2.586  13.065  1.6882  1.9291 -0.1874
 3130TIP3   OH230880   6.157   4.499  10.573  0.3068  0.2441  0.3074
 3130TIP3    H130881   6.082   4.532  10.523 -1.0850 -1.0288  1.4778
 3130TIP3    H230882   6.159   4.405  10.553  0.7564  0.0261  1.3429
 3131TIP3   OH230883   3.927   3.192  12.045 -0.3864  0.1845 -0.4370
 3131TIP3    H130884   3.890   3.129  11.984 -2.0711  0.8378 -0.1572
 3131TIP3    H230885   3.926   3.146  12.130 -0.0084  0.0008 -0.5322
 3132TIP3   OH230886   6.284   0.734   5.815  0.0913  0.4609  0.2783
 3132TIP3    H130887   6.330   0.735   5.731  0.6034  0.5482  0.5530
 3132TIP3    H230888   6.213   0.797   5.805  0.8294  1.3111  0.2761
 3133TIP3   OH230889   4.714   0.566  14.760 -0.9442 -0.0137  0.1487
 3133TIP3    H130890   4.665   0.561  14.678  0.9613  2.3935 -1.2993
 3133TIP3    H230891   4.679   0.644  14.803 -0.5489 -0.1099  0.6468
 3134TIP3   OH230892   0.071   5.367  14.830  0.0925  0.0615  0.0932
 3134TIP3    H130893   0.066   5.424  14.754  0.3524 -0.7151 -0.5217
 3134TIP3    H230894  -0.020   5.354  14.856  0.0138  0.4960  0.0464
 3135TIP3   OH230895   3.183   1.046   0.918  0.3150 -0.8157  0.1396
 3135TIP3    H130896   3.104   1.073   0.965 -1.2679 -2.6223 -1.2969
 3135TIP3    H230897   3.247   1.031   0.987 -0.9782 -0.4993  1.4797
 3136TIP3   OH230898   1.080   5.086   5.183 -0.1678 -0.0049  0.1326
 3136TIP3    H130899   0.995   5.051   5.154 -0.0649 -0.1586  0.0108
 3136TIP3    H230900   1.092   5.166   5.132 -0.5176  0.3408  0.5902
 3137TIP3   OH230901   4.450   4.617   5.007  0.3063 -0.0906 -0.3269
 3137TIP3    H130902   4.506   4.695   5.002  0.7732 -0.4826 -3.3324
 3137TIP3    H230903   4.432   4.596   4.916 -0.2506 -3.2161  0.4122
 3138TIP3   OH230904   6.387   6.082  15.268 -0.1077  0.3134 -0.0853
 3138TIP3    H130905   6.299   6.050  15.248 -0.6384  2.0605 -0.7352
 3138TIP3    H230906   6.376   6.132  15.349  0.1718  0.8823 -0.3876
 3139TIP3   OH230907   0.225   5.597   3.080  0.3220 -0.4393 -0.1029
 3139TIP3    H130908   0.312   5.577   3.115  0.1590  0.6275  0.9618
 3139TIP3    H230909   0.167   5.593   3.155 -0.2471  0.6409 -0.4525
 3140TIP3   OH230910   5.126   3.672  16.357 -1.0156 -0.5132 -0.0583
 3140TIP3    H130911   5.055   3.730  16.328 -1.6363 -1.3938 -0.3540
 3140TIP3    H230912   5.088   3.624  16.431 -0.5987 -0.7373  0.0103
 3141TIP3   OH230913   1.660   0.959  15.276 -0.4736  1.4798  0.3011
 3141TIP3    H130914   1.583   0.958  15.219  0.4964  0.4152 -1.0440
 3141TIP3    H230915   1.732   0.930  15.220  0.2642 -1.2584  2.4465
 3142TIP3   OH230916   1.041   2.369  14.773 -0.0384 -0.3975  0.5655
 3142TIP3    H130917   1.111   2.316  14.813 -0.1024 -1.2092 -0.3666
 3142TIP3    H230918   0.964   2.313  14.776 -0.8262  0.6988  2.0814
 3143TIP3   OH230919   6.593   5.090  13.359  0.0737  0.0907  0.2364
 3143TIP3    H130920   6.660   5.077  13.427  0.6851 -1.1948 -0.5736
 3143TIP3    H230921   6.561   5.179  13.375  3.0894  1.4277 -0.2677
 3144TIP3   OH230922   4.808   3.115   2.666 -0.3818  0.3053 -0.7876
 3144TIP3    H130923   4.826   3.061   2.589 -0.7048 -1.3005  0.2208
 3144TIP3    H230924   4.718   3.092   2.691 -0.3571  0.9708 -0.0613
 3145TIP3   OH230925   0.601   0.075  15.154 -0.2503 -0.2419 -0.3354
 3145TIP3    H130926   0.670   0.011  15.172 -0.8944 -1.0043 -0.5101
 3145TIP3    H230927   0.615   0.100  15.063 -0.1579 -0.3236 -0.3437
 3146TIP3   OH230928   6.462   5.421  16.412 -0.0251 -0.1524  0.3577
 3146TIP3    H130929   6.469   5.402  16.506  0.3610 -0.3131  0.3001
 3146TIP3    H230930   6.532   5.370  16.372  1.8433  2.2753  0.3005
 3147TIP3   OH230931   1.834   2.936  15.893 -0.5075 -0.6072 -0.4732
 3147TIP3    H130932   1.766   2.973  15.836 -0.0115 -0.0782 -0.7361
 3147TIP3    H230933   1.859   2.855  15.850 -1.0841 -0.8885 -0.2913
 3148TIP3   OH230934   6.402   3.404  15.499 -0.1312  0.5583 -0.3293
 3148TIP3    H130935   6.357   3.424  15.417 -1.5692 -0.7236  0.0949
 3148TIP3    H230936   6.442   3.318  15.484  0.8471  0.9709 -0.1599
 3149TIP3   OH230937   5.059   2.049  16.223  0.3969 -0.4810 -0.0498
 3149TIP3    H130938   4.966   2.053  16.201  0.0400 -1.5860  1.1262
 3149TIP3    H230939   5.103   2.036  16.139 -0.4609  0.5115 -0.6681
 3150TIP3   OH230940   3.594   2.019  14.658 -0.0038 -0.0058  0.3666
 3150TIP3    H130941   3.549   2.100  14.632  1.6550  1.0013  0.5256
 3150TIP3    H230942   3.570   2.007  14.750 -2.0372 -0.9599 -0.2258
 3151TIP3   OH230943   0.950   5.649  13.737  0.1679 -0.2861  0.8150
 3151TIP3    H130944   0.856   5.647  13.719 -0.1103  2.3227  1.5678
 3151TIP3    H230945   0.958   5.610  13.824 -0.0880 -1.2921  0.4013
 3152TIP3   OH230946   4.449   1.600  13.825 -0.6072  0.1710 -0.4200
 3152TIP3    H130947   4.492   1.642  13.751 -1.6234  0.5098 -0.8465
 3152TIP3    H230948   4.388   1.667  13.858 -1.4625 -0.5915 -0.4241
 3153TIP3   OH230949   2.152   3.021   5.836  0.2333 -0.5320 -0.6297
 3153TIP3    H130950   2.178   3.113   5.834  0.1738 -0.5285 -1.7389
 3153TIP3    H230951   2.138   2.997   5.745  1.5847 -2.0342 -0.4970
 3154TIP3   OH230952   0.752   4.287  13.946 -0.6427  0.3510 -0.3010
 3154TIP3    H130953   0.734   4.201  13.984 -0.1403  0.2369 -0.3237
 3154TIP3    H230954   0.803   4.268  13.867 -3.3825  0.4220 -2.2202
 3155TIP3   OH230955   4.894   1.910   5.662  0.2579 -0.0528 -0.5542
 3155TIP3    H130956   4.932   1.939   5.745  0.8992 -0.4736 -0.6984
 3155TIP3    H230957   4.839   1.983   5.634 -4.1506 -1.6414  2.7377
 3156TIP3   OH230958   6.809   1.622  12.845  0.0358  0.5574 -0.5423
 3156TIP3    H130959   6.804   1.615  12.750 -0.5971 -0.6133 -0.4496
 3156TIP3    H230960   6.797   1.532  12.876 -0.5799  1.0285  0.6701
 3157TIP3   OH230961   5.153   3.216   5.034 -0.1377 -0.2101 -0.1459
 3157TIP3    H130962   5.057   3.216   5.027 -0.0608 -0.3567 -1.4819
 3157TIP3    H230963   5.177   3.123   5.031  0.1255 -0.1215 -1.6059
 3158TIP3   OH230964   6.048   1.330   1.777  0.0994  0.3241 -0.4372
 3158TIP3    H130965   6.068   1.406   1.722  2.8598  1.5325  1.9237
 3158TIP3    H230966   5.989   1.364   1.844 -0.5581 -0.2562 -0.7125
 3159TIP3   OH230967   1.206   3.055   3.188 -0.0333 -0.0126 -0.1272
 3159TIP3    H130968   1.217   3.054   3.283  0.9614  0.4726 -0.2235
 3159TIP3    H230969   1.165   2.971   3.167  0.3891 -0.4175  0.6574
 3160TIP3   OH230970   2.870   1.550   0.042  0.4359 -0.2937 -0.3007
 3160TIP3    H130971   2.941   1.486   0.047 -0.1529 -0.9475  0.0600
 3160TIP3    H230972   2.793   1.498   0.019 -0.2941  0.0733  1.1459
 3161TIP3   OH230973   3.059   5.763   4.631 -0.4461  0.0677  0.0277
 3161TIP3    H130974   3.014   5.796   4.553 -1.8296  1.1707  1.2445
 3161TIP3    H230975   3.136   5.819   4.640  1.4982 -1.9897 -2.2120
 3162TIP3   OH230976   3.028   2.037  13.937 -0.2282  0.6708 -0.1401
 3162TIP3    H130977   2.962   2.004  13.877  0.0101 -1.7974  0.8492
 3162TIP3    H230978   2.997   2.012  14.024  0.9418  1.4343  0.5277
 3163TIP3   OH230979   0.361   0.263  14.785 -0.1333 -0.5208  0.6498
 3163TIP3    H130980   0.297   0.333  14.768  0.6475 -0.2495 -1.4454
 3163TIP3    H230981   0.321   0.211  14.854 -1.4366  1.1189  1.1974
 3164TIP3   OH230982   2.477   0.538   4.012  0.6055  0.0365  0.1268
 3164TIP3    H130983   2.554   0.591   4.033  0.9787 -0.5585  0.2988
 3164TIP3    H230984   2.512   0.463   3.964  0.1475 -0.3002  0.3084
 3165TIP3   OH230985   0.476   1.385  10.844 -0.3654 -0.6746  0.5268
 3165TIP3    H130986   0.442   1.461  10.797  3.6291  0.6671 -0.5799
 3165TIP3    H230987   0.457   1.311  10.787 -2.6358 -0.2844  0.7109
 3166TIP3   OH230988   3.716   2.515  16.020 -0.2590 -0.4796 -0.6373
 3166TIP3    H130989   3.750   2.439  15.972 -0.0712 -1.0592  0.3790
 3166TIP3    H230990   3.699   2.481  16.108 -1.5525  0.3088 -0.5704
 3167TIP3   OH230991   0.103   5.886   5.708  0.5586  0.1347  0.2049
 3167TIP3    H130992   0.009   5.902   5.702  0.4344 -0.5781  0.2157
 3167TIP3    H230993   0.126   5.908   5.799 -0.0023 -1.7399  0.8358
 3168TIP3   OH230994   0.598   4.035  14.324  0.1191 -0.0869  0.4418
 3168TIP3    H130995   0.593   3.965  14.259 -0.6199 -1.8416  2.3015
 3168TIP3    H230996   0.689   4.063  14.322 -0.2781  1.4062 -2.7782
 3169TIP3   OH230997   0.780   6.158  12.885 -0.5461 -0.2312  0.0833
 3169TIP3    H130998   0.726   6.093  12.840 -1.4007  0.7372 -0.3325
 3169TIP3    H230999   0.847   6.106  12.929 -0.7002 -1.3333 -0.9111
 3170TIP3   OH231000   4.285   6.488  14.227  0.0687  0.2160  0.5041
 3170TIP3    H131001   4.368   6.497  14.181 -0.3918 -0.5112 -0.4958
 3170TIP3    H231002   4.247   6.407  14.193 -1.3329  0.8441  0.5032
 3171TIP3   OH231003   1.811   3.851  11.037 -0.1309  0.5638 -0.2682
 3171TIP3    H131004   1.818   3.905  11.115  0.9888 -0.6566  0.5034
 3171TIP3    H231005   1.900   3.821  11.020 -0.8521 -1.8790 -0.0488
 3172TIP3   OH231006   3.887   0.714  10.822 -0.3248  0.5868 -0.4467
 3172TIP3    H131007   3.854   0.803  10.827 -0.4606  0.6004 -1.3372
 3172TIP3    H231008   3.982   0.723  10.832 -0.0920  1.0924 -2.5485
 3173TIP3   OH231009   2.747   6.143   5.174 -0.0677 -0.3140 -0.2541
 3173TIP3    H131010   2.703   6.203   5.114  0.5670 -1.3341 -1.8178
 3173TIP3    H231011   2.744   6.186   5.259 -1.0152  1.1838 -1.0162
 3174TIP3   OH231012   0.516   0.654  16.672 -0.0520  0.4184 -0.3544
 3174TIP3    H131013   0.579   0.598  16.718 -0.4457  1.3637  1.4240
 3174TIP3    H231014   0.447   0.671  16.736 -0.8894  1.3862 -1.4722
 3175TIP3   OH231015   6.655   2.897   1.295 -0.3609  0.1297 -0.5731
 3175TIP3    H131016   6.666   2.981   1.339 -2.5052  0.0647  0.2273
 3175TIP3    H231017   6.602   2.916   1.218 -2.8389 -0.6760  0.7933
 3176TIP3   OH231018   4.077   1.513   3.155  0.5589 -0.0706 -0.1770
 3176TIP3    H131019   3.997   1.567   3.159 -0.3586 -1.3376 -0.7385
 3176TIP3    H231020   4.053   1.432   3.199  0.8306 -1.2857 -2.1479
 3177TIP3   OH231021   2.422   4.516  13.306 -0.1489 -0.1297  0.3068
 3177TIP3    H131022   2.483   4.510  13.233  0.0292  0.2968  0.4146
 3177TIP3    H231023   2.336   4.501  13.267 -0.1219  0.7124 -0.1089
 3178TIP3   OH231024   2.298   2.493  11.479  0.0277  0.4870 -0.0916
 3178TIP3    H131025   2.347   2.563  11.436 -0.1191  0.2127 -0.7148
 3178TIP3    H231026   2.209   2.502  11.446  0.1455 -0.3971 -0.6887
 3179TIP3   OH231027   1.252   5.331  13.224  0.5370 -0.3705  0.0015
 3179TIP3    H131028   1.321   5.336  13.158  0.0113 -0.3751 -0.5572
 3179TIP3    H231029   1.271   5.251  13.273  0.1996 -1.0656 -0.9869
 3180TIP3   OH231030   6.280   0.239   2.148  0.2957  0.5873 -0.1557
 3180TIP3    H131031   6.367   0.251   2.112  0.0470  0.2346 -0.8978
 3180TIP3    H231032   6.276   0.298   2.223  2.3658 -1.7996  2.0462
 3181TIP3   OH231033   4.052   4.770  15.972  0.6880 -0.0929  0.6281
 3181TIP3    H131034   4.071   4.849  16.024 -0.3860  0.1380  0.6861
 3181TIP3    H231035   3.958   4.774  15.955  1.1281  0.4619 -2.3143
 3182TIP3   OH231036   4.146   0.587  15.874 -0.3067 -0.1794  0.2916
 3182TIP3    H131037   4.126   0.494  15.885  0.6752 -0.5245 -0.6433
 3182TIP3    H231038   4.228   0.600  15.921 -2.4750  1.2628  4.2562
 3183TIP3   OH231039   2.169   0.619   6.332 -0.0245 -0.3613 -0.1462
 3183TIP3    H131040   2.219   0.558   6.385 -0.6710 -0.0136  0.8970
 3183TIP3    H231041   2.230   0.690   6.313  0.2884 -0.6109 -0.0831
 3184TIP3   OH231042   5.343   5.797  16.386 -0.1836  0.3914  0.0031
 3184TIP3    H131043   5.418   5.742  16.364 -1.0828 -0.7651 -0.2433
 3184TIP3    H231044   5.333   5.787  16.481 -0.6548 -0.3089 -0.1093
 3185TIP3   OH231045   4.418   0.376   3.680 -0.0180 -0.3250  0.1529
 3185TIP3    H131046   4.453   0.339   3.761 -0.4121  2.3746  1.6812
 3185TIP3    H231047   4.393   0.300   3.627 -1.3444 -2.2484  3.2666
 3186TIP3   OH231048   4.491   5.691  15.733 -0.3352  0.0166  0.0187
 3186TIP3    H131049   4.502   5.746  15.810 -1.3289  1.7939 -1.0234
 3186TIP3    H231050   4.396   5.692  15.717 -0.1431 -0.2536 -1.2480
 3187TIP3   OH231051   2.180   5.871   1.510  0.0532 -0.5954 -0.1643
 3187TIP3    H131052   2.106   5.910   1.556  0.5844  0.2959 -0.0496
 3187TIP3    H231053   2.257   5.910   1.551  0.5872 -1.3921 -0.3892
 3188TIP3   OH231054   1.541   5.760  11.069  0.1675  0.1115 -0.9878
 3188TIP3    H131055   1.456   5.803  11.077 -0.0065 -0.3551 -0.3254
 3188TIP3    H231056   1.593   5.796  11.141 -0.0987 -1.0455 -0.1928
 3189TIP3   OH231057   5.311   6.378  13.821 -0.4654  0.4622  0.1523
 3189TIP3    H131058   5.289   6.286  13.809  0.8876  0.1823 -0.2654
 3189TIP3    H231059   5.236   6.425  13.784 -1.1555 -0.4490  0.3435
 3190TIP3   OH231060   6.862   3.995  15.622  0.0743  0.7670 -0.8978
 3190TIP3    H131061   6.789   4.056  15.625 -2.0366 -1.4995 -2.2365
 3190TIP3    H231062   6.849   3.938  15.698  2.2845  2.1302  0.6159
 3191TIP3   OH231063   6.072   5.876  16.790 -0.0596  0.3612  0.6908
 3191TIP3    H131064   6.014   5.918  16.854 -0.0035  0.5369  0.6256
 3191TIP3    H231065   6.090   5.944  16.725 -0.1229  0.1802  0.4825
 3192TIP3   OH231066   0.507   6.188   4.517 -0.3835  0.0087 -0.8904
 3192TIP3    H131067   0.461   6.270   4.500  0.8716  0.8790 -0.2872
 3192TIP3    H231068   0.579   6.187   4.454  0.2146 -0.1095 -0.2320
 3193TIP3   OH231069   1.686   1.986   5.008  0.4854 -0.7286 -0.2124
 3193TIP3    H131070   1.697   2.049   4.936  0.3920  0.3971  0.7238
 3193TIP3    H231071   1.776   1.961   5.031  0.4995 -1.5096 -1.0483
 3194TIP3   OH231072   6.307   6.564   5.224  0.1279  0.0307 -0.0703
 3194TIP3    H131073   6.369   6.635   5.239  1.7930 -0.9801 -1.7930
 3194TIP3    H231074   6.355   6.499   5.173 -1.0109 -2.8117  2.1246
 3195TIP3   OH231075   4.171   2.690  15.103 -0.2180  0.2320 -0.7061
 3195TIP3    H131076   4.139   2.776  15.130  0.7031  0.5819 -0.6948
 3195TIP3    H231077   4.155   2.687  15.009 -0.7345  0.1945 -0.6208
 3196TIP3   OH231078   5.407   1.374   0.989 -0.1014  0.8598 -0.1812
 3196TIP3    H131079   5.354   1.454   0.992 -0.9331  0.5139 -3.1255
 3196TIP3    H231080   5.367   1.317   1.055 -0.7556  2.1080  0.5454
 3197TIP3   OH231081   6.689   1.405  13.636 -0.2625  0.1349 -0.3097
 3197TIP3    H131082   6.701   1.388  13.543  1.2252 -2.4662  0.2652
 3197TIP3    H231083   6.623   1.475  13.639  1.3157  1.9668 -3.3111
 3198TIP3   OH231084   2.506   5.553   4.684 -0.0278  0.3538 -0.1304
 3198TIP3    H131085   2.570   5.535   4.614  1.0891  0.2721  0.8904
 3198TIP3    H231086   2.553   5.609   4.746 -0.3373 -1.1602  1.5455
 3199TIP3   OH231087   3.713   0.223  11.852 -0.1912 -0.0606 -0.3634
 3199TIP3    H131088   3.676   0.141  11.819  0.9022 -0.3338 -0.9866
 3199TIP3    H231089   3.649   0.290  11.828 -1.0589 -0.7172  0.0835
 3200TIP3   OH231090   3.989   4.067   5.932  0.1228 -0.6515 -0.2333
 3200TIP3    H131091   3.914   4.079   5.874  0.6365  1.3435 -0.5764
 3200TIP3    H231092   4.055   4.127   5.897  0.6037  0.3142  2.1251
 3201TIP3   OH231093   6.069   5.163  15.079  0.1245 -0.0485  0.3965
 3201TIP3    H131094   6.148   5.127  15.039  0.6787  0.3420  1.1328
 3201TIP3    H231095   6.095   5.249  15.112 -0.2781 -0.4106  1.7228
 3202TIP3   OH231096   6.259   0.733  12.385  0.6153 -0.0942  0.0652
 3202TIP3    H131097   6.342   0.731  12.432  0.3618  0.7486  0.5708
 3202TIP3    H231098   6.275   0.791  12.310  0.6747 -0.4650 -0.2079
 3203TIP3   OH231099   5.957   1.879   5.195  0.0537  0.3563  0.5491
 3203TIP3    H131100   5.962   1.974   5.183  0.7630  0.0596 -1.9127
 3203TIP3    H231101   5.869   1.865   5.232 -1.5325  1.7357 -2.3589
 3204TIP3   OH231102   1.824   1.100  15.439  0.3003  0.0159 -0.2586
 3204TIP3    H131103   1.783   1.057  15.364  0.9031  0.9947 -1.2038
 3204TIP3    H231104   1.872   1.174  15.400  1.1797  0.1604  1.0286
 3205TIP3   OH231105   4.160   2.311   2.525 -0.4633  0.0039  0.2177
 3205TIP3    H131106   4.129   2.325   2.614  0.0299  1.7937  0.1557
 3205TIP3    H231107   4.220   2.384   2.509  0.6014 -1.1022 -1.0772
 3206TIP3   OH231108   4.099   6.840  11.042  0.0766 -0.8275 -0.6319
 3206TIP3    H131109   4.143   6.822  11.125  1.8002  2.5973 -0.6012
 3206TIP3    H231110   4.170   6.857  10.980 -0.9671  2.9625 -1.0856
 3207TIP3   OH231111   6.415   6.039   2.057  0.5555  0.0274 -0.0738
 3207TIP3    H131112   6.326   6.057   2.087  0.3001 -0.6817 -0.3821
 3207TIP3    H231113   6.432   6.105   1.991 -0.3552 -0.8022 -1.1735
 3208TIP3   OH231114   6.074   3.923  16.482  0.1013 -0.0809  0.3080
 3208TIP3    H131115   6.130   3.959  16.550  0.6820  1.8632 -1.1160
 3208TIP3    H231116   5.985   3.928  16.518  0.4558  0.3294  1.1421
 3209TIP3   OH231117   5.822   3.308  12.234  0.5678  0.3811  0.3290
 3209TIP3    H131118   5.799   3.224  12.274  0.8843 -0.2749 -0.8034
 3209TIP3    H231119   5.811   3.372  12.304 -1.6029 -0.3234  0.6966
 3210TIP3   OH231120   2.737   3.326   4.173  0.3042  0.3759  0.4825
 3210TIP3    H131121   2.748   3.230   4.174 -0.6330  0.2604  1.1946
 3210TIP3    H231122   2.826   3.360   4.165  0.6747 -0.5585  0.5017
 3211TIP3   OH231123   3.577   2.025   0.738 -0.3849  0.1900 -0.1375
 3211TIP3    H131124   3.540   2.112   0.725 -1.6234  0.0685  2.0055
 3211TIP3    H231125   3.503   1.965   0.725  0.7885 -0.7720 -3.1968
 3212TIP3   OH231126   2.458   5.201  11.665 -0.1334  0.4628 -0.0534
 3212TIP3    H131127   2.490   5.165  11.748  1.1573  0.5731 -0.4746
 3212TIP3    H231128   2.470   5.130  11.602 -0.8315  0.4818 -0.2149
 3213TIP3   OH231129   4.752   0.694   0.258 -0.0276  0.0852  0.4523
 3213TIP3    H131130   4.669   0.697   0.306 -0.9936  2.0754 -1.1818
 3213TIP3    H231131   4.771   0.785   0.238  1.6468 -0.4837 -0.7481
 3214TIP3   OH231132   5.764   4.255   4.202 -0.1554  0.3161  0.1732
 3214TIP3    H131133   5.701   4.213   4.145  0.2797 -0.7390  0.4539
 3214TIP3    H231134   5.815   4.312   4.144 -2.2044  2.2740  0.1503
 3215TIP3   OH231135   4.512   2.782  11.702 -0.4328 -0.1482  0.6898
 3215TIP3    H131136   4.561   2.700  11.690  0.1843  0.3917 -0.7804
 3215TIP3    H231137   4.522   2.828  11.618 -3.4992  0.0000  0.2838
 3216TIP3   OH231138   2.813   0.323  14.556 -0.1577  1.5858  0.2187
 3216TIP3    H131139   2.740   0.299  14.613 -1.9899  0.4758 -2.3997
 3216TIP3    H231140   2.891   0.297  14.605 -1.6233  0.3805  2.0652
 3217TIP3   OH231141   2.319   0.438   3.732 -0.4385 -0.0360  0.1899
 3217TIP3    H131142   2.288   0.485   3.809  1.2874 -0.7000  1.3442
 3217TIP3    H231143   2.293   0.347   3.748 -1.1866  0.0201 -0.6365
 3218TIP3   OH231144   4.118   5.059  13.890  0.0003 -0.2655 -0.2360
 3218TIP3    H131145   4.169   5.028  13.815  0.6075  0.9646 -0.3520
 3218TIP3    H231146   4.109   4.982  13.946  0.4398 -0.9430 -1.0733
 3219TIP3   OH231147   5.198   0.211   0.014 -0.2135 -0.1944 -0.6600
 3219TIP3    H131148   5.179   0.291  -0.035 -0.3589 -0.2402 -0.6812
 3219TIP3    H231149   5.146   0.143  -0.030 -1.6266  0.0724  0.5276
 3220TIP3   OH231150   0.273   1.999  14.605 -0.1343  0.0718 -0.3166
 3220TIP3    H131151   0.327   1.999  14.683  0.5774  0.9680 -0.7941
 3220TIP3    H231152   0.264   1.906  14.582  1.7039 -0.0817 -0.5642
 3221TIP3   OH231153   4.622   2.495  11.196 -0.4502 -0.3497 -0.2259
 3221TIP3    H131154   4.600   2.479  11.104 -0.2992  0.4488 -0.4107
 3221TIP3    H231155   4.668   2.579  11.195 -1.2938  0.1433  0.7001
 3222TIP3   OH231156   4.652   4.007  16.918 -0.0918  0.2287 -0.1400
 3222TIP3    H131157   4.580   3.960  16.960  0.0813  1.4044  1.5867
 3222TIP3    H231158   4.721   3.942  16.908 -0.1206 -0.0913  1.5166
 3223TIP3   OH231159   6.461   5.443   2.240  0.1906  0.5044 -0.8641
 3223TIP3    H131160   6.556   5.430   2.240  0.0947 -0.3294 -0.0412
 3223TIP3    H231161   6.425   5.355   2.250 -0.7325  0.6022 -2.9527
 3224TIP3   OH231162   5.644   6.350  14.178  0.1402  0.4086 -0.0894
 3224TIP3    H131163   5.660   6.400  14.258  3.6873 -3.1466  1.7540
 3224TIP3    H231164   5.705   6.387  14.114  2.3552 -0.9801  1.0992
 3225TIP3   OH231165   3.667   1.354  16.729  0.1619  0.4689  0.1495
 3225TIP3    H131166   3.608   1.290  16.770  1.8981 -0.2315  1.6962
 3225TIP3    H231167   3.645   1.351  16.636 -2.7183  0.7883  0.7189
 3226TIP3   OH231168   2.595   0.346   1.386 -0.1031  0.6293 -0.1575
 3226TIP3    H131169   2.625   0.258   1.362 -0.9860  0.3625 -0.3074
 3226TIP3    H231170   2.633   0.362   1.472  0.0497  0.0964 -0.1257
 3227TIP3   OH231171   6.048   6.210  16.316  0.0019  0.0038 -0.3615
 3227TIP3    H131172   5.989   6.261  16.261 -0.0396  1.2990  0.8189
 3227TIP3    H231173   6.006   6.124  16.323 -0.9869  0.4428 -0.7210
 3228TIP3   OH231174   5.772   3.096   5.175 -0.2520 -0.7218  0.0342
 3228TIP3    H131175   5.803   3.171   5.124 -1.9224 -0.8259 -1.2022
 3228TIP3    H231176   5.825   3.098   5.255  0.8509  0.8039 -0.6854
 3229TIP3   OH231177   1.675   3.574   1.796  0.1959 -0.0117 -0.1350
 3229TIP3    H131178   1.629   3.604   1.875 -0.4320 -2.1541  0.3664
 3229TIP3    H231179   1.619   3.602   1.724 -1.5743 -1.8914  0.4279
 3230TIP3   OH231180   4.599   5.523  13.082 -0.1189 -0.1001 -0.5376
 3230TIP3    H131181   4.518   5.548  13.039 -0.6680 -1.4595 -0.3265
 3230TIP3    H231182   4.579   5.524  13.175 -0.0304 -0.8737 -0.5045
 3231TIP3   OH231183   2.226   3.742  10.606  0.2100  0.0588  0.2674
 3231TIP3    H131184   2.143   3.754  10.560  0.4638  2.0688  0.2423
 3231TIP3    H231185   2.201   3.711  10.693 -0.3131 -2.9966 -0.8128
 3232TIP3   OH231186   1.868   3.311  12.221 -0.2110 -0.1948 -0.2048
 3232TIP3    H131187   1.835   3.319  12.132  0.7176  1.7763 -0.4297
 3232TIP3    H231188   1.945   3.369  12.224  0.2941 -0.8651  1.6365
 3233TIP3   OH231189   2.415   3.411  15.011 -0.6929  0.6114 -0.3772
 3233TIP3    H131190   2.332   3.401  14.965 -0.2522 -1.2658 -0.8592
 3233TIP3    H231191   2.407   3.494  15.057 -3.0550  0.2185  0.0453
 3234TIP3   OH231192   1.870   5.307   4.882  0.3585  0.1715 -0.2342
 3234TIP3    H131193   1.797   5.298   4.822  0.0420  1.4817 -0.0675
 3234TIP3    H231194   1.903   5.396   4.868  1.9747 -0.4042 -0.3565
 3235TIP3   OH231195   6.049   0.813   5.445  0.3736 -0.3228  0.3534
 3235TIP3    H131196   6.010   0.878   5.386 -1.4706 -1.3176  0.3933
 3235TIP3    H231197   6.004   0.827   5.529  0.6074 -1.0613  0.6090
 3236TIP3   OH231198   2.439   5.021   0.443  0.0434 -0.1083 -0.5179
 3236TIP3    H131199   2.452   4.939   0.491 -0.4879  0.1542  0.1023
 3236TIP3    H231200   2.481   5.088   0.497  1.2643 -0.0759 -1.4663
 3237TIP3   OH231201   4.146   0.295  10.891  0.2350  0.0893  0.1353
 3237TIP3    H131202   4.071   0.349  10.915 -0.1568 -0.8875  1.1768
 3237TIP3    H231203   4.204   0.298  10.967  1.1735  0.6528 -0.5735
 3238TIP3   OH231204   1.496   3.206   5.676 -0.4663  0.1541  0.1602
 3238TIP3    H131205   1.534   3.266   5.741 -0.1614 -0.4542  0.5591
 3238TIP3    H231206   1.570   3.181   5.621 -1.1249  2.5602 -2.0271
 3239TIP3   OH231207   4.380   0.040   3.712 -0.4128  0.8117 -0.1145
 3239TIP3    H131208   4.353   0.101   3.644 -1.5561  0.2328 -0.2121
 3239TIP3    H231209   4.353  -0.046   3.679 -0.9060  0.5096  1.0143
 3240TIP3   OH231210   5.062   3.468   3.328 -0.2517 -0.2324 -0.0792
 3240TIP3    H131211   5.069   3.404   3.257 -0.0358  0.1758 -0.4274
 3240TIP3    H231212   5.124   3.436   3.394  0.8573  0.3461 -0.8231
 3241TIP3   OH231213   3.235   0.124  15.981  0.1384 -0.3044 -0.6826
 3241TIP3    H131214   3.270   0.201  16.025 -2.0015  0.4803 -0.2422
 3241TIP3    H231215   3.232   0.148  15.889 -1.7192  0.6776 -0.3998
 3242TIP3   OH231216   3.010   1.314  11.595  0.3761 -0.0442 -0.3275
 3242TIP3    H131217   2.952   1.390  11.591 -0.6061 -0.5664  2.0617
 3242TIP3    H231218   3.091   1.344  11.555 -0.8537  1.3502 -1.9544
 3243TIP3   OH231219   0.685   5.539   2.447  0.7406  0.4699  0.3455
 3243TIP3    H131220   0.781   5.534   2.452  0.7640  0.1283 -0.3561
 3243TIP3    H231221   0.654   5.458   2.487  0.7891  0.0120 -0.5143
 3244TIP3   OH231222   0.196   1.321  16.866 -0.0108 -0.7657 -0.1656
 3244TIP3    H131223   0.249   1.261  16.815  0.9988  1.8110 -2.3730
 3244TIP3    H231224   0.109   1.281  16.869  0.4311 -1.9697 -2.1654
 3245TIP3   OH231225   4.685   2.309   1.986 -0.2113 -0.2416  0.3621
 3245TIP3    H131226   4.637   2.273   1.912  2.0449  0.0258 -1.3329
 3245TIP3    H231227   4.633   2.384   2.014 -2.2379 -1.6447  0.5379
 3246TIP3   OH231228   0.602   4.396   4.174 -0.5556 -0.2805  0.0217
 3246TIP3    H131229   0.569   4.398   4.264  0.7350  1.3004  0.5164
 3246TIP3    H231230   0.681   4.450   4.177 -0.3876 -0.3489 -2.0385
 3247TIP3   OH231231   3.897   2.285   3.837  0.4828  0.3546 -0.2226
 3247TIP3    H131232   3.880   2.379   3.831 -1.9604  0.0438  0.5397
 3247TIP3    H231233   3.966   2.276   3.902  1.1005  1.6201 -0.6737
 3248TIP3   OH231234   4.803   0.913   2.085  0.2638  0.1384  0.5741
 3248TIP3    H131235   4.844   0.859   2.018  3.1091  1.4904  1.0777
 3248TIP3    H231236   4.778   0.993   2.040  0.9959  0.5316  0.8529
 3249TIP3   OH231237   5.906   0.315  15.782 -0.1393  0.1964 -0.3998
 3249TIP3    H131238   5.986   0.354  15.745  0.9333  1.7431  3.1194
 3249TIP3    H231239   5.882   0.247  15.720  4.3183 -0.8321 -1.3472
 3250TIP3   OH231240   4.452   6.512  15.041  0.4636  0.2008 -0.2115
 3250TIP3    H131241   4.485   6.554  15.120  0.7018  1.1771 -0.8089
 3250TIP3    H231242   4.531   6.476  14.999  0.2999 -0.5860  0.1388
 3251TIP3   OH231243   3.018   5.403  12.348  0.2334  0.5507 -0.1604
 3251TIP3    H131244   3.112   5.406  12.328  0.1997  2.4549 -0.2287
 3251TIP3    H231245   3.007   5.467  12.418 -0.6963 -1.2819  1.4512
 3252TIP3   OH231246   6.590   2.439   4.114  0.2248  0.1247  0.5630
 3252TIP3    H131247   6.623   2.527   4.095 -0.3672  0.3284  0.4545
 3252TIP3    H231248   6.496   2.451   4.129 -0.4920 -0.8803 -2.3830
 3253TIP3   OH231249   6.561   0.289  10.303 -0.4660 -0.0175  0.1422
 3253TIP3    H131250   6.648   0.318  10.278 -0.0425 -0.2654  1.2670
 3253TIP3    H231251   6.507   0.368  10.300 -0.1506  0.1819 -0.3175
 3254TIP3   OH231252   2.766   3.383   1.906  0.1551 -0.5485  0.3308
 3254TIP3    H131253   2.769   3.433   1.825  1.4930 -0.8693  0.1468
 3254TIP3    H231254   2.727   3.299   1.881  1.6127 -1.0946 -0.2941
 3255TIP3   OH231255   4.984   2.526  14.239  0.1370  0.2518  0.8578
 3255TIP3    H131256   5.020   2.545  14.325 -2.9181  1.8948  1.9173
 3255TIP3    H231257   4.979   2.611  14.196 -1.5984 -0.0044  0.4793
 3256TIP3   OH231258   3.727   3.744  15.370 -0.1792 -0.3237  0.2328
 3256TIP3    H131259   3.659   3.712  15.311  0.1340 -1.0712  0.2653
 3256TIP3    H231260   3.799   3.683  15.359  0.1509 -0.0570  0.8649
 3257TIP3   OH231261   5.142   6.664  13.916  0.4058  0.5350 -0.0618
 3257TIP3    H131262   5.060   6.616  13.930  1.7450 -1.2586  2.5352
 3257TIP3    H231263   5.139   6.734  13.981  0.4913  1.1021 -0.6706
 3258TIP3   OH231264   0.672   5.100  16.591  0.2094 -0.1553 -0.1952
 3258TIP3    H131265   0.653   5.029  16.652  0.4109  0.2465  0.3417
 3258TIP3    H231266   0.705   5.171  16.646 -1.0620  0.7710 -0.5698
 3259TIP3   OH231267   6.398   3.147  14.907  0.2640 -0.5380  0.3837
 3259TIP3    H131268   6.379   3.233  14.944 -2.7016 -0.1049 -1.7766
 3259TIP3    H231269   6.434   3.166  14.821  0.0085 -1.4594  0.0696
 3260TIP3   OH231270   0.685   2.203   0.343  0.1564 -0.4945  0.0386
 3260TIP3    H131271   0.662   2.138   0.409 -0.1066 -0.4840 -0.0424
 3260TIP3    H231272   0.608   2.258   0.335  0.2108 -0.4541 -0.2297
 3261TIP3   OH231273   5.949   5.903   1.111  0.1023 -0.4882  0.1551
 3261TIP3    H131274   5.881   5.967   1.089 -0.5825 -0.5577  1.9493
 3261TIP3    H231275   6.021   5.925   1.052 -0.7943  0.7584 -0.5440
 3262TIP3   OH231276   1.766   4.787   3.604  0.4658  1.0082  0.8215
 3262TIP3    H131277   1.800   4.872   3.576  0.5962  1.1975  1.5339
 3262TIP3    H231278   1.813   4.768   3.686 -0.5556  0.8914  1.4005
 3263TIP3   OH231279   5.652   6.780  11.813  0.0922  0.7707 -0.4603
 3263TIP3    H131280   5.578   6.830  11.847  0.2444  0.4980  0.2887
 3263TIP3    H231281   5.685   6.833  11.740  0.0474  1.6083  0.1080
 3264TIP3   OH231282   2.941   3.259   1.488 -0.7982 -0.1353 -0.2760
 3264TIP3    H131283   3.035   3.242   1.497 -0.8418 -0.6184 -0.7069
 3264TIP3    H231284   2.908   3.259   1.578 -0.9068 -3.0092 -0.2237
 3265TIP3   OH231285   6.532   0.915  10.828 -0.1200  0.1380  0.2492
 3265TIP3    H131286   6.515   0.867  10.746 -0.2511  1.3543 -0.4551
 3265TIP3    H231287   6.619   0.951  10.817  0.4666 -0.9029  1.2835
 3266TIP3   OH231288   3.820   3.895   4.857  0.3167  0.3978  0.7790
 3266TIP3    H131289   3.833   3.800   4.858 -2.5236 -0.1620 -2.1908
 3266TIP3    H231290   3.764   3.912   4.933  0.7736 -0.2936  1.2826
 3267TIP3   OH231291   2.781   3.864   5.782  0.5873 -0.4435  0.2580
 3267TIP3    H131292   2.828   3.888   5.862 -0.8429 -1.8725  1.5877
 3267TIP3    H231293   2.689   3.880   5.802 -0.0710 -3.3256 -0.0674
 3268TIP3   OH231294   3.902   3.978  14.283  0.3027 -0.1508  0.1492
 3268TIP3    H131295   3.893   4.045  14.216  0.0885  0.0093  0.3378
 3268TIP3    H231296   3.988   3.996  14.323  0.2137  0.0551  0.2485
 3269TIP3   OH231297   4.193   1.021  10.890 -0.5959  0.2213 -0.1484
 3269TIP3    H131298   4.213   1.067  10.971  2.0150  0.8896 -1.0698
 3269TIP3    H231299   4.116   1.065  10.855 -0.2407  1.5860  0.7350
 3270TIP3   OH231300   3.745   0.772   1.456 -0.2058  1.0061  0.1742
 3270TIP3    H131301   3.765   0.799   1.545 -1.9095  2.2880  0.2140
 3270TIP3    H231302   3.689   0.695   1.466  0.0588  0.8148  0.1916
 3271TIP3   OH231303   6.045   3.336  13.413  0.3000  0.1331 -0.2607
 3271TIP3    H131304   5.984   3.267  13.439  0.5856 -0.7373 -1.7379
 3271TIP3    H231305   6.061   3.386  13.492 -0.5475 -1.0192  0.6730
 3272TIP3   OH231306   3.253   4.746   0.359 -0.2528  0.2772  0.5945
 3272TIP3    H131307   3.265   4.762   0.266 -2.4725  0.6265  0.3098
 3272TIP3    H231308   3.176   4.797   0.383  1.7669  2.3372  3.2795
 3273TIP3   OH231309   5.034   1.111  15.061 -0.0630  0.5436 -0.2179
 3273TIP3    H131310   4.988   1.068  15.133 -0.8093  1.2330 -0.2569
 3273TIP3    H231311   5.056   1.040  15.001  0.0189  0.0407  0.3913
 3274TIP3   OH231312   1.310   4.768   4.154  0.0842 -0.5175 -0.1028
 3274TIP3    H131313   1.311   4.727   4.067 -0.5364  0.9898 -0.8707
 3274TIP3    H231314   1.332   4.860   4.137 -1.2306  0.0746  1.1711
 3275TIP3   OH231315   2.533   0.201  13.414 -0.0948  0.0456 -0.9334
 3275TIP3    H131316   2.459   0.235  13.464  1.2407 -0.8454  1.8187
 3275TIP3    H231317   2.567   0.129  13.467  3.1017  0.8142 -1.7659
 3276TIP3   OH231318   2.149   3.136   4.048 -0.3197 -0.0671  0.0992
 3276TIP3    H131319   2.097   3.206   4.089  0.3984  0.7552 -0.3600
 3276TIP3    H231320   2.237   3.148   4.085 -0.4314 -1.4173  0.8421
 3277TIP3   OH231321   5.645   0.896   0.066 -0.2935  0.8471  0.3590
 3277TIP3    H131322   5.713   0.948   0.022  0.3174 -1.4307 -1.5754
 3277TIP3    H231323   5.665   0.806   0.043 -1.7283 -0.2574  3.0144
 3278TIP3   OH231324   2.002   1.200  16.816  0.1515 -0.0834  0.3263
 3278TIP3    H131325   1.908   1.186  16.820  0.2076 -0.4741  0.3137
 3278TIP3    H231326   2.020   1.218  16.724  0.5449 -3.4870 -0.3958
 3279TIP3   OH231327   0.361   1.582  11.059 -0.4309 -0.3879  0.2320
 3279TIP3    H131328   0.363   1.658  11.002  0.8595 -1.9454 -1.9581
 3279TIP3    H231329   0.444   1.584  11.106  0.6758 -1.5401 -1.5261
 3280TIP3   OH231330   3.467   3.129  15.167  0.3442  0.7737 -0.3447
 3280TIP3    H131331   3.435   3.124  15.077  0.3845 -0.5626 -0.2980
 3280TIP3    H231332   3.507   3.044  15.184 -3.5292 -0.7902  2.3551
 3281TIP3   OH231333   1.928   0.829  11.754 -0.2663 -0.2715  0.2251
 3281TIP3    H131334   1.849   0.807  11.703  0.0198  0.7542 -0.6974
 3281TIP3    H231335   1.979   0.748  11.754 -0.5767 -0.4811 -0.5818
 3282TIP3   OH231336   0.688   5.094  12.258 -0.2396  0.0023 -0.2621
 3282TIP3    H131337   0.753   5.071  12.191 -1.9542 -0.9736 -1.6963
 3282TIP3    H231338   0.606   5.059  12.223 -1.0225 -1.8028  2.9931
 3283TIP3   OH231339   3.976   5.596   4.817  0.2355 -0.1456  0.1537
 3283TIP3    H131340   4.071   5.608   4.820  0.3702 -1.2495  0.6979
 3283TIP3    H231341   3.948   5.601   4.908 -0.0161 -1.3023  0.1587
 3284TIP3   OH231342   0.777   0.594  15.865  0.3314 -0.4837 -0.1311
 3284TIP3    H131343   0.750   0.601  15.957  1.5329  1.2920  0.1371
 3284TIP3    H231344   0.753   0.678  15.826  0.7797 -0.8242 -1.1783
 3285TIP3   OH231345   1.377   2.180   2.312 -0.0884 -0.0286  0.1189
 3285TIP3    H131346   1.370   2.262   2.263  0.8697  0.8509  1.3592
 3285TIP3    H231347   1.298   2.178   2.366 -1.2930 -1.1443 -1.5696
 3286TIP3   OH231348   1.139   5.084  15.805 -0.2980  0.4572  0.6959
 3286TIP3    H131349   1.065   5.132  15.768  0.2986  0.8426 -0.0249
 3286TIP3    H231350   1.198   5.071  15.732 -0.3032 -1.1435  0.9555
 3287TIP3   OH231351   1.850   0.357  14.788  0.3189  0.5073  0.0298
 3287TIP3    H131352   1.809   0.321  14.867  3.1294  1.9679  2.3126
 3287TIP3    H231353   1.801   0.437  14.770 -0.7112 -0.1321 -0.1487
 3288TIP3   OH231354   2.328   0.996   2.773 -0.1971 -0.3587  0.1202
 3288TIP3    H131355   2.422   0.977   2.766  0.3124  1.5588  1.0203
 3288TIP3    H231356   2.311   1.058   2.702 -0.2456  0.9682  1.2395
 3289TIP3   OH231357   4.216   5.450   4.043 -0.0059 -0.1691 -0.0431
 3289TIP3    H131358   4.190   5.451   4.135  1.6243  2.3943  0.5160
 3289TIP3    H231359   4.245   5.540   4.026 -2.2214  0.0739 -3.6835
 3290TIP3   OH231360   1.000   0.304  12.247 -0.1251  1.1702  0.1644
 3290TIP3    H131361   1.061   0.357  12.195  2.6364 -0.6892  1.3043
 3290TIP3    H231362   1.052   0.272  12.321 -2.8313  0.3950  1.8859
 3291TIP3   OH231363   6.259   4.573   1.412 -0.1150  0.0090 -0.7367
 3291TIP3    H131364   6.235   4.529   1.330 -3.2978 -0.2371  0.1666
 3291TIP3    H231365   6.279   4.501   1.473 -1.8508 -0.1198 -0.2417
 3292TIP3   OH231366   3.232   0.294  14.262 -0.1826 -0.2384 -0.4900
 3292TIP3    H131367   3.238   0.342  14.346  1.1032  3.3231 -2.3974
 3292TIP3    H231368   3.148   0.247  14.268 -0.5775  0.6070  2.4236
 3293TIP3   OH231369   4.579   6.493  11.268 -0.2960  0.1417  0.0812
 3293TIP3    H131370   4.660   6.509  11.317  0.7309 -4.2283  0.2224
 3293TIP3    H231371   4.605   6.499  11.177  0.1209 -0.7023  0.1304
 3294TIP3   OH231372   5.951   4.846  16.264  0.4876  0.0886 -0.0080
 3294TIP3    H131373   5.999   4.921  16.228  1.2329 -1.4058 -2.4126
 3294TIP3    H231374   6.017   4.796  16.311  0.8312 -0.7828 -1.3584
 3295TIP3   OH231375   1.325   5.647   2.835  0.1810  0.3553  0.7072
 3295TIP3    H131376   1.371   5.724   2.802 -1.3458  0.8753 -0.3374
 3295TIP3    H231377   1.237   5.654   2.797  0.2573 -2.3769 -0.2216
 3296TIP3   OH231378   3.442   6.705   5.864 -0.8435  0.3461  0.3346
 3296TIP3    H131379   3.464   6.618   5.830  0.6041  1.3238 -1.3673
 3296TIP3    H231380   3.374   6.737   5.805  0.2467  1.2480 -0.4745
 3297TIP3   OH231381   5.629   6.037   3.024 -0.2580 -0.4081 -0.3353
 3297TIP3    H131382   5.598   5.951   3.053 -0.5050 -0.5022 -0.8759
 3297TIP3    H231383   5.663   6.078   3.104 -1.8123 -0.2785  0.3018
 3298TIP3   OH231384   0.424   5.951  14.529  0.2016 -0.2365  0.0944
 3298TIP3    H131385   0.496   5.992  14.576  0.1977 -0.5524  0.3807
 3298TIP3    H231386   0.366   6.023  14.506  0.4274 -0.0269  0.1811
 3299TIP3   OH231387   3.286   4.458  11.915 -0.4289 -0.2947 -0.1385
 3299TIP3    H131388   3.369   4.414  11.932 -0.6375 -0.6946 -0.1393
 3299TIP3    H231389   3.256   4.488  12.001 -0.5149 -0.5745 -0.0679
 3300TIP3   OH231390   0.618   2.361   4.618 -0.5039 -0.4414 -0.5929
 3300TIP3    H131391   0.700   2.382   4.664 -0.3778 -2.0279 -0.0416
 3300TIP3    H231392   0.550   2.375   4.683 -0.4390 -1.3939 -0.2965
 3301TIP3   OH231393   1.805   2.134  16.852 -0.1531 -0.5557  0.0265
 3301TIP3    H131394   1.810   2.047  16.814  2.2812  0.0919 -1.3267
 3301TIP3    H231395   1.807   2.119  16.947 -1.0353 -1.9862 -0.1584
 3302TIP3   OH231396   3.742   6.860   2.096  0.0938 -0.3873  0.1192
 3302TIP3    H131397   3.791   6.942   2.094  0.9950 -0.9235 -1.8120
 3302TIP3    H231398   3.726   6.839   2.003  1.1105 -3.1080  0.4760
 3303TIP3   OH231399   4.228   4.125   0.566  0.1467 -0.2341 -0.4154
 3303TIP3    H131400   4.169   4.174   0.510 -0.5804 -2.1869 -1.4282
 3303TIP3    H231401   4.315   4.141   0.530  0.2520  2.1643  0.7198
 3304TIP3   OH231402   0.706   4.814   1.006 -0.1288 -0.1922  0.6424
 3304TIP3    H131403   0.641   4.757   1.047  0.2385 -0.7497  0.4582
 3304TIP3    H231404   0.665   4.842   0.924  0.0036 -0.8432  0.3458
 3305TIP3   OH231405   3.269   4.120  13.903  0.0930 -0.0560  0.3619
 3305TIP3    H131406   3.313   4.205  13.896  0.4073 -0.3274 -1.4934
 3305TIP3    H231407   3.200   4.135  13.967  0.4422  1.4812  0.4294
 3306TIP3   OH231408   4.922   5.781  12.370  0.0262 -0.2185 -0.4557
 3306TIP3    H131409   4.987   5.828  12.319  0.4542  2.0915  2.0269
 3306TIP3    H231410   4.851   5.843  12.383 -0.1463 -0.7696  1.5577
 3307TIP3   OH231411   2.156   0.674   4.859 -0.0890  0.1391  0.2412
 3307TIP3    H131412   2.202   0.751   4.892  0.8205 -0.4300  0.3584
 3307TIP3    H231413   2.079   0.666   4.915 -0.7365  1.5238 -0.4089
 3308TIP3   OH231414   6.750   1.039   5.863  0.1420  0.0364 -0.2133
 3308TIP3    H131415   6.756   1.135   5.861 -2.7133  0.3594  0.8023
 3308TIP3    H231416   6.711   1.020   5.948 -2.4841 -1.6997 -1.6461
 3309TIP3   OH231417   0.261   6.524   4.134  0.0024  0.2410  0.5327
 3309TIP3    H131418   0.324   6.591   4.106  2.7586 -1.6226  1.8199
 3309TIP3    H231419   0.268   6.523   4.229  0.8227 -2.4516  0.5341
 3310TIP3   OH231420   1.426   5.513  11.777  0.3791 -0.6180 -0.4743
 3310TIP3    H131421   1.410   5.511  11.683 -2.2376  1.1659 -0.1666
 3310TIP3    H231422   1.345   5.480  11.815  0.9212 -0.1193  1.1805
 3311TIP3   OH231423   4.865   0.025   3.328  0.3001  0.2224 -0.3019
 3311TIP3    H131424   4.789  -0.033   3.327  0.0936  0.4744 -1.6875
 3311TIP3    H231425   4.829   0.113   3.328  0.5379  0.3559 -1.7920
 3312TIP3   OH231426   3.328   5.558   2.137  0.0488 -0.3550 -0.4162
 3312TIP3    H131427   3.408   5.511   2.110  0.5868  0.0012  0.5128
 3312TIP3    H231428   3.283   5.497   2.196  0.2830 -0.0650  0.0652
 3313TIP3   OH231429   6.613   6.651  13.265  0.0361  0.9344 -0.6062
 3313TIP3    H131430   6.613   6.645  13.169 -0.1955  2.0174 -0.6870
 3313TIP3    H231431   6.676   6.720  13.284 -0.4208  1.1930 -0.0157
 3314TIP3   OH231432   5.317   3.191   0.939 -0.2780 -0.3579  0.1584
 3314TIP3    H131433   5.412   3.183   0.940 -0.3545 -1.5326 -0.0719
 3314TIP3    H231434   5.286   3.106   0.971 -1.2476 -0.1624 -0.2271
 3315TIP3   OH231435   5.975   4.430   1.642 -0.5903  0.1189  0.0529
 3315TIP3    H131436   5.964   4.504   1.582  0.7037 -0.7655 -1.3472
 3315TIP3    H231437   5.913   4.364   1.610 -2.4944  0.8648  1.9117
 3316TIP3   OH231438   3.770   5.002   3.411 -0.1504  0.0301 -0.2394
 3316TIP3    H131439   3.842   4.942   3.430 -0.9591 -0.5096  1.3166
 3316TIP3    H231440   3.793   5.083   3.456 -0.2920  0.0042 -0.1174
 3317TIP3   OH231441   1.239   0.558   2.710 -0.6707  0.4049  0.8354
 3317TIP3    H131442   1.179   0.540   2.638 -0.5794  0.3942  0.7621
 3317TIP3    H231443   1.192   0.529   2.789  0.2125 -2.0062  0.5707
 3318TIP3   OH231444   5.839   2.368  13.316 -0.9785  0.0214  0.4189
 3318TIP3    H131445   5.826   2.352  13.223  0.9214  0.8162 -0.0329
 3318TIP3    H231446   5.824   2.462  13.326  1.5107  0.4918  0.3293
 3319TIP3   OH231447   1.541   3.431  12.687 -0.1266  0.4555 -0.3040
 3319TIP3    H131448   1.625   3.391  12.709 -0.5932 -1.1599 -1.2155
 3319TIP3    H231449   1.481   3.400  12.756 -0.1814  0.8254 -0.1834
 3320TIP3   OH231450   0.856   5.444  15.349 -0.2944 -0.5266 -0.1422
 3320TIP3    H131451   0.866   5.364  15.298  0.3471 -0.2666 -0.4380
 3320TIP3    H231452   0.911   5.509  15.303  2.1313 -0.8373  2.0668
 3321TIP3   OH231453   3.772   5.045  16.485 -0.0497  0.5255  0.1183
 3321TIP3    H131454   3.705   5.095  16.532  0.2861  0.0183  1.1753
 3321TIP3    H231455   3.743   4.954  16.492 -0.1037  0.4562 -0.8651
 3322TIP3   OH231456   0.714   1.570   5.636  0.6039 -0.2781 -0.2311
 3322TIP3    H131457   0.737   1.655   5.598  0.5067 -0.3645 -0.4830
 3322TIP3    H231458   0.796   1.521   5.634  0.6847 -0.1559  0.0093
 3323TIP3   OH231459   5.660   4.216  11.967 -0.1486 -0.1936  0.6609
 3323TIP3    H131460   5.666   4.298  11.918 -0.4570  0.2294  1.3219
 3323TIP3    H231461   5.686   4.239  12.056  2.6339 -1.4052  0.2864
 3324TIP3   OH231462   5.617   2.747  14.418  0.3184  0.0760  0.1724
 3324TIP3    H131463   5.641   2.805  14.490  0.5354  0.3248 -0.0982
 3324TIP3    H231464   5.697   2.739  14.366 -0.1822  0.9597 -0.7734
 3325TIP3   OH231465   3.646   1.950   1.795  0.0019  0.5897  0.3687
 3325TIP3    H131466   3.704   1.882   1.828  0.3641  1.2486  1.1144
 3325TIP3    H231467   3.567   1.943   1.849  0.8940  2.1709  1.9610
 3326TIP3   OH231468   6.421   2.101  12.714 -0.2530 -0.2104 -0.0833
 3326TIP3    H131469   6.490   2.049  12.756 -0.9255  0.2536  1.6665
 3326TIP3    H231470   6.347   2.041  12.708 -0.0027 -0.4364 -1.1480
 3327TIP3   OH231471   5.267   0.914   2.247 -0.1747  0.1266 -0.0804
 3327TIP3    H131472   5.318   0.879   2.174  2.1241 -0.5147  1.7097
 3327TIP3    H231473   5.176   0.914   2.215  0.3761 -2.5672 -2.0330
 3328TIP3   OH231474   0.937   5.054   1.301  0.1658  0.4914 -0.0305
 3328TIP3    H131475   0.933   5.088   1.390 -1.0535  2.9055 -0.9153
 3328TIP3    H231476   1.029   5.031   1.288  0.2146 -0.7581  2.0802
 3329TIP3   OH231477   0.156   4.015   3.244  0.2836  0.0833  0.6538
 3329TIP3    H131478   0.095   4.065   3.298  1.2034  0.6741  1.1699
 3329TIP3    H231479   0.240   4.060   3.254  1.2017 -1.6527  1.2785
 3330TIP3   OH231480   4.813   1.258  16.854  0.6884  0.2589 -0.9327
 3330TIP3    H131481   4.850   1.188  16.801 -1.3501 -1.5469 -0.1087
 3330TIP3    H231482   4.730   1.279  16.811 -0.4336 -0.4085  0.8129
 3331TIP3   OH231483   1.363   1.959  11.363  0.0891 -0.1321  0.6325
 3331TIP3    H131484   1.307   1.997  11.296  0.4372  1.0783  1.0056
 3331TIP3    H231485   1.340   2.007  11.443  1.1071 -0.1472  0.9447
 3332TIP3   OH231486   6.642   6.283  10.852 -0.2041 -0.1024 -0.0252
 3332TIP3    H131487   6.634   6.371  10.815 -1.5178 -0.0218  0.4119
 3332TIP3    H231488   6.723   6.248  10.814  0.4148  1.3419 -0.0802
 3333TIP3   OH231489   5.728   2.276   0.472 -0.2110  0.4767  0.7528
 3333TIP3    H131490   5.731   2.223   0.552 -1.0934 -1.5363 -0.4628
 3333TIP3    H231491   5.639   2.309   0.468 -0.9420 -1.4702 -0.5614
 3334TIP3   OH231492   4.335   4.145   1.523 -0.0294 -0.2689  0.0372
 3334TIP3    H131493   4.401   4.075   1.529 -1.8372 -2.1796 -1.0816
 3334TIP3    H231494   4.267   4.118   1.585 -0.2476  1.1782  0.4692
 3335TIP3   OH231495   1.834   0.355  16.716  0.0881  0.4633 -0.1314
 3335TIP3    H131496   1.782   0.411  16.657  1.4501  2.1039  0.1476
 3335TIP3    H231497   1.900   0.414  16.753  0.0750 -0.8110  2.0763
 3336TIP3   OH231498   1.628   6.469  12.108  0.2841  0.1458  0.4054
 3336TIP3    H131499   1.690   6.418  12.056  0.5580  0.6207  0.2601
 3336TIP3    H231500   1.577   6.517  12.043  0.6814  0.8021  0.5690
 3337TIP3   OH231501   2.668   5.598   3.184  0.2289  0.2002 -0.2260
 3337TIP3    H131502   2.638   5.677   3.229  3.0603  0.5961  1.2355
 3337TIP3    H231503   2.690   5.537   3.254 -0.1632 -1.1882 -1.2821
 3338TIP3   OH231504   3.011   6.287   1.742 -0.3018  0.0883 -0.0371
 3338TIP3    H131505   2.982   6.211   1.792  0.0836 -1.2607 -1.7800
 3338TIP3    H231506   2.933   6.317   1.695 -0.2393  0.1854 -0.0803
 3339TIP3   OH231507   4.328   3.311  15.175  0.0501 -0.2190 -0.1205
 3339TIP3    H131508   4.365   3.293  15.089  1.8779  0.0189  0.5685
 3339TIP3    H231509   4.357   3.400  15.196 -0.8232 -0.0726  0.5169
 3340TIP3   OH231510   2.283   4.655  12.769 -0.2039  0.1372 -0.1718
 3340TIP3    H131511   2.311   4.623  12.855  0.0865 -0.1080 -0.3534
 3340TIP3    H231512   2.278   4.750  12.779  1.9151  0.3249 -0.4574
 3341TIP3   OH231513   0.155   0.175   0.385  1.3791  0.4810  0.2941
 3341TIP3    H131514   0.200   0.210   0.462  0.3266 -0.4045  1.3487
 3341TIP3    H231515   0.148   0.081   0.402  0.9879  0.2970 -0.8141
 3342TIP3   OH231516   3.832   0.230   4.435  0.2045  0.0655  0.1373
 3342TIP3    H131517   3.855   0.291   4.505  0.6652  0.4963 -0.3756
 3342TIP3    H231518   3.750   0.190   4.464  1.0343 -0.7105  1.5055
 3343TIP3   OH231519   2.047   6.418  16.382 -0.2619  0.4033 -0.5015
 3343TIP3    H131520   2.061   6.449  16.471  1.7269 -1.9746  0.1135
 3343TIP3    H231521   2.053   6.497  16.328 -1.8936  1.9399  1.4257
 3344TIP3   OH231522   4.153   3.099  11.595  0.0307 -0.6278 -0.4497
 3344TIP3    H131523   4.115   3.186  11.583 -2.0876 -1.4509 -0.1114
 3344TIP3    H231524   4.227   3.113  11.654 -0.5474  0.8834 -0.0359
 3345TIP3   OH231525   5.303   4.004   2.039 -0.1961  0.0405  0.9495
 3345TIP3    H131526   5.362   3.954   2.096  1.4222 -0.0942 -0.7628
 3345TIP3    H231527   5.281   4.081   2.090  0.2027 -0.6578  2.2314
 3346TIP3   OH231528   5.652   1.446   5.475 -0.7053  0.5341  0.4131
 3346TIP3    H131529   5.630   1.370   5.528 -0.6802  0.8395  0.8653
 3346TIP3    H231530   5.743   1.430   5.448 -1.1835 -0.3392 -0.7943
 3347TIP3   OH231531   6.723   3.224   4.331  0.2908 -0.2518  0.5521
 3347TIP3    H131532   6.761   3.158   4.389  1.1162 -1.4291 -1.2411
 3347TIP3    H231533   6.629   3.219   4.348  0.3234 -1.9617  0.4187
 3348TIP3   OH231534   1.280   0.280   0.195 -0.2363  0.1392 -0.0927
 3348TIP3    H131535   1.244   0.282   0.283 -1.3067  0.6020 -0.5177
 3348TIP3    H231536   1.286   0.187   0.172 -0.7003  0.0449  0.1713
 3349TIP3   OH231537   1.543   3.020  12.761  0.4911 -0.1893 -0.4751
 3349TIP3    H131538   1.515   2.974  12.682  0.4822  0.1066 -0.6458
 3349TIP3    H231539   1.465   3.024  12.816  0.6550 -0.9558 -0.1765
 3350TIP3   OH231540   4.071   2.836  11.700  0.0044  0.0704 -0.3311
 3350TIP3    H131541   4.077   2.926  11.667 -1.4832  0.0188 -0.8481
 3350TIP3    H231542   4.125   2.785  11.639 -0.8363  0.3344 -1.3489
 3351TIP3   OH231543   3.966   6.872   1.222  0.3865 -0.1558  0.1154
 3351TIP3    H131544   3.962   6.784   1.185  0.2151  0.5458 -1.6573
 3351TIP3    H231545   4.047   6.909   1.188 -0.1033  0.7439 -0.1142
 3352TIP3   OH231546   1.027   1.409   6.431 -0.6853 -0.4337  0.0069
 3352TIP3    H131547   1.059   1.499   6.425  0.2279 -0.7005  0.6493
 3352TIP3    H231548   0.933   1.418   6.445 -0.7387  0.4009 -0.8408
 3353TIP3   OH231549   5.928   1.979   2.216  0.8857  0.2504  0.1924
 3353TIP3    H131550   6.010   1.953   2.173  0.2585 -1.1749 -0.2018
 3353TIP3    H231551   5.882   2.031   2.150  1.1802  0.4972  0.1786
 3354TIP3   OH231552   0.150   3.585   0.417 -0.2782 -0.3930 -0.1632
 3354TIP3    H131553   0.195   3.641   0.480  0.2437 -0.2031 -0.6957
 3354TIP3    H231554   0.151   3.634   0.335 -3.2540  0.5433  0.2295
 3355TIP3   OH231555   0.085   0.443  14.373  0.2089 -0.3513 -0.4065
 3355TIP3    H131556   0.023   0.375  14.400 -0.6626  0.7208  0.3426
 3355TIP3    H231557   0.159   0.394  14.336 -0.7279 -1.6779 -0.5887
 3356TIP3   OH231558   2.941   3.135  13.756  0.0150 -0.4339  0.4866
 3356TIP3    H131559   2.851   3.103  13.749  0.0310 -0.3186 -0.4164
 3356TIP3    H231560   2.977   3.123  13.668  1.3636 -1.8645  1.1939
 3357TIP3   OH231561   2.216   4.911  12.792  0.2477 -0.4586 -0.0734
 3357TIP3    H131562   2.226   4.989  12.738  0.2736 -0.7600 -0.5136
 3357TIP3    H231563   2.142   4.931  12.850  1.9345  0.9372  1.7050
 3358TIP3   OH231564   2.899   0.217  16.529  0.3387 -0.0751 -0.2198
 3358TIP3    H131565   2.892   0.271  16.608  0.0496  0.4925 -0.6230
 3358TIP3    H231566   2.844   0.141  16.546 -0.9588  0.7766 -0.4560
 3359TIP3   OH231567   6.800   5.575   4.951 -0.1444 -0.5766  0.4121
 3359TIP3    H131568   6.811   5.526   4.870  0.7054 -1.2334  0.9126
 3359TIP3    H231569   6.718   5.542   4.988 -0.5286 -0.2853 -0.1506
 3360TIP3   OH231570   2.380   5.127  14.041  0.4289 -0.1643  0.1605
 3360TIP3    H131571   2.363   5.188  13.968  0.8447 -1.5596 -1.1485
 3360TIP3    H231572   2.453   5.167  14.088  1.7817 -0.3961 -1.6259
 3361TIP3   OH231573   6.387   0.246   1.558  0.6490 -0.5933  0.3272
 3361TIP3    H131574   6.401   0.152   1.562 -0.5617 -0.7830  0.6634
 3361TIP3    H231575   6.342   0.267   1.640  2.6011  0.6132  1.1612
 3362TIP3   OH231576   4.213   2.882   3.429 -0.4726 -0.0272 -0.7082
 3362TIP3    H131577   4.242   2.800   3.469  0.1646  1.4187  2.1260
 3362TIP3    H231578   4.119   2.887   3.450 -0.1320  0.7456  0.8253
 3363TIP3   OH231579   4.415   4.585  16.110 -0.2593  0.3536 -0.3431
 3363TIP3    H131580   4.447   4.544  16.190 -0.4653  0.7255 -0.0654
 3363TIP3    H231581   4.487   4.641  16.081 -0.9200  1.8834  0.7678
 3364TIP3   OH231582   3.493   1.378   1.946  0.5523  0.2864 -0.8495
 3364TIP3    H131583   3.449   1.331   1.875  1.8448  0.3118 -1.6848
 3364TIP3    H231584   3.501   1.468   1.913 -0.3423  0.7182  0.0342
 3365TIP3   OH231585   2.655   2.301  12.191  0.8850 -1.1024  0.6744
 3365TIP3    H131586   2.686   2.217  12.224  0.3750 -0.6954  2.2697
 3365TIP3    H231587   2.580   2.323  12.247  2.1234  1.2718  1.5161
 3366TIP3   OH231588   4.076   2.181   3.024 -0.3787  0.5495 -0.6215
 3366TIP3    H131589   4.040   2.218   3.105 -0.9420  0.2213 -0.7161
 3366TIP3    H231590   4.143   2.119   3.053 -1.9010 -1.0248 -0.2964
 3367TIP3   OH231591   1.127   6.552  15.843 -0.4538  0.2962 -0.4919
 3367TIP3    H131592   1.072   6.545  15.921 -0.1301 -0.6126 -0.3331
 3367TIP3    H231593   1.088   6.490  15.781  2.8673 -3.9742  1.1616
 3368TIP3   OH231594   4.971   1.829  16.910  0.2268 -0.2039  0.3683
 3368TIP3    H131595   4.891   1.845  16.959 -0.1122  0.5831 -0.4295
 3368TIP3    H231596   4.986   1.735  16.921 -0.7558 -0.3510  0.5938
 3369TIP3   OH231597   2.989   4.957  11.981 -0.0622 -0.0724 -0.0468
 3369TIP3    H131598   3.022   4.909  12.057 -0.9701  1.0559  1.1173
 3369TIP3    H231599   3.029   5.043  11.987 -0.8710  0.3379 -0.3032
 3370TIP3   OH231600   4.282   4.040  13.711 -0.0173 -0.1362  0.2371
 3370TIP3    H131601   4.257   4.095  13.637  2.0172  0.0107 -0.3864
 3370TIP3    H231602   4.306   4.102  13.780 -1.2029 -0.2759  0.8007
 3371TIP3   OH231603   2.805   3.450  12.207 -0.6681 -0.2082  0.2674
 3371TIP3    H131604   2.770   3.369  12.245 -0.2037 -0.9099 -0.7277
 3371TIP3    H231605   2.761   3.457  12.122 -1.6103  1.2656  0.8338
 3372TIP3   OH231606   4.507   6.027  13.132 -0.0257 -0.6504 -0.1745
 3372TIP3    H131607   4.456   5.947  13.144 -1.7530  0.2888 -0.8625
 3372TIP3    H231608   4.482   6.058  13.045 -0.3954  1.3061  0.5791
 3373TIP3   OH231609   2.340   4.627   1.563 -0.2902 -0.1887 -0.0293
 3373TIP3    H131610   2.411   4.652   1.504 -1.1132  0.5243 -0.7443
 3373TIP3    H231611   2.337   4.697   1.628  0.2952 -0.7246  0.5873
 3374TIP3   OH231612   2.943   5.023  10.936  0.5089  0.0193  0.3340
 3374TIP3    H131613   2.872   5.026  10.871  1.7264  1.1705 -1.0034
 3374TIP3    H231614   2.915   4.956  10.998 -0.4663 -1.5578 -1.6749
 3375TIP3   OH231615   0.199   3.613  10.774 -0.7038  0.3254  0.1741
 3375TIP3    H131616   0.116   3.659  10.767 -0.8232  0.5306  2.2039
 3375TIP3    H231617   0.264   3.676  10.742 -0.9673  1.6542  2.0633
 3376TIP3   OH231618   2.982   5.616  14.205  0.1406  0.1468  0.1822
 3376TIP3    H131619   3.048   5.580  14.265 -1.3734 -1.0907  1.1968
 3376TIP3    H231620   2.939   5.685  14.255  0.0668  0.3341 -0.1379
 3377TIP3   OH231621   3.801   3.543   5.904  0.2606 -0.0984 -0.4877
 3377TIP3    H131622   3.721   3.595   5.911  0.8070  0.9230 -1.4609
 3377TIP3    H231623   3.858   3.575   5.974  1.3881  2.1544 -2.2963
 3378TIP3   OH231624   6.633   2.328   3.139 -0.1635 -0.4093  0.4140
 3378TIP3    H131625   6.651   2.349   3.231  0.3589  3.0787 -0.3280
 3378TIP3    H231626   6.714   2.290   3.106 -0.1468 -1.0945  1.2233
 3379TIP3   OH231627   3.515   5.674  12.786  0.2994 -0.0039 -0.1190
 3379TIP3    H131628   3.510   5.666  12.882 -0.0437 -1.2189 -0.2200
 3379TIP3    H231629   3.595   5.627  12.763 -1.9728 -4.0894 -0.7784
 3380TIP3   OH231630   1.479   1.818  10.923 -0.3662  0.3555  0.7565
 3380TIP3    H131631   1.393   1.805  10.963 -1.4743 -1.1550 -1.8697
 3380TIP3    H231632   1.492   1.741  10.868  1.5989  1.6682 -0.7647
 3381TIP3   OH231633   1.062   0.175   3.602  0.3919  0.7121 -0.5432
 3381TIP3    H131634   1.010   0.106   3.561  1.1815  0.2467 -0.7851
 3381TIP3    H231635   1.091   0.230   3.530 -2.2553  2.8047 -0.1758
 3382TIP3   OH231636   4.893   4.933   4.186  0.3914  0.0765 -0.0368
 3382TIP3    H131637   4.912   5.022   4.217 -0.3796 -0.1038  1.0396
 3382TIP3    H231638   4.894   4.940   4.091  1.1499  1.0575  0.0249
 3383TIP3   OH231639   0.542   6.483   2.673  1.0742  0.0129 -0.4557
 3383TIP3    H131640   0.539   6.469   2.767 -0.5121 -1.8763 -0.7166
 3383TIP3    H231641   0.612   6.425   2.642  0.5372 -0.5717 -0.5908
 3384TIP3   OH231642   1.772   2.723  12.805 -0.4289  0.4610  0.4513
 3384TIP3    H131643   1.741   2.813  12.797  0.3344  0.6687 -0.4432
 3384TIP3    H231644   1.866   2.732  12.824 -0.5752 -0.1507  1.5880
 3385TIP3   OH231645   4.389   6.588  14.487  0.6066 -0.1916  0.0701
 3385TIP3    H131646   4.475   6.626  14.468  0.7475  0.5913  2.0189
 3385TIP3    H231647   4.354   6.563  14.401  2.1461  0.8351 -0.9071
 3386TIP3   OH231648   5.312   6.288  15.166  0.1534  1.0773 -0.0118
 3386TIP3    H131649   5.261   6.275  15.086 -0.7489 -0.5003  0.7730
 3386TIP3    H231650   5.365   6.209  15.174  0.8518  1.5911  0.5091
 3387TIP3   OH231651   4.231   5.718   0.328 -0.0991  0.6078  0.4645
 3387TIP3    H131652   4.222   5.799   0.278  1.4280  0.4790 -0.0583
 3387TIP3    H231653   4.294   5.739   0.397  0.3103 -0.1275  0.3235
 3388TIP3   OH231654   4.719   2.293   3.310 -0.6963  0.1067 -0.6417
 3388TIP3    H131655   4.727   2.211   3.357  1.1130  0.3108 -0.5459
 3388TIP3    H231656   4.625   2.302   3.293 -1.2213 -0.7420  1.5149
 3389TIP3   OH231657   4.671   1.371   2.782 -0.9258 -0.3529 -1.0476
 3389TIP3    H131658   4.649   1.446   2.727 -0.0459  1.8176  1.3365
 3389TIP3    H231659   4.665   1.295   2.724 -0.5883  1.6864 -3.9358
 3390TIP3   OH231660   0.947   4.253  14.870 -0.5945  0.7855  0.4488
 3390TIP3    H131661   0.964   4.342  14.898  1.3816  0.6523 -0.2018
 3390TIP3    H231662   0.851   4.245  14.874 -0.7595  2.6236  1.3407
 3391TIP3   OH231663   5.427   3.255  16.323  0.2579 -0.2990 -0.1099
 3391TIP3    H131664   5.522   3.252  16.336  0.3393 -0.0444 -0.6280
 3391TIP3    H231665   5.416   3.292  16.235 -0.3770  4.0791  1.5578
 3392TIP3   OH231666   0.853   5.545  12.858  0.4825 -0.8293 -0.5957
 3392TIP3    H131667   0.845   5.450  12.852  0.4558 -0.7968 -1.1683
 3392TIP3    H231668   0.809   5.568  12.939  1.3737 -1.4020  0.0671
 3393TIP3   OH231669   4.283   2.274  12.492  0.1052 -0.1926  0.1025
 3393TIP3    H131670   4.322   2.195  12.455 -0.1019 -0.1886 -0.1262
 3393TIP3    H231671   4.227   2.308  12.423  1.5877  1.1759 -0.5005
 3394TIP3   OH231672   6.168   2.281  11.440  0.1144  0.1373  0.6465
 3394TIP3    H131673   6.229   2.349  11.411  1.0364  0.2855  2.7487
 3394TIP3    H231674   6.115   2.262  11.363  2.1133  0.7558 -0.9784
 3395TIP3   OH231675   0.568   3.198  15.744  0.4027 -0.4782 -0.1105
 3395TIP3    H131676   0.594   3.164  15.658  0.2083 -0.9394  0.0073
 3395TIP3    H231677   0.596   3.289  15.744  0.5253 -0.5148 -0.6139
 3396TIP3   OH231678   4.697   6.381  13.457 -0.3979 -0.8074 -0.1385
 3396TIP3    H131679   4.706   6.447  13.389  0.5470 -1.3561 -0.5705
 3396TIP3    H231680   4.633   6.319  13.421 -1.4036 -0.0713  0.3341
 3397TIP3   OH231681   2.996   5.272   5.260  0.3062  0.1255  0.6128
 3397TIP3    H131682   3.075   5.270   5.312 -0.7146 -1.8231  2.2260
 3397TIP3    H231683   2.959   5.184   5.268 -1.0315  0.3858 -1.6682
 3398TIP3   OH231684   6.659   4.218   5.626 -0.7508  0.7492  0.0578
 3398TIP3    H131685   6.595   4.208   5.696 -1.3345  0.1136 -0.5543
 3398TIP3    H231686   6.641   4.305   5.589  0.3580  1.6267  1.4539
 3399TIP3   OH231687   4.740   4.019   0.217 -0.3456 -0.0687 -0.4605
 3399TIP3    H131688   4.712   4.104   0.252 -0.8095  0.8511 -2.8989
 3399TIP3    H231689   4.658   3.977   0.190 -0.4240 -2.4086  2.7339
 3400TIP3   OH231690   6.148   2.457   0.514 -0.2630 -0.1677  0.1614
 3400TIP3    H131691   6.099   2.458   0.596  0.8983 -0.9460  0.9033
 3400TIP3    H231692   6.089   2.415   0.451 -0.5490 -1.1122  1.0356
 3401TIP3   OH231693   2.596   2.867  12.948 -0.1946  0.7051 -0.0410
 3401TIP3    H131694   2.684   2.896  12.971  0.6210 -1.5009 -0.1484
 3401TIP3    H231695   2.542   2.889  13.023  0.8617  0.4199  0.8232
 3402TIP3   OH231696   2.784   0.475  16.423 -0.1811 -0.2314  0.0069
 3402TIP3    H131697   2.839   0.402  16.452 -1.4550 -1.3005 -0.1724
 3402TIP3    H231698   2.824   0.552  16.464  1.2304 -1.0047  0.1627
 3403TIP3   OH231699   0.888   1.892   3.678  0.1362  0.0120  0.2265
 3403TIP3    H131700   0.857   1.927   3.761  1.3880  1.1432  0.2492
 3403TIP3    H231701   0.819   1.914   3.615 -1.9379 -2.8713  1.2820
 3404TIP3   OH231702   6.678   0.248  14.069  0.0675 -0.7384  0.2842
 3404TIP3    H131703   6.739   0.211  14.134 -1.1122 -2.1375  0.6404
 3404TIP3    H231704   6.689   0.343  14.077  2.6593 -0.9149 -0.1175
 3405TIP3   OH231705   2.926   4.365   0.148  0.3806  0.0882 -0.0861
 3405TIP3    H131706   3.004   4.408   0.115  1.2969 -1.6691 -0.3408
 3405TIP3    H231707   2.910   4.405   0.234  1.6738  0.3508  0.0464
 3406TIP3   OH231708   2.685   3.146  13.879  0.0138  0.2562 -0.4485
 3406TIP3    H131709   2.618   3.086  13.911 -0.7716  0.8764 -0.8935
 3406TIP3    H231710   2.731   3.174  13.958  1.0920 -1.7066 -0.3232
 3407TIP3   OH231711   5.212   4.663  16.159  0.4164 -0.0257 -0.7349
 3407TIP3    H131712   5.292   4.638  16.113  1.2008 -0.6565  0.8730
 3407TIP3    H231713   5.208   4.602  16.234 -0.8566  0.8550 -0.0549
 3408TIP3   OH231714   4.830   5.004  15.995  0.3104 -0.0808 -0.1987
 3408TIP3    H131715   4.745   5.034  16.026 -0.6425 -0.3808 -2.3244
 3408TIP3    H231716   4.885   5.001  16.073 -1.7941 -0.4962  1.3341
 3409TIP3   OH231717   0.479   1.213   2.101 -0.8245  0.5450 -0.0070
 3409TIP3    H131718   0.565   1.172   2.098 -1.7499 -1.4408 -1.5963
 3409TIP3    H231719   0.478   1.259   2.185  1.7171  0.5607  0.1097
 3410TIP3   OH231720   4.033   5.717  14.789  0.1598  0.2378 -0.8357
 3410TIP3    H131721   4.035   5.789  14.852  0.5397  0.1648 -0.7632
 3410TIP3    H231722   4.043   5.759  14.704 -3.8661  0.7626 -1.2630
 3411TIP3   OH231723   0.102   0.766  14.823  0.0612  0.0813 -0.1469
 3411TIP3    H131724   0.160   0.766  14.747  1.9462  0.5894  1.2035
 3411TIP3    H231725   0.143   0.705  14.884 -1.6653 -0.6611  0.3053
 3412TIP3   OH231726   6.257   4.344   4.030  0.8798 -0.5615 -0.2195
 3412TIP3    H131727   6.254   4.311   3.940  0.4970 -0.1594 -0.3562
 3412TIP3    H231728   6.307   4.425   4.024 -1.6079  1.0471 -0.5940
 3413TIP3   OH231729   3.298   3.524   2.850 -0.7278  0.5079  0.7606
 3413TIP3    H131730   3.335   3.605   2.884 -1.2862  0.7131  0.8832
 3413TIP3    H231731   3.256   3.549   2.768  0.6338  0.0112 -0.1279
 3414TIP3   OH231732   1.307   2.533  12.894  0.5949 -0.4861 -0.0080
 3414TIP3    H131733   1.348   2.582  12.965  1.0518 -1.0332  0.1186
 3414TIP3    H231734   1.364   2.548  12.818  0.4592 -0.4138 -0.0954
 3415TIP3   OH231735   4.408   3.452  11.178  0.2481 -0.3300 -0.1060
 3415TIP3    H131736   4.445   3.392  11.243  2.0901  2.1800  1.3696
 3415TIP3    H231737   4.484   3.501  11.145 -1.0902  0.8431 -1.5727
 3416TIP3   OH231738   2.176   1.314   5.653 -0.0243  0.0375  0.3240
 3416TIP3    H131739   2.206   1.224   5.649 -1.6766 -0.5857  0.9725
 3416TIP3    H231740   2.232   1.356   5.718  0.1286 -0.7918  0.7382
 3417TIP3   OH231741   4.827   0.130  15.763  0.0311  0.4210 -0.1464
 3417TIP3    H131742   4.850   0.083  15.683 -2.0600  0.7254 -0.9944
 3417TIP3    H231743   4.732   0.139  15.758  0.0463  1.9081  1.5776
 3418TIP3   OH231744   0.790   3.571   1.669 -0.0299 -0.1030 -0.0922
 3418TIP3    H131745   0.803   3.491   1.619 -1.1498 -1.1168  1.1426
 3418TIP3    H231746   0.695   3.582   1.672  0.0805  0.8262  0.4263
 3419TIP3   OH231747   5.373   6.701   2.115  0.3715 -0.4259 -0.1106
 3419TIP3    H131748   5.464   6.714   2.142  0.0509  1.2050  0.3254
 3419TIP3    H231749   5.336   6.645   2.183  1.0262 -1.0658 -0.2681
 3420TIP3   OH231750   0.019   0.840  13.226 -0.1186 -0.3968  0.6146
 3420TIP3    H131751  -0.020   0.917  13.183  1.2219  0.8244  1.5128
 3420TIP3    H231752  -0.011   0.846  13.316  0.0356 -0.8961  0.6976
 3421TIP3   OH231753   2.448   3.383   3.479 -1.0096 -0.2552 -0.2813
 3421TIP3    H131754   2.407   3.311   3.526 -1.9814  0.8806  0.6900
 3421TIP3    H231755   2.375   3.437   3.448 -0.3469  1.8210  1.4906
 3422TIP3   OH231756   2.933   4.259  15.150  0.2627 -1.3943 -0.6944
 3422TIP3    H131757   2.974   4.278  15.235  0.3914 -0.1304 -1.0125
 3422TIP3    H231758   2.931   4.344  15.105 -0.5515 -1.8858 -1.6328
 3423TIP3   OH231759   5.405   2.575  14.413 -0.5064  0.2439  0.1413
 3423TIP3    H131760   5.472   2.641  14.430  1.3025 -1.6918  0.9788
 3423TIP3    H231761   5.418   2.551  14.321 -1.4520  1.2817 -0.2927
 3424TIP3   OH231762   3.610   6.842  13.091 -0.0243 -0.2500  0.0189
 3424TIP3    H131763   3.622   6.916  13.152 -1.0714 -0.0805  0.0373
 3424TIP3    H231764   3.656   6.770  13.132  0.3462  0.1915  0.3971
 3425TIP3   OH231765   5.212   3.349   1.865 -0.0613  0.4234 -0.2862
 3425TIP3    H131766   5.303   3.346   1.834  1.1948 -1.5293  3.0612
 3425TIP3    H231767   5.167   3.282   1.813  1.2414 -0.8102  0.1241
 3426TIP3   OH231768   1.185   0.243  11.710 -0.2670  0.5923 -0.1310
 3426TIP3    H131769   1.152   0.332  11.718  0.6225  0.9237 -0.0945
 3426TIP3    H231770   1.279   0.253  11.695 -0.2447 -0.3200 -0.6822
 3427TIP3   OH231771   0.054   2.984  11.002  0.6712  0.0082  0.0428
 3427TIP3    H131772   0.104   3.020  10.929  0.9483 -0.0980  0.1789
 3427TIP3    H231773  -0.036   2.982  10.971  0.5769  1.2205  0.1725
 3428TIP3   OH231774   0.898   6.009  14.424  0.1964 -0.4230  0.2021
 3428TIP3    H131775   0.982   6.025  14.468 -0.6531 -0.0536  1.7485
 3428TIP3    H231776   0.916   6.025  14.331  1.5452  0.8325  0.6479
 3429TIP3   OH231777   2.700   0.012  13.521  0.3469  0.3529 -0.5033
 3429TIP3    H131778   2.683  -0.072  13.478 -0.3218  0.0946  0.2373
 3429TIP3    H231779   2.794   0.026  13.510  0.7301 -1.1431  0.4861
 3430TIP3   OH231780   4.386   2.078   4.787  0.4201  0.0112 -0.5350
 3430TIP3    H131781   4.467   2.039   4.818  0.3238 -1.0659 -1.5850
 3430TIP3    H231782   4.345   2.010   4.733 -0.6347  0.9262 -0.9308
 3431TIP3   OH231783   6.850   0.360  13.320  0.3842  0.1440 -0.1887
 3431TIP3    H131784   6.833   0.445  13.280  1.4648  0.4249 -0.0650
 3431TIP3    H231785   6.766   0.313  13.313  0.3299  0.4585 -2.0869
 3432TIP3   OH231786   0.206   5.522   1.992  0.4643 -0.3034 -0.3664
 3432TIP3    H131787   0.129   5.466   1.978  0.0127  0.2256 -0.0597
 3432TIP3    H231788   0.194   5.558   2.080 -1.4507  3.4921 -1.9375
 3433TIP3   OH231789   1.581   4.652   2.033 -0.2503 -0.0431  0.1917
 3433TIP3    H131790   1.557   4.739   2.000  1.9098  0.5923  0.1297
 3433TIP3    H231791   1.498   4.604   2.035 -1.1334  1.1474 -2.3461
 3434TIP3   OH231792   1.075   6.182  13.502 -0.0218  0.2915 -0.0941
 3434TIP3    H131793   1.127   6.198  13.423  2.0623 -1.9556  0.6917
 3434TIP3    H231794   1.009   6.118  13.474 -0.1568  0.5230 -0.3127
 3435TIP3   OH231795   6.228   3.710  15.596 -0.3523  0.6169 -0.3673
 3435TIP3    H131796   6.295   3.643  15.607 -1.6496 -0.5989  0.3552
 3435TIP3    H231797   6.238   3.767  15.672 -1.6771 -0.9707  1.0484
 3436TIP3   OH231798   5.214   6.183  12.814 -0.0965  0.0327 -0.4141
 3436TIP3    H131799   5.121   6.181  12.791  0.0076  0.4541 -0.8844
 3436TIP3    H231800   5.226   6.107  12.871 -1.0744  0.8677  0.9652
 3437TIP3   OH231801   1.065   3.035   3.931  0.4719 -0.3155 -0.0410
 3437TIP3    H131802   0.979   3.008   3.898 -0.7972  2.5512  0.5536
 3437TIP3    H231803   1.044   3.083   4.011  3.0400 -2.9929  2.4729
 3438TIP3   OH231804   0.367   6.051  14.892  0.1894  0.1198 -0.1650
 3438TIP3    H131805   0.347   6.088  14.978 -0.3967  0.2899 -0.3722
 3438TIP3    H231806   0.315   6.103  14.830 -2.0357 -2.1410 -0.3056
 3439TIP3   OH231807   4.592   3.844  13.542 -0.2743  0.0013 -0.0106
 3439TIP3    H131808   4.497   3.843  13.557 -0.5626  0.4375 -1.5945
 3439TIP3    H231809   4.607   3.923  13.490  0.9757 -0.0298  0.2806
 3440TIP3   OH231810   6.786   0.963  11.063  0.6541  0.3423  0.3883
 3440TIP3    H131811   6.789   0.916  10.979 -0.1435 -0.7597  0.9472
 3440TIP3    H231812   6.863   0.933  11.110 -0.2168 -1.0179  1.0230
 3441TIP3   OH231813   1.752   5.644  16.089  0.1637 -0.1589  0.1464
 3441TIP3    H131814   1.659   5.664  16.103  0.3670  1.7081 -0.8229
 3441TIP3    H231815   1.793   5.663  16.173 -0.1929 -0.0421  0.3006
 3442TIP3   OH231816   6.779   6.827   3.527 -0.2449 -0.1010 -0.5871
 3442TIP3    H131817   6.834   6.882   3.582 -2.3322  0.1824  1.3579
 3442TIP3    H231818   6.731   6.889   3.471  0.3157 -0.2476 -1.2446
 3443TIP3   OH231819   3.171   4.994   3.730 -0.1609  0.0066  0.5510
 3443TIP3    H131820   3.123   5.036   3.659  2.1004 -1.8867 -2.3400
 3443TIP3    H231821   3.236   5.059   3.756  1.5600 -0.5486 -2.0029
 3444TIP3   OH231822   5.787   5.623  14.275 -0.1596 -0.1930 -0.1785
 3444TIP3    H131823   5.696   5.606  14.252 -0.4807 -1.7476  2.0114
 3444TIP3    H231824   5.783   5.698  14.334  0.0787  0.2072 -0.6624
 3445TIP3   OH231825   2.327   6.274  11.274 -0.4821  0.3768 -0.3774
 3445TIP3    H131826   2.252   6.231  11.234  0.8579 -1.5918 -0.9144
 3445TIP3    H231827   2.400   6.213  11.261  1.1069  1.9642  0.5927
 3446TIP3   OH231828   6.349   5.530   0.971  0.0632 -0.5628  0.1791
 3446TIP3    H131829   6.340   5.537   0.876  2.0574  1.5555  0.0452
 3446TIP3    H231830   6.261   5.511   1.002 -0.5092 -2.0721 -2.1109
 3447TIP3   OH231831   2.492   6.434  14.403 -0.0691  0.2725  0.3554
 3447TIP3    H131832   2.491   6.342  14.377 -1.0031  0.5454 -0.6829
 3447TIP3    H231833   2.568   6.443  14.460  2.2216 -0.3784 -2.3840
 3448TIP3   OH231834   2.448   3.174  15.158  0.0856  0.1195 -0.6057
 3448TIP3    H131835   2.467   3.268  15.149 -0.1096  0.1099 -1.1098
 3448TIP3    H231836   2.357   3.165  15.129 -0.7031  0.1455  1.6113
 3449TIP3   OH231837   4.849   1.038   5.554  0.1103 -0.1654 -0.4994
 3449TIP3    H131838   4.801   1.115   5.522  0.4294  0.4514  0.4470
 3449TIP3    H231839   4.939   1.069   5.562 -0.0937  0.0118  1.8173
 3450TIP3   OH231840   6.459   0.742  15.554 -0.4175 -0.5816 -0.3040
 3450TIP3    H131841   6.476   0.663  15.504 -0.2814  0.3724 -1.8269
 3450TIP3    H231842   6.378   0.777  15.518 -0.4119  0.0408  0.2584
 3451TIP3   OH231843   0.889   1.437  16.072 -0.3138  0.3634 -0.4692
 3451TIP3    H131844   0.967   1.478  16.036  0.3896 -2.3177 -2.2904
 3451TIP3    H231845   0.830   1.427  15.998 -0.5492 -1.5244 -0.0906
 3452TIP3   OH231846   0.243   5.338  15.614  0.1162  0.0619 -0.3367
 3452TIP3    H131847   0.192   5.398  15.559 -0.1019 -0.5965 -0.8780
 3452TIP3    H231848   0.203   5.344  15.700  0.1026  0.6966 -0.3866
 3453TIP3   OH231849   6.238   1.423  11.072  0.5419 -0.1592 -0.2922
 3453TIP3    H131850   6.284   1.376  11.002 -1.0495  0.2096 -1.6576
 3453TIP3    H231851   6.230   1.512  11.039 -0.4559 -0.0377  0.2609
 3454TIP3   OH231852   0.882   6.193   1.681 -0.1782  0.8951  0.2496
 3454TIP3    H131853   0.899   6.111   1.635 -0.7266  0.3377  1.0240
 3454TIP3    H231854   0.789   6.211   1.666 -0.1028  1.2880  0.2259
 3455TIP3   OH231855   3.303   1.519   6.630  0.3701 -0.4155 -0.4507
 3455TIP3    H131856   3.322   1.438   6.582 -1.9787 -0.5565 -1.2712
 3455TIP3    H231857   3.269   1.489   6.714  0.4835 -0.2482 -0.3449
 3456TIP3   OH231858   1.701   4.785  13.273 -0.2301  0.3358 -0.0796
 3456TIP3    H131859   1.796   4.781  13.261 -0.3053 -1.0125 -0.3529
 3456TIP3    H231860   1.674   4.694  13.277 -1.6454  0.6818 -1.0931
 3457TIP3   OH231861   4.366   5.466  14.513 -0.4074 -0.4143  0.1534
 3457TIP3    H131862   4.450   5.456  14.469  0.2159  2.3660  0.4953
 3457TIP3    H231863   4.352   5.383  14.558  2.3275 -0.8569  0.3523
 3458TIP3   OH231864   0.179   0.718   3.525  0.6081 -0.0656 -0.4289
 3458TIP3    H131865   0.087   0.730   3.504  0.6350 -0.9768 -1.1427
 3458TIP3    H231866   0.222   0.706   3.440  1.3728  0.2575 -0.1006
 3459TIP3   OH231867   4.352   6.252  15.055 -0.0252 -0.9986 -0.0352
 3459TIP3    H131868   4.398   6.220  15.133  0.8313  0.3871  0.0751
 3459TIP3    H231869   4.362   6.347  15.059 -1.4022 -0.7821 -0.9788
 3460TIP3   OH231870   5.098   4.237  12.563 -0.3658 -0.0496 -0.6899
 3460TIP3    H131871   5.130   4.262  12.476 -1.1564  0.7712 -0.7645
 3460TIP3    H231872   5.122   4.145  12.572  2.4717  0.6171 -0.5069
 3461TIP3   OH231873   6.132   1.220   1.309  0.1236  0.1772  0.2352
 3461TIP3    H131874   6.139   1.247   1.400 -1.8586  1.3485  0.1127
 3461TIP3    H231875   6.189   1.143   1.301  0.5297  0.2119  2.3722
 3462TIP3   OH231876   1.962   5.051  14.146  0.9430 -0.2156 -0.1227
 3462TIP3    H131877   1.993   5.002  14.223  1.0214 -0.4741 -0.3188
 3462TIP3    H231878   1.976   4.992  14.073 -1.1321 -0.8048 -0.0864
 3463TIP3   OH231879   5.550   6.311   2.653 -0.6277  0.4574 -0.5298
 3463TIP3    H131880   5.586   6.321   2.565 -2.6256 -0.7875 -1.5753
 3463TIP3    H231881   5.467   6.359   2.651 -0.6299  0.5606  0.7439
 3464TIP3   OH231882   1.709   4.988  16.514 -0.1132  0.0079 -0.0964
 3464TIP3    H131883   1.626   4.941  16.502  0.9826 -1.8911 -0.5708
 3464TIP3    H231884   1.699   5.031  16.599 -0.6286 -2.3944  1.1479
 3465TIP3   OH231885   4.091   0.434   4.810  0.3896  0.2802  0.1473
 3465TIP3    H131886   4.183   0.448   4.830 -0.0211  1.0976  1.5585
 3465TIP3    H231887   4.056   0.389   4.886 -0.3735 -0.0708 -0.3994
 3466TIP3   OH231888   5.848   2.115  11.811 -0.2937  0.2861  0.0204
 3466TIP3    H131889   5.786   2.054  11.770  1.7971 -0.9818 -1.4726
 3466TIP3    H231890   5.840   2.196  11.760  0.4461 -0.4394 -1.3122
 3467TIP3   OH231891   5.061   0.537  14.454  0.4202 -0.0433 -0.8241
 3467TIP3    H131892   5.082   0.444  14.453  1.4426  0.1463  0.3355
 3467TIP3    H231893   5.143   0.581  14.478 -0.4526  0.9924  0.4667
 3468TIP3   OH231894   5.870   6.763  14.039  0.0702  0.0415  0.0779
 3468TIP3    H131895   5.904   6.692  13.985  0.5243  1.6001 -1.8041
 3468TIP3    H231896   5.792   6.793  13.993 -0.1271  0.7374  0.8462
 3469TIP3   OH231897   0.613   1.810  14.506 -0.3071  0.0904  0.3176
 3469TIP3    H131898   0.620   1.878  14.574 -2.1450  1.4353 -0.7591
 3469TIP3    H231899   0.559   1.742  14.546  1.3383 -0.6992  1.3137
 3470TIP3   OH231900   6.426   0.483  14.334 -0.2738 -0.6990  0.4827
 3470TIP3    H131901   6.429   0.473  14.239 -2.0857  0.5812  0.2261
 3470TIP3    H231902   6.335   0.508  14.352  0.3471  0.3382  2.4241
 3471TIP3   OH231903   0.205   4.552   5.231 -0.2068  0.1546 -0.0587
 3471TIP3    H131904   0.233   4.643   5.242 -1.9757  0.7007  0.1463
 3471TIP3    H231905   0.112   4.552   5.251 -0.2232 -1.7501  0.1229
 3472TIP3   OH231906   0.852   3.332   2.663  0.0022  0.7036 -0.0947
 3472TIP3    H131907   0.899   3.288   2.733 -1.1027  0.8430  0.7574
 3472TIP3    H231908   0.827   3.417   2.700 -1.9757  0.1539 -0.0773
 3473TIP3   OH231909   4.673   6.610   4.564 -0.1203  0.5399 -0.0635
 3473TIP3    H131910   4.678   6.705   4.573  0.2669  0.3850  1.8600
 3473TIP3    H231911   4.632   6.596   4.479 -2.7461  2.4549  0.7695
 3474TIP3   OH231912   0.090   0.629  11.736  0.0754 -0.4454  0.5334
 3474TIP3    H131913   0.122   0.693  11.673 -0.3567  0.1522  0.9092
 3474TIP3    H231914   0.130   0.547  11.709  1.8848  0.2501  0.9503
 3475TIP3   OH231915   0.807   3.998  13.945  0.3636  0.1652  0.4888
 3475TIP3    H131916   0.872   4.063  13.972  3.3421 -2.0664 -0.7606
 3475TIP3    H231917   0.817   3.927  14.008  0.6893 -1.1187 -0.9783
 3476TIP3   OH231918   5.064   4.542   4.709 -0.0761 -0.0074 -0.2188
 3476TIP3    H131919   5.062   4.448   4.690  0.6783  0.3751 -2.6136
 3476TIP3    H231920   5.127   4.551   4.780 -0.6234 -1.3564  0.4629
 3477TIP3   OH231921   4.488   4.930   4.607  0.7074 -0.2043  0.0021
 3477TIP3    H131922   4.402   4.893   4.627  0.4915  0.8743  1.1752
 3477TIP3    H231923   4.536   4.926   4.689  0.7913  1.7362  0.0956
 3478TIP3   OH231924   4.094   4.664   5.611  0.0898  0.3032  0.1657
 3478TIP3    H131925   4.083   4.697   5.522  2.9179  1.5175  0.1544
 3478TIP3    H231926   4.079   4.741   5.667 -1.6324 -0.4386  0.8084
 3479TIP3   OH231927   5.135   4.015   3.333  0.5179  0.6255  0.0203
 3479TIP3    H131928   5.121   3.959   3.256  0.4617 -0.3371  0.7066
 3479TIP3    H231929   5.103   4.101   3.307 -2.3054 -0.3615 -0.0619
 3480TIP3   OH231930   1.371   1.939  15.745  0.2848 -0.7365  0.2132
 3480TIP3    H131931   1.420   1.921  15.824  1.0846  1.0709  0.1984
 3480TIP3    H231932   1.353   1.853  15.707  1.3584 -1.5553  1.4643
 3481TIP3   OH231933   5.104   5.976  13.170  0.2110  0.4631 -0.6794
 3481TIP3    H131934   5.196   5.965  13.193  0.8253 -0.4035 -3.1968
 3481TIP3    H231935   5.089   6.070  13.176  1.3140  0.6351 -0.4102
 3482TIP3   OH231936   3.693   6.409   1.838  0.0458  0.3161  0.1531
 3482TIP3    H131937   3.757   6.463   1.884  1.0559 -1.2964  0.7260
 3482TIP3    H231938   3.629   6.385   1.905  0.1242  0.0349  0.1290
 3483TIP3   OH231939   2.942   3.756  14.407  0.2164  0.3407  0.0243
 3483TIP3    H131940   2.887   3.702  14.350  0.9472  0.0280 -0.3975
 3483TIP3    H231941   2.895   3.758  14.490  1.1991 -2.8495  0.8089
 3484TIP3   OH231942   3.924   5.932  16.118 -0.4360  0.2199  0.3118
 3484TIP3    H131943   3.928   5.967  16.029  1.2120 -1.0304 -0.1502
 3484TIP3    H231944   3.993   5.979  16.165  1.0795 -1.5441 -0.0391
 3485TIP3   OH231945   0.656   3.129  13.711  0.2361 -0.4141 -0.0189
 3485TIP3    H131946   0.678   3.051  13.659 -1.0733 -0.1930 -0.9578
 3485TIP3    H231947   0.683   3.202  13.657  0.8373 -0.1898  0.5692
 3486TIP3   OH231948   4.586   1.014  13.342 -0.2351  0.2356  0.2693
 3486TIP3    H131949   4.638   0.948  13.295 -1.0215 -1.6623  1.8962
 3486TIP3    H231950   4.495   0.987  13.328 -0.6325  1.5084  0.2667
 3487TIP3   OH231951   1.465   2.164   4.246  0.7032  0.2116  0.6164
 3487TIP3    H131952   1.541   2.126   4.201  0.1448 -3.0986  2.1895
 3487TIP3    H231953   1.502   2.206   4.324  1.0935  0.6632  0.1982
 3488TIP3   OH231954   0.211   2.510  14.259  0.3088 -0.2452 -0.7286
 3488TIP3    H131955   0.146   2.575  14.286 -0.2432 -0.8636 -0.5369
 3488TIP3    H231956   0.159   2.437  14.225  0.9040 -0.7418 -0.5980
 3489TIP3   OH231957   2.984   1.111   0.512  0.7005 -0.6920 -0.6426
 3489TIP3    H131958   3.053   1.076   0.568  0.0260  1.4481  1.7335
 3489TIP3    H231959   3.023   1.188   0.471 -0.4349  1.2798  1.6774
 3490TIP3   OH231960   1.479   5.673  13.756 -0.1055  0.2111 -0.1301
 3490TIP3    H131961   1.443   5.762  13.753 -0.2807  0.2047  1.1668
 3490TIP3    H231962   1.573   5.685  13.769 -0.1167  0.2166 -0.0495
 3491TIP3   OH231963   2.230   5.117  13.786 -0.1868 -0.2423  0.0644
 3491TIP3    H131964   2.186   5.041  13.824  0.6018  0.2042  2.0059
 3491TIP3    H231965   2.312   5.082  13.751  0.1569 -0.3198  0.9169
 3492TIP3   OH231966   3.932   1.629   2.777  0.5080 -0.0175 -0.5442
 3492TIP3    H131967   4.025   1.610   2.783  0.2086 -1.4656 -0.1211
 3492TIP3    H231968   3.899   1.615   2.866 -0.3560 -1.0427 -1.0030
 3493TIP3   OH231969   6.329   0.043   4.424 -0.6816  0.2285 -0.1618
 3493TIP3    H131970   6.406   0.047   4.481  0.5605 -1.3365 -1.6225
 3493TIP3    H231971   6.340   0.116   4.363 -0.7663  0.4686  0.1095
 3494TIP3   OH231972   6.043   3.481   4.956 -0.1056 -0.3210 -0.5365
 3494TIP3    H131973   6.072   3.508   5.044  2.5702  0.2344 -1.4914
 3494TIP3    H231974   6.002   3.559   4.920  0.3726  0.0033 -0.3962
 3495TIP3   OH231975   0.665   6.669   2.208 -0.2307 -0.6220  0.2609
 3495TIP3    H131976   0.709   6.587   2.235  0.9143 -0.3051 -0.5913
 3495TIP3    H231977   0.607   6.642   2.137  0.3195 -0.6700 -0.1798
 3496TIP3   OH231978   4.114   2.046   2.432 -0.6292 -0.0479  0.0317
 3496TIP3    H131979   4.164   1.987   2.489 -0.5319  0.3431  0.3550
 3496TIP3    H231980   4.136   2.134   2.463 -1.5025  0.1362  0.1631
 3497TIP3   OH231981   4.060   6.189  13.584  0.0594 -0.2820  0.3123
 3497TIP3    H131982   4.050   6.264  13.526  3.2290  1.3271  1.5817
 3497TIP3    H231983   4.111   6.126  13.533 -2.6152 -1.7089 -0.7593
 3498TIP3   OH231984   5.030   0.662  13.418 -0.1178  0.0550  0.3461
 3498TIP3    H131985   5.038   0.737  13.358 -2.5883 -0.9204 -1.3653
 3498TIP3    H231986   4.940   0.665  13.448  0.1974 -1.3329  1.5362
 3499TIP3   OH231987   3.661   6.408  14.063  0.1387 -0.5388  0.2342
 3499TIP3    H131988   3.650   6.484  14.121  0.1510 -0.5209  0.2137
 3499TIP3    H231989   3.659   6.333  14.121  0.3486 -0.5093  0.2837
 3500TIP3   OH231990   1.343   3.662  14.921  0.2374  0.5676  0.3194
 3500TIP3    H131991   1.408   3.682  14.853 -0.4745  0.3073 -0.4583
 3500TIP3    H231992   1.368   3.576  14.954 -0.9628 -0.5709 -1.5563
 3501TIP3   OH231993   3.417   4.790  16.444 -0.0859 -0.4406 -0.1678
 3501TIP3    H131994   3.510   4.806  16.434 -0.2953  0.3316 -0.9660
 3501TIP3    H231995   3.407   4.766  16.537  0.5827  1.9268  0.5940
 3502TIP3   OH231996   0.107   3.825  12.927 -0.2790 -0.3218 -0.2496
 3502TIP3    H131997   0.121   3.859  13.015  1.0953  2.2940 -1.3527
 3502TIP3    H231998   0.014   3.841  12.909 -0.7416 -1.5144  0.9016
 3503TIP3   OH231999   1.182   5.567  11.290  0.1432 -0.2089 -0.1522
 3503TIP3    H132000   1.182   5.543  11.197 -1.7042  0.8818 -0.4893
 3503TIP3    H232001   1.090   5.585  11.310  0.6314  0.4939  1.6518
 3504TIP3   OH232002   2.850   2.337   5.675 -0.5721 -0.6380  0.1563
 3504TIP3    H132003   2.812   2.375   5.596  1.8301  2.9015  0.4493
 3504TIP3    H232004   2.806   2.382   5.747 -2.3951 -3.4747  0.9642
 3505TIP3   OH232005   1.704   5.433  10.538 -0.2545  0.3266 -0.0952
 3505TIP3    H132006   1.787   5.413  10.581  0.3105  0.5557 -1.0630
 3505TIP3    H232007   1.704   5.528  10.528 -0.0998  0.2158 -1.1660
 3506TIP3   OH232008   0.119   6.372   5.221  0.4986 -0.7100  0.8151
 3506TIP3    H132009   0.167   6.292   5.203 -2.7371 -2.9923  1.5369
 3506TIP3    H232010   0.070   6.390   5.141  0.2371 -0.1561  1.0941
 3507TIP3   OH232011   3.462   3.509   3.245 -0.0152 -0.7594  0.1926
 3507TIP3    H132012   3.373   3.486   3.272 -1.1058  2.3090 -0.3411
 3507TIP3    H232013   3.456   3.601   3.218  3.6069  0.0545  1.4707
 3508TIP3   OH232014   4.398   3.611   3.739  0.3021 -0.6337  0.3419
 3508TIP3    H132015   4.339   3.542   3.710  0.3379 -0.0036 -1.2900
 3508TIP3    H232016   4.356   3.647   3.817  0.1433 -2.2670  1.0611
 3509TIP3   OH232017   4.056   6.566   0.608  0.0129  0.4777 -0.0200
 3509TIP3    H132018   4.070   6.501   0.539 -0.1248  0.7011 -0.2578
 3509TIP3    H232019   4.034   6.646   0.562  0.5258  0.7846  0.2641
 3510TIP3   OH232020   2.691   3.862  13.194  0.0451 -0.1133  0.1028
 3510TIP3    H132021   2.698   3.768  13.176 -0.4027 -0.0732 -0.2861
 3510TIP3    H232022   2.640   3.867  13.274  1.7799 -0.2794  1.2756
 3511TIP3   OH232023   1.526   5.648   1.623 -0.0392 -0.0285 -0.1117
 3511TIP3    H132024   1.459   5.642   1.555 -0.5449 -0.4904  0.4210
 3511TIP3    H232025   1.544   5.742   1.630 -0.6389  0.0992 -0.2486
 3512TIP3   OH232026   6.341   3.297  11.426 -0.2146 -0.2743 -0.1964
 3512TIP3    H132027   6.375   3.267  11.342 -1.5755 -0.4039 -0.7380
 3512TIP3    H232028   6.374   3.386  11.436  0.4546 -0.4803 -0.5741
 3513TIP3   OH232029   4.525   6.592   0.466  0.4504  0.1528  0.5069
 3513TIP3    H132030   4.457   6.656   0.445  0.4596 -0.1930 -0.6747
 3513TIP3    H232031   4.582   6.591   0.388 -0.7685 -2.8410 -0.5025
 3514TIP3   OH232032   1.040   2.819  14.147  0.2569  0.5489  0.6701
 3514TIP3    H132033   1.131   2.795  14.129 -0.4135 -1.2999 -0.5842
 3514TIP3    H232034   1.004   2.839  14.061 -0.5274  1.2297  1.1564
 3515TIP3   OH232035   1.078   2.143   3.908  0.0105  0.5745 -0.5093
 3515TIP3    H132036   1.114   2.175   3.990 -0.8603  0.8131 -0.2049
 3515TIP3    H232037   0.991   2.183   3.904  0.0023  0.4699 -1.4906
 3516TIP3   OH232038   5.912   2.076  14.420  0.4354  0.0465  0.1472
 3516TIP3    H132039   5.996   2.091  14.464  1.1692 -1.8444 -0.5061
 3516TIP3    H232040   5.887   1.987  14.447 -0.6070  0.0289 -0.8395
 3517TIP3   OH232041   0.221   0.028  12.214  0.1304  0.0387 -0.0680
 3517TIP3    H132042   0.183  -0.059  12.200  0.1119 -0.2614  1.6280
 3517TIP3    H232043   0.303   0.011  12.259  0.1552  0.9051  0.2199
 3518TIP3   OH232044   4.978   1.382   1.273  0.4131 -0.2352  0.3840
 3518TIP3    H132045   4.955   1.464   1.228  0.5040 -0.1410  0.5083
 3518TIP3    H232046   4.952   1.397   1.364  0.8656 -0.1681  0.5042
 3519TIP3   OH232047   5.702   3.236   4.444 -0.0811 -0.5100 -0.1294
 3519TIP3    H132048   5.773   3.279   4.493  0.2578  1.4771 -2.1743
 3519TIP3    H232049   5.624   3.252   4.498  0.3648  1.0795  0.1162
 3520TIP3   OH232050   6.388   1.911  16.983 -0.0397 -0.1424  0.3089
 3520TIP3    H132051   6.481   1.902  17.008 -0.1844 -0.1224  0.8673
 3520TIP3    H232052   6.363   1.997  17.016 -0.2777 -0.1791  0.2222
 3521TIP3   OH232053   0.638   0.788   0.094  0.0804 -0.1742 -0.1564
 3521TIP3    H132054   0.641   0.884   0.085 -1.1869 -0.2510 -1.7547
 3521TIP3    H232055   0.698   0.756   0.027  0.0878 -0.5213  0.0175
 3522TIP3   OH232056   4.042   6.382   4.749  0.3593  0.7549 -0.3703
 3522TIP3    H132057   4.021   6.325   4.823 -0.3953  1.8241  0.2659
 3522TIP3    H232058   4.136   6.370   4.735  0.4441  0.2801  0.5294
 3523TIP3   OH232059   3.696   3.068  11.712 -0.4973  0.0687 -0.1959
 3523TIP3    H132060   3.654   2.994  11.666 -0.7709  0.7894 -1.1331
 3523TIP3    H232061   3.623   3.123  11.740 -0.2688  0.2698  0.0007
 3524TIP3   OH232062   5.436   0.941  16.566  0.0318  0.4970 -0.2309
 3524TIP3    H132063   5.490   0.872  16.529  0.7296  0.8445  0.1253
 3524TIP3    H232064   5.497   0.999  16.612 -0.6855  0.6618  0.5592
 3525TIP3   OH232065   4.022   2.948  10.921  0.3688 -0.4303  0.1369
 3525TIP3    H132066   3.954   3.007  10.889  0.6435 -0.8077 -1.1896
 3525TIP3    H232067   3.994   2.861  10.891  2.3810 -0.3861 -2.1989
 3526TIP3   OH232068   3.007   5.545   0.089 -0.1250 -0.0857 -0.2925
 3526TIP3    H132069   3.052   5.514   0.011 -0.4855 -0.4500 -0.3524
 3526TIP3    H232070   2.942   5.478   0.109 -0.2821  0.1797  0.1093
 3527TIP3   OH232071   1.509   4.586   0.554  0.5230  0.1371  0.2078
 3527TIP3    H132072   1.467   4.651   0.610  2.2428  0.5074  1.1214
 3527TIP3    H232073   1.563   4.534   0.613  0.4757 -1.0809 -0.7593
 3528TIP3   OH232074   3.206   3.703  11.280 -0.5686 -0.1040  0.1579
 3528TIP3    H132075   3.183   3.631  11.222 -2.1786  1.7571 -1.6684
 3528TIP3    H232076   3.298   3.721  11.260 -0.5695 -0.7226 -0.4468
 3529TIP3   OH232077   2.617   5.077   1.465  0.4010 -0.5724 -0.2585
 3529TIP3    H132078   2.629   5.008   1.531  3.3583  1.4800  1.5887
 3529TIP3    H232079   2.677   5.054   1.394  1.0543 -0.1605  0.1531
 3530TIP3   OH232080   0.260   5.887   1.668  0.0319 -0.6914  0.1964
 3530TIP3    H132081   0.319   5.961   1.658 -0.3523 -0.5831 -1.7710
 3530TIP3    H232082   0.240   5.884   1.761  2.7144 -0.4416  0.8438
 3531TIP3   OH232083   3.760   5.274  13.410  0.3827  0.3539 -0.1263
 3531TIP3    H132084   3.735   5.341  13.346  0.8214 -1.4505 -2.3327
 3531TIP3    H232085   3.844   5.242  13.379  0.5324 -0.7224  1.2952
 3532TIP3   OH232086   3.711   2.806  11.214 -0.0874  0.5606 -0.4234
 3532TIP3    H132087   3.728   2.711  11.218  1.3174  0.7956 -0.3494
 3532TIP3    H232088   3.680   2.821  11.125 -0.6168  0.0004 -0.3472
 3533TIP3   OH232089   3.390   3.702  16.665  0.0056 -0.6655 -0.1211
 3533TIP3    H132090   3.456   3.633  16.659 -0.3532 -1.2129  1.5524
 3533TIP3    H232091   3.435   3.781  16.634  1.4600 -1.0345  0.9215
 3534TIP3   OH232092   0.880   0.129   2.914  0.0397 -0.3986  0.3012
 3534TIP3    H132093   0.851   0.149   3.003 -1.3594  1.0615 -0.4295
 3534TIP3    H232094   0.800   0.130   2.862  1.1532  2.7742 -1.6429
 3535TIP3   OH232095   5.091   2.392   5.652 -0.1818 -0.2052 -0.2966
 3535TIP3    H132096   5.111   2.450   5.726 -0.1425  0.6097 -0.9322
 3535TIP3    H232097   5.114   2.305   5.684  1.6595  0.3389  0.0177
 3536TIP3   OH232098   3.447   5.111  11.326 -0.1742  0.3427  0.6536
 3536TIP3    H132099   3.388   5.037  11.313 -1.1565  1.2950 -0.5164
 3536TIP3    H232100   3.511   5.103  11.256 -0.4840  0.7872  0.3189
 3537TIP3   OH232101   0.306   2.820   5.123  0.0565  0.1960 -0.0267
 3537TIP3    H132102   0.248   2.839   5.049 -0.3555  0.4807  0.3658
 3537TIP3    H232103   0.331   2.906   5.157 -0.1038  0.0688  0.4283
 3538TIP3   OH232104   3.301   1.685  13.266  0.0206  0.3862 -0.1763
 3538TIP3    H132105   3.302   1.607  13.321 -0.0614 -0.4978 -1.3912
 3538TIP3    H232106   3.347   1.659  13.186  1.2268  1.9972 -0.0809
 3539TIP3   OH232107   6.459   4.896  11.513  1.2040  0.1916  0.2858
 3539TIP3    H132108   6.418   4.956  11.451 -1.4043 -1.1714  0.5491
 3539TIP3    H232109   6.400   4.896  11.588  1.6056 -2.0311  0.6494
 3540TIP3   OH232110   3.362   6.581   0.458 -0.6047 -0.3173 -0.0527
 3540TIP3    H132111   3.422   6.543   0.523 -0.3692 -1.8441 -1.1288
 3540TIP3    H232112   3.277   6.542   0.479 -0.3061 -1.7290 -1.3397
 3541TIP3   OH232113   5.205   3.464  15.773  0.6228  0.6053  0.1320
 3541TIP3    H132114   5.204   3.370  15.753 -0.5690  0.6718 -0.1511
 3541TIP3    H232115   5.288   3.495  15.738  0.0083  0.1062 -1.8692
 3542TIP3   OH232116   3.190   6.853   3.161  0.0575  0.1804 -0.0941
 3542TIP3    H132117   3.236   6.935   3.179  0.0236  0.5051 -1.3874
 3542TIP3    H232118   3.132   6.873   3.088  0.7150 -1.2151 -1.0528
 3543TIP3   OH232119   4.849   3.760   1.420 -0.4622  0.8634  0.2769
 3543TIP3    H132120   4.759   3.767   1.452  0.0264  1.8954  1.5540
 3543TIP3    H232121   4.898   3.724   1.494  0.2215  0.5105 -0.3309
 3544TIP3   OH232122   4.115   5.165   0.548  0.3429 -0.2257  0.1851
 3544TIP3    H132123   4.192   5.194   0.598 -0.1528  0.6811  0.4533
 3544TIP3    H232124   4.096   5.239   0.491 -0.3161 -0.4637  0.0982
 3545TIP3   OH232125   2.838   3.618   5.170 -0.1586  0.6421 -0.0205
 3545TIP3    H132126   2.762   3.574   5.207 -0.2917  0.1990 -0.8020
 3545TIP3    H232127   2.813   3.711   5.167 -0.4637  0.5695  0.2183
 3546TIP3   OH232128   4.212   0.195  11.395 -0.1135 -0.3258 -0.3227
 3546TIP3    H132129   4.300   0.216  11.365 -0.0378  1.0056  0.7502
 3546TIP3    H232130   4.225   0.142  11.473 -0.1719  1.6974  1.1377
 3547TIP3   OH232131   3.593   4.032   3.945  0.3428 -0.4854 -0.2688
 3547TIP3    H132132   3.627   3.943   3.944  1.4257 -0.1002  0.5398
 3547TIP3    H232133   3.655   4.081   3.999 -1.5919  0.2103  1.4869
 3548TIP3   OH232134   4.556   2.665  12.230  0.1623 -0.2136 -0.3382
 3548TIP3    H132135   4.627   2.716  12.269 -0.3683 -0.4314  0.9898
 3548TIP3    H232136   4.572   2.575  12.259 -0.1484 -0.4213 -0.7906
 3549TIP3   OH232137   0.437   1.157  12.209 -0.1221  0.1083  0.5415
 3549TIP3    H132138   0.432   1.092  12.139 -0.9621  0.1965  0.5079
 3549TIP3    H232139   0.422   1.108  12.289 -1.3621  0.3296  0.4678
 3550TIP3   OH232140   0.012   0.238  15.883 -0.4779 -0.2188  0.1200
 3550TIP3    H132141   0.070   0.270  15.952 -0.2222 -0.4628  0.0234
 3550TIP3    H232142   0.072   0.207  15.815 -0.7393  0.7835 -0.5688
 3551TIP3   OH232143   4.985   2.533   0.546  0.0520  0.2080 -0.4191
 3551TIP3    H132144   5.056   2.589   0.578 -0.2077 -0.0382  0.6250
 3551TIP3    H232145   4.925   2.593   0.502  1.0197  0.3847 -1.5353
 3552TIP3   OH232146   2.100   2.137   5.065 -0.0347  0.4638 -0.6528
 3552TIP3    H132147   2.135   2.077   5.131 -0.4530 -0.2119 -1.0377
 3552TIP3    H232148   2.172   2.198   5.049  0.5346 -0.1609 -0.5363
 3553TIP3   OH232149   0.049   0.365  13.011 -0.1757  0.3092 -0.3861
 3553TIP3    H132150   0.027   0.340  12.921 -1.4550  1.4630 -0.4263
 3553TIP3    H232151   0.030   0.458  13.016 -1.0110  0.1032  1.3157
 3554TIP3   OH232152   6.582   3.704  16.286  0.0348  0.4539  0.3371
 3554TIP3    H132153   6.623   3.744  16.362 -0.2796  0.8152  0.3190
 3554TIP3    H232154   6.653   3.655  16.243 -0.0385 -0.7572  1.5095
 3555TIP3   OH232155   2.251   6.682   2.150 -0.2171 -0.8634 -0.0620
 3555TIP3    H132156   2.331   6.629   2.156 -0.9018 -1.9409 -0.1790
 3555TIP3    H232157   2.204   6.663   2.231 -0.0577  0.3014  0.3258
 3556TIP3   OH232158   1.644   6.860  12.928 -0.0968  0.0605 -0.0385
 3556TIP3    H132159   1.560   6.873  12.972 -0.3536 -0.6876 -0.2786
 3556TIP3    H232160   1.686   6.790  12.977  0.5084  0.6094  0.2384
 3557TIP3   OH232161   0.448   2.854  15.392 -0.3337 -0.3082 -0.6472
 3557TIP3    H132162   0.352   2.857  15.399 -0.3753  0.4187 -1.4078
 3557TIP3    H232163   0.477   2.938  15.428  0.2123 -1.4588  1.8785
 3558TIP3   OH232164   4.813   6.443   4.741  0.3419  0.4347 -0.2499
 3558TIP3    H132165   4.755   6.503   4.693  0.6293 -0.5735 -1.9170
 3558TIP3    H232166   4.876   6.413   4.676  0.7555 -0.9953  0.7708
 3559TIP3   OH232167   4.610   4.796   3.059  0.3135  0.2750 -0.4353
 3559TIP3    H132168   4.634   4.887   3.075  0.2897  0.3984 -1.0455
 3559TIP3    H232169   4.532   4.782   3.112  0.5064  0.5110 -0.0841
 3560TIP3   OH232170   2.571   5.470  15.736  0.1182  0.6780  0.6263
 3560TIP3    H132171   2.641   5.513  15.687  1.5805  0.2623  2.2563
 3560TIP3    H232172   2.609   5.387  15.764 -1.7113 -0.4662 -0.0874
 3561TIP3   OH232173   4.558   4.796  11.010  0.2257 -0.2667  0.2534
 3561TIP3    H132174   4.484   4.759  10.962  0.1250  0.6617 -0.3369
 3561TIP3    H232175   4.589   4.868  10.954 -0.7978  1.8011  2.1726
 3562TIP3   OH232176   1.294   1.621   1.961  0.6786 -0.2963 -0.7665
 3562TIP3    H132177   1.235   1.696   1.972 -0.5463 -1.2962 -0.2756
 3562TIP3    H232178   1.239   1.544   1.978  2.0090 -1.2972 -0.8066
 3563TIP3   OH232179   5.642   0.872   1.238 -0.7089  0.2797  0.4002
 3563TIP3    H132180   5.685   0.837   1.160 -0.6575  0.8033  0.1899
 3563TIP3    H232181   5.549   0.856   1.224 -0.7983  1.2445 -0.2303
 3564TIP3   OH232182   0.016   4.638   3.757  0.5513 -0.1180 -0.2965
 3564TIP3    H132183  -0.024   4.721   3.782 -0.2633 -0.3800 -0.7004
 3564TIP3    H232184  -0.044   4.601   3.692  1.4263 -0.5449 -0.8804
 3565TIP3   OH232185   6.559   0.863   0.667 -0.3865 -0.3634 -0.0167
 3565TIP3    H132186   6.623   0.930   0.641  1.1930 -1.7665  0.0722
 3565TIP3    H232187   6.514   0.901   0.743  2.7203 -0.5426  2.1365
 3566TIP3   OH232188   3.653   3.429   2.377 -0.2941 -0.6891  0.0484
 3566TIP3    H132189   3.626   3.354   2.429 -1.4202  0.0206  0.5481
 3566TIP3    H232190   3.579   3.491   2.384  0.5964  0.4626 -0.3310
 3567TIP3   OH232191   0.631   2.010   1.341 -0.1522  0.4465 -0.1572
 3567TIP3    H132192   0.680   2.055   1.272 -0.2450  1.6514  0.5381
 3567TIP3    H232193   0.577   2.079   1.380 -0.1291 -0.2276  1.1014
 3568TIP3   OH232194   4.647   2.508   5.513  1.0121 -0.4438 -0.2815
 3568TIP3    H132195   4.575   2.569   5.501  1.9457  0.8740  0.6308
 3568TIP3    H232196   4.631   2.467   5.598  0.9089 -0.7664 -0.4528
 3569TIP3   OH232197   1.584   1.860   0.270  0.1308 -0.6769  0.0833
 3569TIP3    H132198   1.640   1.785   0.289  0.2544 -0.5656  0.1668
 3569TIP3    H232199   1.601   1.921   0.341  3.3686  1.3298 -2.1250
 3570TIP3   OH232200   6.322   1.729  15.255 -0.2080  0.5002  0.0188
 3570TIP3    H132201   6.299   1.738  15.163 -1.5772 -0.9662  0.1746
 3570TIP3    H232202   6.324   1.634  15.271  1.7094  0.6627  1.1130
 3571TIP3   OH232203   4.851   6.826   2.571  0.2755 -0.5471 -0.6706
 3571TIP3    H132204   4.908   6.903   2.568 -0.2979  0.0063  1.2410
 3571TIP3    H232205   4.898   6.759   2.520  1.8655  0.3756 -0.4698
 3572TIP3   OH232206   4.874   2.515   5.337  0.7479 -0.6728  0.5638
 3572TIP3    H132207   4.882   2.603   5.302  1.1005 -0.5630  0.9198
 3572TIP3    H232208   4.788   2.513   5.379  0.3919 -0.7534 -0.1520
 3573TIP3   OH232209   0.254   3.811  14.843 -0.4033  0.5226 -0.2378
 3573TIP3    H132210   0.230   3.807  14.750 -1.3147  0.2634 -0.0063
 3573TIP3    H232211   0.345   3.783  14.846 -1.0297 -1.8255 -0.8108
 3574TIP3   OH232212   5.880   3.135   5.547 -0.5994  0.2328 -0.5924
 3574TIP3    H132213   5.809   3.179   5.499 -2.2517 -1.0782  0.5195
 3574TIP3    H232214   5.836   3.092   5.620  1.6509  0.9572  1.2893
 3575TIP3   OH232215   1.158   6.234  16.262 -0.0073 -0.0540  0.0520
 3575TIP3    H132216   1.072   6.215  16.299 -0.6110 -0.9628 -1.7025
 3575TIP3    H232217   1.172   6.327  16.280 -0.0102 -0.5212  2.9338
 3576TIP3   OH232218   5.598   3.615   5.340 -0.4960  0.4631 -0.2169
 3576TIP3    H132219   5.608   3.696   5.391 -1.3447  0.1530  0.4828
 3576TIP3    H232220   5.510   3.584   5.362  0.1977 -1.2210  0.3752
 3577TIP3   OH232221   1.452   4.461  12.527  0.2045  0.0794 -0.4741
 3577TIP3    H132222   1.380   4.524  12.524 -0.1667 -0.2474  0.9905
 3577TIP3    H232223   1.471   4.450  12.620  1.2917 -0.8268 -0.7794
 3578TIP3   OH232224   3.656   6.758   0.710  0.2947 -0.0226 -0.4512
 3578TIP3    H132225   3.628   6.766   0.619  1.4781 -0.4546 -0.8687
 3578TIP3    H232226   3.636   6.844   0.749 -1.9761 -0.4288 -0.5707
 3579TIP3   OH232227   2.611   6.392   3.763 -0.0178  0.2960 -0.1772
 3579TIP3    H132228   2.654   6.460   3.712 -0.9364  0.9759 -0.0722
 3579TIP3    H232229   2.518   6.415   3.761 -0.1680 -0.0837  1.1587
 3580TIP3   OH232230   4.259   5.350  13.256 -0.3781  0.2119  0.2849
 3580TIP3    H132231   4.251   5.315  13.167  0.9408  1.8546 -0.5562
 3580TIP3    H232232   4.209   5.432  13.254  0.2029  0.5922  0.8313
 3581TIP3   OH232233   4.341   5.817   3.781 -0.0822  0.2138 -0.0631
 3581TIP3    H132234   4.255   5.848   3.754 -0.1950  0.5877  0.7094
 3581TIP3    H232235   4.324   5.754   3.851  0.3194  1.1929  0.9323
 3582TIP3   OH232236   3.630   4.236  13.995 -0.0359  0.0217  0.1190
 3582TIP3    H132237   3.669   4.304  13.941  1.6418 -1.3467 -0.4985
 3582TIP3    H232238   3.541   4.226  13.960 -0.1368  1.5350 -0.0916
 3583TIP3   OH232239   0.998   2.960  14.400 -0.0921  0.3631  0.2921
 3583TIP3    H132240   1.047   2.928  14.325  0.8091  1.5997  0.3340
 3583TIP3    H232241   1.029   2.907  14.474  0.5990  0.6047  0.1741
 3584TIP3   OH232242   5.534   6.840   1.918 -0.4216 -0.0422  0.4328
 3584TIP3    H132243   5.553   6.868   2.008 -0.3268  0.5659  0.2316
 3584TIP3    H232244   5.439   6.827   1.916 -0.4809  0.3739  0.5061
 3585TIP3   OH232245   6.829   3.772  11.402  0.4913 -0.1052 -0.2779
 3585TIP3    H132246   6.846   3.689  11.446  2.2257 -0.3398 -1.2847
 3585TIP3    H232247   6.758   3.753  11.341  0.4910 -0.7049 -0.0980
 3586TIP3   OH232248   4.373   3.825   0.908 -0.6660 -0.1359  0.0844
 3586TIP3    H132249   4.410   3.913   0.917 -1.1858  0.1421 -0.4264
 3586TIP3    H232250   4.283   3.840   0.881 -0.8597 -0.8265  0.3320
 3587TIP3   OH232251   4.469   3.738   4.113 -0.2615  0.9408 -0.8646
 3587TIP3    H132252   4.477   3.729   4.208 -0.6363 -2.4575 -1.0327
 3587TIP3    H232253   4.380   3.711   4.093  0.7850 -1.9010 -2.3612
 3588TIP3   OH232254   6.452   1.582  11.795  0.9710  0.1212  0.3980
 3588TIP3    H132255   6.526   1.636  11.767  0.5660  0.4233 -0.0996
 3588TIP3    H232256   6.388   1.645  11.828  0.9308 -0.1402  0.8175
 3589TIP3   OH232257   6.227   4.218  16.569  0.1307 -0.0200  0.3229
 3589TIP3    H132258   6.315   4.252  16.586  0.2507 -1.1076  2.1837
 3589TIP3    H232259   6.174   4.252  16.641 -0.7406 -0.2642 -0.1880
 3590TIP3   OH232260   0.436   0.152  11.200 -0.3018 -0.2857  0.1083
 3590TIP3    H132261   0.506   0.177  11.140 -1.1369 -0.7216 -1.0947
 3590TIP3    H232262   0.398   0.073  11.161 -1.2046 -0.2831  0.9392
 3591TIP3   OH232263   6.708   1.749   1.215  0.3686  0.2766 -0.0253
 3591TIP3    H132264   6.724   1.826   1.270 -0.9948 -0.3965  1.3643
 3591TIP3    H232265   6.619   1.760   1.183  1.8021  1.9190 -4.3422
 3592TIP3   OH232266   1.729   5.256  11.856 -0.1223 -0.3633 -0.6591
 3592TIP3    H132267   1.695   5.237  11.944  1.8123 -0.1064  0.2081
 3592TIP3    H232268   1.658   5.232  11.797 -0.7241 -2.5917  0.8317
 3593TIP3   OH232269   5.134   6.459   0.568 -0.0412 -0.2493  1.0899
 3593TIP3    H132270   5.098   6.421   0.648 -2.8275  0.8539  0.4870
 3593TIP3    H232271   5.117   6.553   0.576 -0.2161 -0.0919 -0.6750
 3594TIP3   OH232272   1.703   5.113  14.673 -0.0338 -0.5513 -0.4803
 3594TIP3    H132273   1.784   5.082  14.712 -0.8546 -2.2645 -0.0564
 3594TIP3    H232274   1.647   5.135  14.748 -0.5076 -0.8700 -0.7354
 3595TIP3   OH232275   5.678   0.334   0.784 -0.4283  0.3787 -0.1378
 3595TIP3    H132276   5.588   0.365   0.796 -0.1282  1.3588 -0.2887
 3595TIP3    H232277   5.724   0.365   0.862 -0.7053 -2.2156  1.1798
 3596TIP3   OH232278   1.598   2.188   1.124 -0.6136  0.2144  0.0021
 3596TIP3    H132279   1.525   2.243   1.097 -0.6256 -0.2517 -0.9848
 3596TIP3    H232280   1.557   2.104   1.147 -0.5208  0.3698  0.7342
 3597TIP3   OH232281   3.936   6.303  12.906  0.3006  0.1191 -0.0600
 3597TIP3    H132282   3.880   6.350  12.968 -1.7895  0.5106 -2.1108
 3597TIP3    H232283   3.898   6.216  12.900  3.1173 -1.4863  2.3723
 3598TIP3   OH232284   0.084   4.826   5.522  0.3997 -0.3758  0.6369
 3598TIP3    H132285   0.051   4.743   5.556 -1.5285 -0.5779 -1.4114
 3598TIP3    H232286   0.135   4.802   5.445 -0.4123  0.3141 -0.1449
 3599TIP3   OH232287   2.193   4.033   4.666  0.0139 -0.0291  0.6961
 3599TIP3    H132288   2.229   3.973   4.601  1.5877  0.6501  0.8954
 3599TIP3    H232289   2.131   4.088   4.616 -1.0428 -1.4203  0.4159
 3600TIP3   OH232290   0.291   5.338   6.112 -0.1870 -0.0997  0.5801
 3600TIP3    H132291   0.307   5.416   6.165 -0.1303  0.9482 -0.9154
 3600TIP3    H232292   0.240   5.280   6.169 -1.3474  1.5595  1.3013
 3601TIP3   OH232293   5.585   4.811   4.214 -0.6818 -0.0867  0.1291
 3601TIP3    H132294   5.633   4.890   4.188 -1.5323  0.5699  0.4966
 3601TIP3    H232295   5.499   4.820   4.172 -1.4633  0.1382  1.7006
 3602TIP3   OH232296   4.223   4.406  12.092 -0.6851 -0.4859 -0.3821
 3602TIP3    H132297   4.280   4.367  12.158  0.4014  3.4080  1.2623
 3602TIP3    H232298   4.135   4.397  12.127 -0.4285 -1.1506  0.1085
 3603TIP3   OH232299   6.487   3.561  13.562 -0.0960  0.1882 -0.3546
 3603TIP3    H132300   6.562   3.619  13.567 -0.2776  0.3282  1.9783
 3603TIP3    H232301   6.420   3.611  13.516  0.8190  0.5102 -1.3731
 3604TIP3   OH232302   6.329   4.063   2.830  0.0049 -0.4396  0.1592
 3604TIP3    H132303   6.311   4.114   2.752  0.1303 -0.9051 -0.1832
 3604TIP3    H232304   6.425   4.060   2.835 -0.0027 -0.4268  0.3174
 3605TIP3   OH232305   0.206   5.423   4.760 -0.3281 -0.2035  0.0615
 3605TIP3    H132306   0.203   5.331   4.733 -0.2699 -0.3026  0.3866
 3605TIP3    H232307   0.120   5.458   4.737 -0.1687 -0.2006 -0.5465
 3606TIP3   OH232308   0.619   1.444  13.792  0.2067  0.2942 -0.0410
 3606TIP3    H132309   0.605   1.513  13.728  0.2086  1.5101  1.2044
 3606TIP3    H232310   0.713   1.449  13.813  0.2504 -0.2332 -0.0991
 3607TIP3   OH232311   6.591   3.688   1.043 -0.4747 -0.4389 -0.3804
 3607TIP3    H132312   6.588   3.626   0.970 -0.8671 -0.2821 -0.5040
 3607TIP3    H232313   6.622   3.637   1.117 -1.7704 -1.0571 -0.2260
 3608TIP3   OH232314   6.853   4.021   0.423  0.4575  0.1435 -0.0046
 3608TIP3    H132315   6.908   4.092   0.389 -0.7583  2.2930  2.1480
 3608TIP3    H232316   6.772   4.065   0.451 -0.2289 -2.0465  1.7619
 3609TIP3   OH232317   5.958   0.916  13.717  0.3984 -0.2267  0.1409
 3609TIP3    H132318   5.907   0.930  13.796 -2.2004 -0.4089 -1.4015
 3609TIP3    H232319   6.024   0.850  13.742 -0.4792 -0.4372  2.0628
 3610TIP3   OH232320   1.607   6.294  11.325  0.3631  0.1711  0.5781
 3610TIP3    H132321   1.624   6.357  11.395  3.0540 -0.6455  0.7384
 3610TIP3    H232322   1.659   6.218  11.347  0.3448 -0.5800 -1.6985
 3611TIP3   OH232323   6.213   6.090  11.050 -0.0305  0.2825 -1.0021
 3611TIP3    H132324   6.211   6.094  11.146  0.5570  0.6965 -1.0024
 3611TIP3    H232325   6.305   6.103  11.028 -0.2131  0.4888 -1.6386
 3612TIP3   OH232326   4.104   5.721   4.262 -0.0814  0.4298 -0.1612
 3612TIP3    H132327   4.074   5.630   4.264  1.5811 -0.2016 -1.3532
 3612TIP3    H232328   4.111   5.746   4.355 -1.2943 -0.3815  0.1629
 3613TIP3   OH232329   3.868   4.422  12.463 -0.2372  0.3310 -0.6455
 3613TIP3    H132330   3.856   4.395  12.554  3.2046 -2.2197 -0.7746
 3613TIP3    H232331   3.882   4.517  12.468 -0.5551  0.3138  1.3933
 3614TIP3   OH232332   5.104   3.643  13.615  0.0191 -0.2622  0.4434
 3614TIP3    H132333   5.179   3.697  13.592 -0.8168  0.8607  0.2547
 3614TIP3    H232334   5.078   3.602  13.532 -0.0810  0.0024  0.3435
 3615TIP3   OH232335   1.416   3.631  12.559  0.8475 -0.6066  0.3027
 3615TIP3    H132336   1.442   3.555  12.611  2.2021 -1.2314 -1.1803
 3615TIP3    H232337   1.458   3.617  12.474  0.0143  1.1440 -0.4550
 3616TIP3   OH232338   1.502   2.569  15.433 -0.5986 -0.3620  0.1212
 3616TIP3    H132339   1.568   2.587  15.500  0.8269 -1.5829 -0.8748
 3616TIP3    H232340   1.550   2.573  15.350 -1.7776 -1.2859 -0.6427
 3617TIP3   OH232341   6.761   2.973   0.916  0.3058 -0.0477 -0.8190
 3617TIP3    H132342   6.750   2.881   0.890 -1.1261 -0.4648  1.1024
 3617TIP3    H232343   6.856   2.987   0.913  0.4911 -1.2765 -2.0495
 3618TIP3   OH232344   5.471   0.611  14.285 -0.0292  0.0400  0.4154
 3618TIP3    H132345   5.489   0.673  14.355 -1.1665  1.3017 -0.3527
 3618TIP3    H232346   5.470   0.526  14.328  0.7364  0.6201  1.6541
 3619TIP3   OH232347   6.664   0.673   6.190  0.1025  0.3512  0.1728
 3619TIP3    H132348   6.618   0.670   6.274 -0.9493  2.9638 -0.2172
 3619TIP3    H232349   6.595   0.690   6.125  1.1778  0.7457 -0.9116
 3620TIP3   OH232350   2.022   3.354   2.828  0.0124  0.7108 -0.3299
 3620TIP3    H132351   2.104   3.307   2.818  0.0568  0.6439  0.3267
 3620TIP3    H232352   1.962   3.291   2.867  0.0862  1.1991  0.5985
 3621TIP3   OH232353   4.465   5.757  14.934 -0.3495 -0.1129 -0.2661
 3621TIP3    H132354   4.467   5.729  14.843  2.1525  0.2455 -0.3933
 3621TIP3    H232355   4.433   5.847  14.931 -0.4302 -0.1559 -0.7776
 3622TIP3   OH232356   0.188   1.342   3.816 -0.4919  0.6545  0.0836
 3622TIP3    H132357   0.273   1.337   3.859 -0.9663  3.4919  1.5722
 3622TIP3    H232358   0.209   1.339   3.722  0.9202 -1.4670  0.3767
 3623TIP3   OH232359   6.146   0.770  15.127  0.8723  0.6564 -0.2268
 3623TIP3    H132360   6.125   0.712  15.055  0.8715  0.0451  0.2587
 3623TIP3    H232361   6.189   0.714  15.192 -2.7391  0.2187  2.0701
 3624TIP3   OH232362   6.397   4.088  12.218 -0.4216 -0.2081 -0.1915
 3624TIP3    H132363   6.468   4.037  12.257  1.0303  0.5865 -1.6824
 3624TIP3    H232364   6.326   4.082  12.282  0.9331 -1.1095  1.3168
 3625TIP3   OH232365   6.315   6.660  16.431  0.2997  0.3111 -0.0760
 3625TIP3    H132366   6.311   6.572  16.468  0.1443  0.0772 -0.6367
 3625TIP3    H232367   6.242   6.663  16.369 -1.0696  1.5896  1.5266
 3626TIP3   OH232368   5.572   4.442  12.150  0.0014 -0.0502  0.2113
 3626TIP3    H132369   5.627   4.519  12.134 -0.8738  0.1829 -1.9862
 3626TIP3    H232370   5.629   4.382  12.199  1.4395  1.0912  0.0080
 3627TIP3   OH232371   2.201   2.645  10.527 -0.3773 -0.4354  0.0518
 3627TIP3    H132372   2.190   2.702  10.604  0.0121  0.7053 -0.7024
 3627TIP3    H232373   2.219   2.559  10.563  0.6029  0.2381  1.2586
 3628TIP3   OH232374   1.857   1.564  11.542  0.0867 -0.2433 -0.1246
 3628TIP3    H132375   1.836   1.657  11.544 -0.4480 -0.2824 -2.0728
 3628TIP3    H232376   1.921   1.555  11.471  1.0012 -1.2182  0.7809
 3629TIP3   OH232377   1.510   6.136  16.856 -0.5527 -0.0967  0.5488
 3629TIP3    H132378   1.511   6.194  16.779 -0.4729 -2.1035 -1.0319
 3629TIP3    H232379   1.417   6.128  16.878 -0.6232  0.0234  0.3050
 3630TIP3   OH232380   2.704   6.750   5.796 -0.4099 -0.2812 -0.2943
 3630TIP3    H132381   2.624   6.718   5.754 -0.0844 -0.6570 -0.6234
 3630TIP3    H232382   2.753   6.671   5.817  0.7698  0.0061 -1.8170
 3631TIP3   OH232383   5.898   5.377   1.463 -0.6635  0.0962  0.3479
 3631TIP3    H132384   5.864   5.328   1.388  2.2435 -0.5210 -0.7141
 3631TIP3    H232385   5.825   5.380   1.525 -1.8363 -3.2602 -0.6471
 3632TIP3   OH232386   4.138   6.468  11.715 -0.1913 -0.4527  0.4341
 3632TIP3    H132387   4.215   6.412  11.706  1.0087  1.2656 -0.4947
 3632TIP3    H232388   4.124   6.475  11.809 -0.1796 -2.0208  0.5757
 3633TIP3   OH232389   6.598   3.454  13.260  0.4635 -0.0871  0.1185
 3633TIP3    H132390   6.566   3.544  13.265 -0.4258 -0.4181  0.5295
 3633TIP3    H232391   6.549   3.416  13.187  0.3644 -0.4212  0.3565
 3634TIP3   OH232392   5.347   4.537  10.493 -0.3726  0.1816  0.7254
 3634TIP3    H132393   5.330   4.444  10.509 -1.9003  0.5233  1.1594
 3634TIP3    H232394   5.311   4.554  10.406 -0.0769  0.3750  0.6361
 3635TIP3   OH232395   5.727   2.777  14.849 -0.0062 -0.0158 -1.0554
 3635TIP3    H132396   5.736   2.866  14.883 -2.7440  0.2772 -0.9209
 3635TIP3    H232397   5.670   2.786  14.772 -2.8853 -1.9002  0.6744
 3636TIP3   OH232398   4.723   1.255   3.763 -0.6431 -0.1178  0.3290
 3636TIP3    H132399   4.790   1.244   3.830 -0.2700 -0.1987 -0.0495
 3636TIP3    H232400   4.705   1.349   3.762 -0.3484 -0.0607  0.2590
 3637TIP3   OH232401   3.455   5.571  16.030  0.3011 -0.5301 -0.1499
 3637TIP3    H132402   3.467   5.508  16.101  0.0425  0.4709  0.7918
 3637TIP3    H232403   3.539   5.615  16.022  0.2014 -0.3422 -0.1702
 3638TIP3   OH232404   4.285   0.963  11.476 -0.0532 -0.0272  0.4159
 3638TIP3    H132405   4.318   1.047  11.507  0.4195 -0.3482  0.7890
 3638TIP3    H232406   4.363   0.915  11.448 -0.4224  0.0825 -0.8675
 3639TIP3   OH232407   4.888   5.099  14.350 -0.8942 -0.2814 -0.4463
 3639TIP3    H132408   4.814   5.134  14.300 -0.5012 -1.2537 -1.7703
 3639TIP3    H232409   4.848   5.052  14.423 -1.5490 -0.0191 -0.6286
 3640TIP3   OH232410   6.851   3.132  13.842 -0.6218 -0.7202 -0.2473
 3640TIP3    H132411   6.779   3.180  13.884 -0.1269  0.4994 -0.7371
 3640TIP3    H232412   6.847   3.159  13.750  0.6547 -0.3572 -0.2161
 3641TIP3   OH232413   3.703   1.483   4.493  0.3921  0.2695 -0.2129
 3641TIP3    H132414   3.662   1.451   4.573  2.3545 -0.3785  0.6022
 3641TIP3    H232415   3.630   1.499   4.433 -0.9351 -2.5948  0.4697
 3642TIP3   OH232416   1.199   2.757   0.109  0.0386  0.7221  0.3054
 3642TIP3    H132417   1.275   2.778   0.163  0.7127 -2.2813  0.7087
 3642TIP3    H232418   1.124   2.765   0.169  0.7146 -1.9090  1.6699
 3643TIP3   OH232419   6.776   5.837  16.147  0.4744  0.4443  0.2161
 3643TIP3    H132420   6.824   5.814  16.226  0.0869 -0.4576  0.1978
 3643TIP3    H232421   6.698   5.781  16.148 -0.9098  2.2962  0.5454
 3644TIP3   OH232422   4.370   5.171  13.411  0.5681 -0.2693 -0.4803
 3644TIP3    H132423   4.321   5.241  13.368 -1.3515 -0.7335  0.8209
 3644TIP3    H232424   4.422   5.131  13.341 -1.0389  0.1565 -1.9814
 3645TIP3   OH232425   6.162   0.645  16.769  0.4432  0.3719  1.2554
 3645TIP3    H132426   6.080   0.614  16.808 -0.6035  2.3530  0.7866
 3645TIP3    H232427   6.209   0.565  16.744 -1.8820 -0.8507  0.4689
 3646TIP3   OH232428   2.299   3.873   6.034  0.3944 -0.0270  0.2605
 3646TIP3    H132429   2.317   3.922   6.114 -1.6202  2.3298 -0.5980
 3646TIP3    H232430   2.255   3.794   6.064  2.4676 -0.7296  1.6136
 3647TIP3   OH232431   0.658   6.306   4.284  0.1168  0.0798  0.0068
 3647TIP3    H132432   0.750   6.312   4.257  0.0624  0.3789 -0.1225
 3647TIP3    H232433   0.628   6.397   4.284  0.7115  0.3929  3.2088
 3648TIP3   OH232434   5.094   4.624   1.245  0.4405  0.5665 -0.2830
 3648TIP3    H132435   5.147   4.593   1.172 -0.2901 -1.9024  0.1463
 3648TIP3    H232436   5.004   4.603   1.220  0.1803 -0.3510  1.2715
 3649TIP3   OH232437   3.284   4.259   0.139  0.6316  0.7848 -0.1777
 3649TIP3    H132438   3.367   4.214   0.154 -0.1735 -0.0995  1.9605
 3649TIP3    H232439   3.257   4.229   0.052  2.0920  0.4011 -0.5367
 3650TIP3   OH232440   1.326   4.067   0.032  0.0678  0.3197  0.6107
 3650TIP3    H132441   1.243   4.082   0.078  0.8230  0.1722  2.1018
 3650TIP3    H232442   1.347   3.976   0.050  0.4623  0.3051  0.0811
 3651TIP3   OH232443   2.967   1.595   0.823  0.1886  0.4438  0.0769
 3651TIP3    H132444   2.952   1.689   0.811 -0.8490  0.2787 -0.0314
 3651TIP3    H232445   2.911   1.571   0.897  1.0753  0.0673  0.6318
 3652TIP3   OH232446   3.861   1.121  10.072  0.8424 -0.4157  0.1687
 3652TIP3    H132447   3.818   1.106  10.155  1.3063 -0.1316  0.4666
 3652TIP3    H232448   3.945   1.161  10.095  0.7000  0.2750 -0.4653
 3653TIP3   OH232449   2.768   5.734   1.294 -0.2842 -0.2086  0.6008
 3653TIP3    H132450   2.791   5.784   1.216 -2.7563 -1.3530 -0.9806
 3653TIP3    H232451   2.694   5.783   1.332 -0.2283 -0.5995  1.2205
 3654TIP3   OH232452   1.987   3.962  12.218  0.0847 -0.4118 -0.5173
 3654TIP3    H132453   2.070   4.009  12.209 -0.0597 -0.4765 -2.7443
 3654TIP3    H232454   1.984   3.935  12.310  1.5328  1.3906  0.1162
 3655TIP3   OH232455   0.865   3.446   5.802  0.0520  0.1478 -0.1041
 3655TIP3    H132456   0.908   3.527   5.831  0.7232  0.0295 -0.7337
 3655TIP3    H232457   0.908   3.425   5.719 -2.3221  0.9349 -1.6611
 3656TIP3   OH232458   3.228   6.151  12.084 -0.2627 -0.2158  0.0147
 3656TIP3    H132459   3.274   6.132  12.002 -1.0424 -1.8253 -0.0911
 3656TIP3    H232460   3.225   6.246  12.088  0.9463 -0.0879 -1.1624
 3657TIP3   OH232461   1.030   4.819   3.664 -0.7018  0.0794 -0.2013
 3657TIP3    H132462   1.107   4.847   3.615 -1.5891  1.7392 -0.7191
 3657TIP3    H232463   1.028   4.724   3.653  2.7082 -0.4290  1.9787
 3658TIP3   OH232464   5.388   5.755  12.369 -0.4129 -0.5490  0.1933
 3658TIP3    H132465   5.384   5.737  12.275  1.5625 -0.4083  0.0367
 3658TIP3    H232466   5.311   5.711  12.405 -2.6593  1.4631 -1.7510
 3659TIP3   OH232467   2.985   2.457  15.685  0.0585  0.2970 -0.1832
 3659TIP3    H132468   3.060   2.496  15.729 -0.4193  0.0891  0.8426
 3659TIP3    H232469   2.911   2.514  15.707  0.2054  1.6157 -2.7568
 3660TIP3   OH232470   3.637   6.596  14.832 -0.3624 -0.1929  0.0945
 3660TIP3    H132471   3.551   6.637  14.819 -0.5850 -0.8216 -0.4744
 3660TIP3    H232472   3.665   6.571  14.744  0.9154  0.9922  0.1282
 3661TIP3   OH232473   6.872   6.478   3.992 -0.1180  0.1912 -0.6442
 3661TIP3    H132474   6.844   6.516   3.909 -1.3863  2.5061  0.7414
 3661TIP3    H232475   6.953   6.523   4.013  0.1633 -0.3378 -0.5822
 3662TIP3   OH232476   2.291   6.552  15.397  0.1343  0.1177 -0.2488
 3662TIP3    H132477   2.228   6.605  15.349 -0.1374  0.5860  0.5957
 3662TIP3    H232478   2.308   6.476  15.341 -1.5091 -0.2389 -0.3103
 3663TIP3   OH232479   4.415   0.262  12.049 -0.5137 -0.0505 -0.4542
 3663TIP3    H132480   4.462   0.314  11.984  0.0300 -0.0609 -0.0740
 3663TIP3    H232481   4.434   0.304  12.132 -2.5684  0.9910 -0.4337
 3664TIP3   OH232482   6.823   4.831   0.999 -0.2003 -0.7589  0.2355
 3664TIP3    H132483   6.783   4.900   0.947  1.5019  0.2273  0.1864
 3664TIP3    H232484   6.781   4.838   1.085 -0.1254  0.2715  0.1948
 3665TIP3   OH232485   3.762   3.857   2.828  0.3482 -0.1033  0.2428
 3665TIP3    H132486   3.855   3.870   2.849 -0.0697  1.2098  1.4947
 3665TIP3    H232487   3.716   3.916   2.888 -1.3350 -1.1103 -0.0001
 3666TIP3   OH232488   5.438   6.062   3.987 -0.0718 -0.2898  0.4371
 3666TIP3    H132489   5.434   6.112   3.906 -0.2687  0.7697  1.0823
 3666TIP3    H232490   5.520   6.089   4.028 -0.0734 -0.6645  0.6950
 3667TIP3   OH232491   5.442   1.092   4.747 -0.0016 -0.2383  0.5544
 3667TIP3    H132492   5.477   1.094   4.836  1.9533 -0.8469 -0.1231
 3667TIP3    H232493   5.425   0.999   4.730 -2.9061  0.1005  1.1318
 3668TIP3   OH232494   6.560   1.963  11.537 -0.0341  0.0059  0.4045
 3668TIP3    H132495   6.610   1.881  11.538  0.9406  0.5328 -1.1286
 3668TIP3    H232496   6.606   2.020  11.598 -0.1233 -0.2453  0.7123
 3669TIP3   OH232497   0.910   2.397   1.599 -0.4264 -0.1831 -0.4130
 3669TIP3    H132498   0.982   2.415   1.538  1.0168  4.3582  2.1549
 3669TIP3    H232499   0.831   2.407   1.547  0.7758  0.8590 -2.1404
 3670TIP3   OH232500   0.305   0.306  12.943  0.5190  0.4323  0.1039
 3670TIP3    H132501   0.226   0.305  12.997 -1.0137 -0.1530 -2.0273
 3670TIP3    H232502   0.291   0.236  12.879  3.3091 -0.4583  0.3342
 3671TIP3   OH232503   3.298   5.465  14.942 -0.1964  0.1379 -0.5332
 3671TIP3    H132504   3.379   5.425  14.973  0.6501  0.2794 -2.4475
 3671TIP3    H232505   3.240   5.461  15.018  1.7480  0.5112  1.0855
 3672TIP3   OH232506   4.892   0.509  11.770 -0.3305  0.2369 -0.4664
 3672TIP3    H132507   4.883   0.586  11.826 -0.3010  0.9369 -1.3815
 3672TIP3    H232508   4.973   0.468  11.799  0.9256  1.8748 -1.4533
 3673TIP3   OH232509   5.354   5.376  12.602 -0.0358 -0.0359 -0.2693
 3673TIP3    H132510   5.417   5.393  12.532 -1.2256 -0.6962 -1.5661
 3673TIP3    H232511   5.404   5.386  12.683  1.1848  1.6449 -1.1663
 3674TIP3   OH232512   1.858   4.702   6.607  0.1952 -0.0316 -0.0351
 3674TIP3    H132513   1.924   4.750   6.656 -1.2089  1.4251  0.5010
 3674TIP3    H232514   1.775   4.745   6.628 -1.1623 -2.5825  0.3542
 3675TIP3   OH232515   2.686   5.012  12.604  0.4915 -0.5768  0.4204
 3675TIP3    H132516   2.622   5.050  12.544 -0.0588 -1.4052  0.4606
 3675TIP3    H232517   2.704   5.081  12.667 -2.8535 -1.2730  2.4059
 3676TIP3   OH232518   4.044   0.033   3.821 -0.4952  0.3377 -0.4577
 3676TIP3    H132519   3.972   0.039   3.885  0.7910  1.0290  0.9949
 3676TIP3    H232520   4.048   0.120   3.781  0.0929  0.5928  0.1322
 3677TIP3   OH232521   6.675   5.073  12.392 -0.2439  0.0319 -0.7856
 3677TIP3    H132522   6.769   5.087  12.404  0.0047 -1.3421 -0.9401
 3677TIP3    H232523   6.643   5.156  12.356  0.9138  0.5006 -0.7944
 3678TIP3   OH232524   3.443   4.890   0.568 -0.3113 -0.2329  0.1277
 3678TIP3    H132525   3.402   4.870   0.484  0.1201 -0.3510 -0.0569
 3678TIP3    H232526   3.381   4.857   0.634 -0.2650 -0.8974 -0.1536
 3679TIP3   OH232527   0.391   2.997   1.573  0.0576  0.7602 -0.1613
 3679TIP3    H132528   0.460   2.979   1.637  1.4521 -0.0248 -1.8230
 3679TIP3    H232529   0.405   3.088   1.548 -1.3157  1.4937  1.5528
 3680TIP3   OH232530   2.540   2.719  14.628 -0.6419  0.2727  0.0475
 3680TIP3    H132531   2.627   2.755  14.607 -0.4906  0.0026  0.2038
 3680TIP3    H232532   2.484   2.796  14.636  0.0649  0.6532  2.2043
 3681TIP3   OH232533   3.604   0.477  14.098 -0.1325 -0.4518 -0.6879
 3681TIP3    H132534   3.627   0.569  14.111 -0.7851 -0.1511 -1.5619
 3681TIP3    H232535   3.666   0.445  14.033  0.4815 -0.8143  0.0540
 3682TIP3   OH232536   3.484   4.108  13.525  0.2857  0.2701  1.1177
 3682TIP3    H132537   3.406   4.108  13.579  0.0518 -1.8284  0.8492
 3682TIP3    H232538   3.454   4.138  13.439 -0.0388  0.3052  1.2429
 3683TIP3   OH232539   5.772   4.261  12.231 -0.2899  0.1196 -0.3364
 3683TIP3    H132540   5.735   4.175  12.255 -2.5407  0.3635 -2.5347
 3683TIP3    H232541   5.866   4.248  12.234 -0.5573 -2.1696  0.3138
 3684TIP3   OH232542   4.932   2.567   2.142 -0.2727 -0.0953 -0.2375
 3684TIP3    H132543   4.871   2.641   2.142 -0.4573 -0.2474 -0.3052
 3684TIP3    H232544   5.008   2.599   2.191 -0.4286  0.0744 -0.1052
 3685TIP3   OH232545   4.233   4.274  13.136 -0.6586  0.5407  0.1980
 3685TIP3    H132546   4.158   4.242  13.185 -0.3954 -0.2014  0.1272
 3685TIP3    H232547   4.211   4.257  13.044  0.0864 -0.7796  0.2460
 3686TIP3   OH232548   6.825   1.986  13.528  0.0378 -0.0030 -0.3426
 3686TIP3    H132549   6.766   2.019  13.596  0.3162  3.5460 -1.6005
 3686TIP3    H232550   6.771   1.981  13.449  0.3959 -1.2002 -0.5262
 3687TIP3   OH232551   3.596   1.863   0.154  0.0027 -0.1087  0.2963
 3687TIP3    H132552   3.607   1.949   0.112 -1.3002  0.5878  1.2813
 3687TIP3    H232553   3.552   1.810   0.088 -0.5784  0.4774  0.1965
 3688TIP3   OH232554   4.110   4.898  11.806  0.6757  0.0598  0.2042
 3688TIP3    H132555   4.078   4.809  11.790  0.8068 -0.2483  1.5160
 3688TIP3    H232556   4.201   4.896  11.776  0.6365 -0.2171  0.1045
 3689TIP3   OH232557   0.567   0.763   5.853  0.0138 -0.3249 -0.0358
 3689TIP3    H132558   0.634   0.745   5.787 -1.0280 -0.7016 -1.0131
 3689TIP3    H232559   0.484   0.743   5.809 -0.8754  1.8805  0.5339
 3690TIP3   OH232560   1.684   4.456   5.974 -0.3695  0.0020  0.6293
 3690TIP3    H132561   1.625   4.442   5.900 -0.8465 -0.8771  1.1453
 3690TIP3    H232562   1.677   4.375   6.025  1.6110 -0.2980  0.4879
 3691TIP3   OH232563   0.009   3.467   0.143 -0.7852  0.6505 -0.2988
 3691TIP3    H132564  -0.026   3.378   0.142  1.2887 -0.4042  2.8214
 3691TIP3    H232565   0.066   3.471   0.066  0.8980 -1.6861  0.6851
 3692TIP3   OH232566   0.528   6.019  15.431  0.2879 -0.2732  0.3197
 3692TIP3    H132567   0.472   5.952  15.392 -0.6530  1.5773 -1.6895
 3692TIP3    H232568   0.607   5.972  15.458  0.6940 -1.8926 -3.1524
 3693TIP3   OH232569   2.880   6.397  12.890 -0.0114 -0.8963  0.1499
 3693TIP3    H132570   2.937   6.323  12.913  1.3431  0.1579  0.2973
 3693TIP3    H232571   2.890   6.405  12.795  0.7662 -0.1857  0.2840
 3694TIP3   OH232572   1.560   2.506   5.452 -0.1681 -0.2879  0.0830
 3694TIP3    H132573   1.623   2.573   5.480  1.3664 -1.7260  0.2243
 3694TIP3    H232574   1.475   2.541   5.479  0.6226  1.3336  0.6560
 3695TIP3   OH232575   6.132   6.417   0.941  0.4888 -0.2482  0.8845
 3695TIP3    H132576   6.215   6.463   0.936 -0.0300  0.5782 -0.4606
 3695TIP3    H232577   6.132   6.357   0.866  0.0451 -0.5374  1.1076
 3696TIP3   OH232578   3.248   4.577  12.646 -0.0962 -0.3497  0.5355
 3696TIP3    H132579   3.239   4.573  12.742  0.2802 -0.1360  0.5846
 3696TIP3    H232580   3.340   4.557  12.630  0.6715  2.6893  0.4637
 3697TIP3   OH232581   5.326   2.865  11.622  0.2941 -0.1214  0.0527
 3697TIP3    H132582   5.310   2.785  11.673  1.5975  1.0394  2.4618
 3697TIP3    H232583   5.402   2.843  11.568  1.0088 -0.3657  1.1230
 3698TIP3   OH232584   0.238   0.232   0.629 -0.2905  0.3512 -0.1372
 3698TIP3    H132585   0.333   0.217   0.629  0.0137  2.0024 -1.1430
 3698TIP3    H232586   0.216   0.246   0.721  0.6298  0.8653  0.0220
 3699TIP3   OH232587   4.621   6.608   1.327 -0.1811 -0.0551  0.3177
 3699TIP3    H132588   4.706   6.649   1.308 -0.7157 -0.1143 -2.6090
 3699TIP3    H232589   4.620   6.529   1.273 -2.1003 -0.0536  0.2991
 3700TIP3   OH232590   1.957   3.575   2.269 -0.2923 -0.0009 -0.2069
 3700TIP3    H132591   1.911   3.646   2.313 -1.1227 -0.1715 -0.7824
 3700TIP3    H232592   1.892   3.538   2.209  0.0983 -1.2912  0.1386
 3701TIP3   OH232593   2.174   6.832  15.779  0.1654 -0.2846  0.2375
 3701TIP3    H132594   2.261   6.799  15.756 -0.0545 -1.0998  0.5422
 3701TIP3    H232595   2.138   6.864  15.696  0.9140  0.4625  0.1883
 3702TIP3   OH232596   6.728   0.830   2.392  0.7129 -0.5003 -0.4043
 3702TIP3    H132597   6.790   0.807   2.461  0.5221 -1.5118 -0.5512
 3702TIP3    H232598   6.652   0.866   2.438  1.8689  2.0318 -0.2782
 3703TIP3   OH232599   3.975   4.851   0.701  0.4714  0.7107  0.0589
 3703TIP3    H132600   3.982   4.942   0.730  0.5139  0.8797 -0.4787
 3703TIP3    H232601   3.910   4.812   0.760  1.7369  0.6067  1.4608
 3704TIP3   OH232602   5.626   5.291  13.708  0.2631  0.5219 -0.1040
 3704TIP3    H132603   5.569   5.356  13.750  0.6871 -0.2159  1.6833
 3704TIP3    H232604   5.595   5.288  13.617 -1.1991  1.6163  0.3149
 3705TIP3   OH232605   5.592   5.504   5.430 -0.5052 -0.2716 -0.0226
 3705TIP3    H132606   5.529   5.484   5.499 -0.5442  1.1109  0.3740
 3705TIP3    H232607   5.539   5.522   5.352 -0.8890  3.5078  0.9371
 3706TIP3   OH232608   5.669   4.049  15.394 -0.5772 -0.6159  0.4775
 3706TIP3    H132609   5.587   4.019  15.433 -1.4551  0.6567 -0.3397
 3706TIP3    H232610   5.727   4.063  15.469 -1.6847  0.1481  1.2211
 3707TIP3   OH232611   5.696   3.478   0.031 -0.5745  0.1844  0.4879
 3707TIP3    H132612   5.768   3.426  -0.006  0.3819  1.5346  0.3828
 3707TIP3    H232613   5.647   3.508  -0.045 -0.5031  0.3074  0.4893
 3708TIP3   OH232614   4.453   4.530  16.392  0.1040 -0.2296  0.6871
 3708TIP3    H132615   4.461   4.435  16.397  1.9006 -0.2727 -1.4536
 3708TIP3    H232616   4.532   4.564  16.434 -0.9022  0.4169  2.1774
 3709TIP3   OH232617   4.202   1.900  16.017  0.5595  0.3203 -0.3291
 3709TIP3    H132618   4.184   1.845  15.941  2.3262  1.5679 -1.7208
 3709TIP3    H232619   4.204   1.839  16.091  2.0268 -1.4675 -1.7501
 3710TIP3   OH232620   6.150   6.331  15.755  0.2744 -0.4461 -0.2706
 3710TIP3    H132621   6.229   6.329  15.809  0.1968  2.4124  0.1252
 3710TIP3    H232622   6.158   6.255  15.697  2.8530 -0.7531  0.3685
 3711TIP3   OH232623   2.121   1.592  14.733  0.2711  0.2749 -0.1679
 3711TIP3    H132624   2.209   1.577  14.768  0.3391 -1.6300 -1.0592
 3711TIP3    H232625   2.129   1.577  14.639 -0.7841  1.2431 -0.4362
 3712TIP3   OH232626   1.095   0.283   3.863 -0.4703  0.3959  0.3153
 3712TIP3    H132627   1.092   0.255   3.771  0.0538  1.1459  0.0524
 3712TIP3    H232628   1.005   0.308   3.884 -0.6652 -0.1364  0.1242
 3713TIP3   OH232629   1.062   5.705   1.783 -0.2394  0.4409 -0.2535
 3713TIP3    H132630   1.101   5.660   1.858 -1.6579 -0.1600  0.1574
 3713TIP3    H232631   0.970   5.714   1.806 -0.5023  1.1470 -1.5060
 3714TIP3   OH232632   0.343   1.452   4.867 -0.8216 -0.0504  0.1706
 3714TIP3    H132633   0.433   1.481   4.853 -0.6116 -1.3796 -1.6616
 3714TIP3    H232634   0.293   1.533   4.876  0.3062  0.7634 -0.5649
 3715TIP3   OH232635   4.710   5.892  13.877  0.6567  0.4965  0.5488
 3715TIP3    H132636   4.796   5.934  13.881  1.5917 -1.0126 -1.7201
 3715TIP3    H232637   4.712   5.842  13.796 -2.6322  0.9020  0.0926
 3716TIP3   OH232638   2.768   2.087  14.645 -0.1712 -0.4196 -0.9495
 3716TIP3    H132639   2.802   2.146  14.712 -0.5880 -0.5556 -0.6147
 3716TIP3    H232640   2.709   2.028  14.692  0.1516 -1.0350 -1.2965
 3717TIP3   OH232641   2.299   1.970   2.048  0.4065  0.1642 -0.3775
 3717TIP3    H132642   2.209   1.996   2.066  0.1626  0.0313 -1.3260
 3717TIP3    H232643   2.312   1.990   1.955  1.4879  0.5492 -0.1632
 3718TIP3   OH232644   2.926   6.445   4.571 -0.2595 -0.9859 -0.8481
 3718TIP3    H132645   2.931   6.350   4.566  0.8763 -1.1168  1.5602
 3718TIP3    H232646   2.884   6.463   4.655  0.8567  0.6215 -0.5800
 3719TIP3   OH232647   2.400   2.587  16.402 -0.3477  0.3012 -0.7802
 3719TIP3    H132648   2.470   2.529  16.372  1.1851  0.1673  2.5950
 3719TIP3    H232649   2.381   2.556  16.491 -3.9788  1.0596 -1.1501
 3720TIP3   OH232650   0.021   1.637   1.518 -0.5259 -0.3829 -0.2070
 3720TIP3    H132651   0.085   1.604   1.581 -0.4562  0.6745  0.3026
 3720TIP3    H232652   0.012   1.567   1.454  0.3057 -0.9997  0.3267
 3721TIP3   OH232653   5.544   5.485  16.535 -0.7851 -0.2771  0.4137
 3721TIP3    H132654   5.514   5.537  16.460  0.3122 -0.0603  0.1178
 3721TIP3    H232655   5.609   5.540  16.578 -0.3462 -0.9917  0.6809
 3722TIP3   OH232656   2.798   2.161  16.600  0.3254  0.0884  0.3083
 3722TIP3    H132657   2.791   2.151  16.505  1.9080  2.0332 -0.0925
 3722TIP3    H232658   2.754   2.244  16.619 -1.8886 -1.3136  1.6359
 3723TIP3   OH232659   5.826   4.323  15.469  0.1344 -0.4776  0.6367
 3723TIP3    H132660   5.782   4.246  15.505 -0.8604 -1.7095 -2.8311
 3723TIP3    H232661   5.912   4.291  15.441 -0.2467 -0.3980 -0.7294
 3724TIP3   OH232662   4.583   1.814   5.348 -0.0163  0.6728 -0.0808
 3724TIP3    H132663   4.679   1.809   5.352 -0.0751 -2.5454 -0.6009
 3724TIP3    H232664   4.558   1.856   5.430  1.8183  2.0623 -0.1691
 3725TIP3   OH232665   1.069   1.996   5.094  0.5721  0.3458  0.3485
 3725TIP3    H132666   1.000   1.989   5.161  0.8414  0.2293  0.6166
 3725TIP3    H232667   1.024   2.030   5.017 -0.2305 -1.6157 -0.1197
 3726TIP3   OH232668   3.514   5.990  15.195 -0.7889  0.5596  0.1206
 3726TIP3    H132669   3.495   6.066  15.250 -0.5325  0.8603 -0.2006
 3726TIP3    H232670   3.432   5.941  15.192 -0.1773 -0.7747  2.7643
 3727TIP3   OH232671   3.171   0.996  11.902  0.4285  0.1486  0.2987
 3727TIP3    H132672   3.112   0.921  11.891  0.3309  0.1078  1.0347
 3727TIP3    H232673   3.124   1.070  11.864  0.7569 -0.2534 -0.9479
 3728TIP3   OH232674   2.553   1.362  16.315 -0.0306 -0.2234  0.0823
 3728TIP3    H132675   2.626   1.391  16.371  0.3831  0.8174 -0.9462
 3728TIP3    H232676   2.586   1.372  16.226 -1.3249 -0.0384 -0.3997
 3729TIP3   OH232677   0.545   2.672  13.463 -0.7725  0.4898  0.1345
 3729TIP3    H132678   0.583   2.590  13.496 -0.0333  0.7710 -0.0180
 3729TIP3    H232679   0.516   2.651  13.374 -0.5028  0.4205  0.0643
 3730TIP3   OH232680   4.712   1.025  10.119 -0.0237 -0.3688  0.0235
 3730TIP3    H132681   4.692   0.955  10.182 -0.5042  1.0297  1.4789
 3730TIP3    H232682   4.626   1.059  10.093  0.1742  1.8537  1.9208
 3731TIP3   OH232683   2.114   6.241  11.681  0.4843  0.2995  0.2429
 3731TIP3    H132684   2.059   6.290  11.619 -0.9168 -0.4331  0.8431
 3731TIP3    H232685   2.196   6.226  11.634 -0.8327 -0.9971 -1.7947
 3732TIP3   OH232686   1.657   5.697   1.927 -0.3501 -0.1620  0.2999
 3732TIP3    H132687   1.708   5.641   1.985 -2.0660 -0.6141  1.4372
 3732TIP3    H232688   1.572   5.706   1.970 -0.5137  2.4270 -0.3827
 3733TIP3   OH232689   3.908   0.331   3.502 -0.1403  0.7039  0.0478
 3733TIP3    H132690   3.837   0.394   3.489 -0.1663  0.5145 -0.7890
 3733TIP3    H232691   3.909   0.280   3.421 -2.1817 -2.4518  1.7956
 3734TIP3   OH232692   1.456   2.814  12.562 -1.0591 -0.2933 -0.0311
 3734TIP3    H132693   1.471   2.729  12.604 -4.0312 -0.7272  0.3140
 3734TIP3    H232694   1.526   2.820  12.497  0.0815 -2.3380  0.8964
 3735TIP3   OH232695   0.961   4.902  15.903 -0.3553 -0.0385 -0.5238
 3735TIP3    H132696   1.030   4.960  15.873 -0.9012  0.2336 -1.2947
 3735TIP3    H232697   1.003   4.845  15.967  0.9144 -0.7651 -1.9484
 3736TIP3   OH232698   2.851   2.376  13.236 -0.4635  0.0395 -0.4230
 3736TIP3    H132699   2.847   2.463  13.196  1.2545 -0.4885 -1.9065
 3736TIP3    H232700   2.771   2.333  13.207 -2.1385  1.5654  1.6176
 3737TIP3   OH232701   2.593   5.260   2.435  0.3000 -0.4976 -0.2676
 3737TIP3    H132702   2.609   5.206   2.358 -0.8157 -0.6592 -0.4046
 3737TIP3    H232703   2.511   5.228   2.471  1.4687 -1.3406  1.8220
 3738TIP3   OH232704   3.757   5.785  13.451 -0.0015 -0.3971  0.1098
 3738TIP3    H132705   3.823   5.831  13.503  1.8413 -1.5220 -1.1204
 3738TIP3    H232706   3.674   5.804  13.495  0.9252  2.2194  0.9359
 3739TIP3   OH232707   0.955   4.544  15.613  0.0787  0.2244 -0.2819
 3739TIP3    H132708   1.035   4.577  15.656  0.6310 -1.1824 -0.1892
 3739TIP3    H232709   0.889   4.546  15.682  0.3711  0.1673  0.0053
 3740TIP3   OH232710   4.440   5.724   1.479  0.1707 -0.5199  0.2682
 3740TIP3    H132711   4.348   5.710   1.500  0.1263  0.1518  0.5662
 3740TIP3    H232712   4.485   5.648   1.516 -0.1941 -0.5472  0.6601
 3741TIP3   OH232713   1.871   5.631  12.015  0.6109 -0.6377  0.8011
 3741TIP3    H132714   1.898   5.552  11.968 -0.5351 -0.9511  0.6131
 3741TIP3    H232715   1.855   5.695  11.946  1.1976 -0.3482  0.9305
 3742TIP3   OH232716   6.322   2.279  14.989 -0.4708  0.8371 -0.0921
 3742TIP3    H132717   6.339   2.365  14.950 -2.0519  1.1403 -0.1821
 3742TIP3    H232718   6.271   2.298  15.068 -0.4507  0.0134  0.1263
 3743TIP3   OH232719   3.898   2.921  16.192  0.5279 -0.3565  0.2466
 3743TIP3    H132720   3.885   2.835  16.233 -0.3179 -0.7951 -0.8919
 3743TIP3    H232721   3.822   2.972  16.220  0.6384 -0.2164  0.2963
 3744TIP3   OH232722   1.219   6.133   1.663 -0.2888 -0.1356 -0.0147
 3744TIP3    H132723   1.186   6.043   1.657  1.1046 -0.7494  1.0811
 3744TIP3    H232724   1.279   6.142   1.589  0.0301 -0.3101  0.2222
 3745TIP3   OH232725   3.748   6.499  16.921 -0.4511  0.3618 -0.2721
 3745TIP3    H132726   3.752   6.459  17.008 -3.3771 -0.0818 -0.2393
 3745TIP3    H232727   3.755   6.425  16.860 -4.6042 -0.3191 -0.2217
 3746TIP3   OH232728   3.165   0.728   5.016 -0.2542 -0.3394  0.2056
 3746TIP3    H132729   3.242   0.718   5.073 -1.1300 -1.0620  1.3212
 3746TIP3    H232730   3.173   0.657   4.953 -0.1725 -0.6167  0.5236
 3747TIP3   OH232731   5.436   0.253   1.901 -0.5064 -0.1761 -0.4833
 3747TIP3    H132732   5.453   0.251   1.807 -0.9400  0.6871 -0.5909
 3747TIP3    H232733   5.502   0.313   1.937 -1.1073  0.4669 -0.4241
 3748TIP3   OH232734   5.638   4.360  16.476 -0.1005 -0.4485  0.3126
 3748TIP3    H132735   5.644   4.377  16.382  1.8657 -0.3333  0.4191
 3748TIP3    H232736   5.729   4.362  16.506 -0.6096 -1.5024  2.0400
 3749TIP3   OH232737   6.220   3.680   0.365 -0.4753 -0.0308 -0.4049
 3749TIP3    H132738   6.312   3.656   0.379  0.0114  1.3382 -1.0629
 3749TIP3    H232739   6.170   3.612   0.409  0.8696 -0.4782  0.4762
 3750TIP3   OH232740   2.392   6.826   5.949 -0.8843 -0.3482 -0.7155
 3750TIP3    H132741   2.300   6.810   5.967 -0.8530 -0.8246 -0.9610
 3750TIP3    H232742   2.428   6.740   5.928 -0.0317 -0.4220  0.8972
 3751TIP3   OH232743   2.460   4.332  14.637  0.0259  0.2408 -0.1678
 3751TIP3    H132744   2.368   4.316  14.614 -0.2299 -2.2319  1.9828
 3751TIP3    H232745   2.494   4.245  14.658  2.9017  1.1045 -0.8669
 3752TIP3   OH232746   2.607   5.351  11.240  0.0806  0.3020  0.1665
 3752TIP3    H132747   2.688   5.315  11.206  0.2035 -0.2613  1.0342
 3752TIP3    H232748   2.631   5.386  11.326 -0.3395  1.2079 -0.0750
 3753TIP3   OH232749   5.460   3.516  15.680  0.4684  0.3603 -0.4517
 3753TIP3    H132750   5.454   3.562  15.596  2.1221 -0.7188 -1.2274
 3753TIP3    H232751   5.543   3.469  15.675  1.0032  0.8909  2.1353
 3754TIP3   OH232752   3.187   1.645   0.061 -0.0281  0.3738  0.2999
 3754TIP3    H132753   3.193   1.740   0.048 -1.0221  0.5249  0.8562
 3754TIP3    H232754   3.238   1.608  -0.011 -1.8463  1.2696 -1.5523
 3755TIP3   OH232755   1.003   1.393  11.443  0.5179  0.4726 -0.3202
 3755TIP3    H132756   1.034   1.318  11.393  0.1336 -1.0057  1.5484
 3755TIP3    H232757   1.082   1.442  11.465  0.9679 -0.3787 -0.0311
 3756TIP3   OH232758   1.599   1.731   2.859  0.1157  0.7604 -0.0920
 3756TIP3    H132759   1.562   1.809   2.819  0.7678  0.8641 -0.5229
 3756TIP3    H232760   1.602   1.750   2.952 -0.2093  1.0392 -0.1370
 3757TIP3   OH232761   2.530   5.268  13.757 -0.1035 -0.4898  0.4026
 3757TIP3    H132762   2.618   5.301  13.778  0.0934 -1.6687  1.5530
 3757TIP3    H232763   2.474   5.305  13.825 -1.0497  2.2980 -1.6956
 3758TIP3   OH232764   0.574   3.781   5.690 -0.4612  0.0886 -0.2403
 3758TIP3    H132765   0.620   3.833   5.756 -2.2871  2.4825 -0.7173
 3758TIP3    H232766   0.627   3.790   5.611 -0.4000  0.6446 -0.1365
 3759TIP3   OH232767   6.022   1.407  13.688  0.8113 -0.1479  0.3540
 3759TIP3    H132768   5.987   1.356  13.615 -0.4272  1.3262 -0.1275
 3759TIP3    H232769   5.954   1.404  13.754  0.7650  0.8095  0.3530
 3760TIP3   OH232770   5.593   5.527   4.321 -0.2261  0.0305 -0.3499
 3760TIP3    H132771   5.532   5.456   4.300  0.4678 -0.6607 -0.0726
 3760TIP3    H232772   5.572   5.551   4.411  0.0342 -0.3295 -0.1948
 3761TIP3   OH232773   0.302   4.740   1.612  0.1936  0.5182  0.5798
 3761TIP3    H132774   0.270   4.658   1.649 -1.1940  1.7281  2.2000
 3761TIP3    H232775   0.282   4.734   1.518  0.0812 -0.9466  0.6875
 3762TIP3   OH232776   2.350   0.519   2.787  0.1493  0.4420  0.1625
 3762TIP3    H132777   2.290   0.496   2.858 -0.2370  2.3337  0.5089
 3762TIP3    H232778   2.301   0.579   2.732  0.9033  0.0433 -0.9814
 3763TIP3   OH232779   1.295   6.751  16.025  0.6912  0.2619 -0.5111
 3763TIP3    H132780   1.281   6.720  16.115  1.3973  0.2908 -0.3907
 3763TIP3    H232781   1.374   6.705  15.996 -0.9787 -1.8254 -2.0808
 3764TIP3   OH232782   3.501   1.174   0.447 -0.4116 -0.6030 -0.2109
 3764TIP3    H132783   3.433   1.164   0.381  0.2443 -0.2858 -0.9552
 3764TIP3    H232784   3.582   1.184   0.396  0.2988 -1.7074  0.6615
 3765TIP3   OH232785   2.032   3.267  11.721 -0.1573  0.5756  0.4240
 3765TIP3    H132786   1.939   3.252  11.737 -0.5565 -0.0128 -2.0729
 3765TIP3    H232787   2.051   3.218  11.641  2.9928 -1.5946  2.2892
 3766TIP3   OH232788   1.535   2.961   1.675  0.2165 -0.2351  0.7055
 3766TIP3    H132789   1.459   3.019   1.683 -0.2561 -0.9342  1.5402
 3766TIP3    H232790   1.519   2.911   1.595 -0.0458 -0.1627  0.7127
 3767TIP3   OH232791   3.455   0.261  12.467  0.2847  0.1373 -0.8880
 3767TIP3    H132792   3.542   0.233  12.497 -0.8378 -2.0217  0.6134
 3767TIP3    H232793   3.454   0.356  12.482  2.1160  0.0913 -0.2068
 3768TIP3   OH232794   0.869   4.776  12.794  0.4646 -0.2946 -0.4663
 3768TIP3    H132795   0.917   4.695  12.782 -0.6770 -1.0459 -0.0913
 3768TIP3    H232796   0.935   4.840  12.822  0.9210 -1.8060  2.1627
 3769TIP3   OH232797   3.073   4.957   3.084  0.3841 -0.2952  0.2786
 3769TIP3    H132798   3.127   5.031   3.057  0.4878 -0.3187  0.4203
 3769TIP3    H232799   3.123   4.915   3.154 -0.1231  0.0662  0.8603
 3770TIP3   OH232800   0.555   1.988   0.488  0.0918  0.3040  0.6432
 3770TIP3    H132801   0.611   1.971   0.564  2.3298 -1.0078 -1.1490
 3770TIP3    H232802   0.541   1.901   0.450 -0.3525  1.0099 -0.8491
 3771TIP3   OH232803   1.569   1.692  12.637 -0.1997  0.3339 -0.0103
 3771TIP3    H132804   1.621   1.768  12.611 -1.8137  1.7134  0.6058
 3771TIP3    H232805   1.624   1.645  12.700 -0.3307  2.7211  2.0011
 3772TIP3   OH232806   0.231   2.742   4.708  0.0818 -0.2614 -0.6095
 3772TIP3    H132807   0.326   2.745   4.722  0.2617  0.4786 -1.8042
 3772TIP3    H232808   0.193   2.784   4.784  0.7526  0.0601 -0.4485
 3773TIP3   OH232809   3.708   5.988   3.363 -0.0571 -0.2456 -0.2105
 3773TIP3    H132810   3.665   6.072   3.381 -1.0807 -1.1651  1.9838
 3773TIP3    H232811   3.636   5.928   3.343  0.6219 -0.7281 -1.2620
 3774TIP3   OH232812   6.862   3.803  15.412 -0.1441  0.4038  0.0645
 3774TIP3    H132813   6.885   3.867  15.480  1.4081 -0.2397  0.1813
 3774TIP3    H232814   6.926   3.732  15.423 -0.5621 -0.2304 -1.3669
 3775TIP3   OH232815   4.868   2.501   0.949 -0.0115 -0.1042  0.3948
 3775TIP3    H132816   4.876   2.589   0.986  2.5611 -0.8613  1.9745
 3775TIP3    H232817   4.958   2.468   0.946 -0.8108 -2.4393 -0.7934
 3776TIP3   OH232818   1.145   3.212  14.177  0.2774  0.3305  0.1880
 3776TIP3    H132819   1.201   3.135  14.175 -1.2192 -0.8044 -2.3311
 3776TIP3    H232820   1.165   3.259  14.096  0.1296  1.8682  0.9906
 3777TIP3   OH232821   1.223   3.153  16.259  0.7871 -0.1138  0.2715
 3777TIP3    H132822   1.262   3.112  16.182  0.1847  1.7450 -1.0823
 3777TIP3    H232823   1.174   3.227  16.225  0.6388  0.8783  2.4726
 3778TIP3   OH232824   3.684   0.491  14.440 -0.0065 -0.1861 -0.0045
 3778TIP3    H132825   3.724   0.508  14.526  0.6861  1.6548 -0.6449
 3778TIP3    H232826   3.592   0.473  14.459 -0.0023  0.8371  1.0953
 3779TIP3   OH232827   4.108   5.867  11.430  0.2401 -0.0834  0.0300
 3779TIP3    H132828   4.069   5.779  11.430  2.9362 -1.4276 -1.6855
 3779TIP3    H232829   4.062   5.915  11.362 -0.7920 -0.3726  0.5066
 3780TIP3   OH232830   1.693   6.306  11.641  0.1049 -0.8602 -0.0437
 3780TIP3    H132831   1.661   6.395  11.636 -0.5621 -1.1312 -0.7762
 3780TIP3    H232832   1.779   6.314  11.683 -0.8624 -0.1306  1.9016
 3781TIP3   OH232833   2.551   3.531   1.355  0.2960  0.2561  0.3139
 3781TIP3    H132834   2.645   3.548   1.346 -0.0221  1.8809 -0.2763
 3781TIP3    H232835   2.533   3.461   1.293  1.1535 -0.2213  0.5907
 3782TIP3   OH232836   5.052   3.562  13.877 -0.1788  0.3481 -0.2115
 3782TIP3    H132837   5.069   3.476  13.840  0.3135  0.1348  0.4736
 3782TIP3    H232838   5.073   3.623  13.807  0.5619 -0.0530 -0.3568
 3783TIP3   OH232839   2.712   1.028   4.361 -0.0298  0.2505  0.3049
 3783TIP3    H132840   2.730   1.116   4.395 -0.1370  0.0704  0.8389
 3783TIP3    H232841   2.678   0.980   4.436  0.4581 -0.3834  0.1307
 3784TIP3   OH232842   2.450   4.318  16.863  0.5606 -0.0115  0.2488
 3784TIP3    H132843   2.424   4.404  16.830 -1.0976 -0.2132  0.9202
 3784TIP3    H232844   2.504   4.336  16.939 -1.6448  0.5050  1.7796
 3785TIP3   OH232845   4.887   0.663  14.281  0.1488 -0.6327 -0.0570
 3785TIP3    H132846   4.964   0.625  14.323 -0.6738 -1.2566  0.9305
 3785TIP3    H232847   4.820   0.664  14.350 -0.8184 -0.3934 -0.9777
 3786TIP3   OH232848   0.659   1.541   3.482 -0.5296 -0.2808 -0.2989
 3786TIP3    H132849   0.718   1.574   3.550  0.0780  0.0388 -0.9710
 3786TIP3    H232850   0.595   1.487   3.530 -0.7861  0.8404  0.6605
 3787TIP3   OH232851   5.597   5.900   0.073 -0.5371  0.2508 -0.0812
 3787TIP3    H132852   5.645   5.905   0.156 -0.3534  1.0166 -0.2288
 3787TIP3    H232853   5.555   5.985   0.064  0.3874  0.6004 -1.3462
 3788TIP3   OH232854   1.624   2.620  16.555  0.4508  0.0414  0.0723
 3788TIP3    H132855   1.581   2.652  16.476 -0.3139  0.4191  0.6291
 3788TIP3    H232856   1.715   2.647  16.545  0.1837  0.8218 -0.2914
 3789TIP3   OH232857   4.595   4.607   1.658  0.8190 -0.0618  0.1128
 3789TIP3    H132858   4.507   4.582   1.684  0.7478  1.4667  1.4812
 3789TIP3    H232859   4.582   4.672   1.589  0.8835  0.0185  0.1765
 3790TIP3   OH232860   1.422   0.861  11.987  0.0411 -0.3120  0.2181
 3790TIP3    H132861   1.421   0.920  11.912 -1.2782 -0.6181 -0.0255
 3790TIP3    H232862   1.467   0.910  12.056  0.6142  0.2511 -0.5432
 3791TIP3   OH232863   4.761   6.691  12.153 -0.0312  0.2506  0.3141
 3791TIP3    H132864   4.793   6.620  12.097  0.7329  0.5580  0.3447
 3791TIP3    H232865   4.691   6.733  12.103  0.7136  0.5888 -0.4628
 3792TIP3   OH232866   6.294   2.818  13.885  0.5263  0.6491 -0.2940
 3792TIP3    H132867   6.245   2.875  13.945  2.5558  2.0480  0.1400
 3792TIP3    H232868   6.271   2.850  13.798 -0.1729  0.5599 -0.1455
 3793TIP3   OH232869   1.763   1.135   3.478 -0.1520 -0.8606 -0.2813
 3793TIP3    H132870   1.791   1.224   3.458  1.1803 -0.6935  1.9964
 3793TIP3    H232871   1.671   1.132   3.449 -0.7201  1.7496  0.9009
 3794TIP3   OH232872   2.595   2.864   0.252 -0.6197 -0.4487  0.2713
 3794TIP3    H132873   2.625   2.827   0.168  2.5865  0.3225  0.9352
 3794TIP3    H232874   2.612   2.795   0.316  2.2458  0.7902  1.0105
 3795TIP3   OH232875   6.799   6.424  13.081  0.3264 -0.1785  0.2947
 3795TIP3    H132876   6.735   6.488  13.048 -1.6104 -2.1075  0.1341
 3795TIP3    H232877   6.870   6.427  13.017 -2.1847 -1.9737 -2.8799
 3796TIP3   OH232878   1.331   4.932  13.827  0.1284  0.4060  0.2082
 3796TIP3    H132879   1.312   4.964  13.738  0.7897 -1.7308 -0.7722
 3796TIP3    H232880   1.424   4.953  13.840  0.2123  0.1186  0.0956
 3797TIP3   OH232881   4.888   5.630   4.830 -0.0618  0.0728  0.3172
 3797TIP3    H132882   4.933   5.616   4.746  0.9694  3.3236  0.1996
 3797TIP3    H232883   4.933   5.704   4.869 -1.6848 -0.2287  2.9731
 3798TIP3   OH232884   4.102   5.335  14.674  0.7197 -0.1584 -0.2835
 3798TIP3    H132885   4.120   5.303  14.586  1.1675  1.7031 -0.9130
 3798TIP3    H232886   4.155   5.279  14.731  0.0570 -1.7010 -1.1065
 3799TIP3   OH232887   6.587   5.532  14.670 -0.8083 -0.7113  0.3051
 3799TIP3    H132888   6.622   5.486  14.746  3.0782 -0.7152 -1.2734
 3799TIP3    H232889   6.566   5.620  14.703  2.4707 -0.1287  1.1692
 3800TIP3   OH232890   4.061   3.364  15.116 -0.5398  0.4822 -0.5475
 3800TIP3    H132891   4.033   3.278  15.148 -0.8964 -0.3468 -2.9125
 3800TIP3    H232892   4.151   3.372  15.147 -0.1059 -1.2712 -1.2387
 3801TIP3   OH232893   6.575   3.461  14.351 -0.0396  0.1553  0.1328
 3801TIP3    H132894   6.634   3.442  14.424 -0.4966  2.3963  1.1740
 3801TIP3    H232895   6.493   3.418  14.376  0.3215 -0.6343  0.0092
 3802TIP3   OH232896   2.026   1.453   1.634 -0.6256 -0.0496 -0.2198
 3802TIP3    H132897   2.083   1.457   1.710 -1.7355  0.9839  0.5888
 3802TIP3    H232898   1.950   1.506   1.658 -0.7246  0.8418 -2.2775
 3803TIP3   OH232899   0.064   2.951   3.005  0.3971 -0.8060  0.6796
 3803TIP3    H132900   0.053   2.906   3.089  1.0142 -1.7113  0.2916
 3803TIP3    H232901  -0.021   2.944   2.963  0.8029 -2.7046  0.1140
 3804TIP3   OH232902   4.982   4.915   2.579 -0.1028  0.2552  0.4050
 3804TIP3    H132903   4.938   4.832   2.594 -2.6859  0.9723 -2.1975
 3804TIP3    H232904   4.953   4.971   2.651 -0.6870 -0.2746  0.5952
 3805TIP3   OH232905   3.612   3.076   4.581  0.3235 -0.2279 -0.2521
 3805TIP3    H132906   3.634   3.114   4.666  0.1562  1.7413 -1.0373
 3805TIP3    H232907   3.663   2.994   4.577  0.3326 -0.3444  1.7088
 3806TIP3   OH232908   3.681   4.663   3.559 -0.0979 -0.5395 -0.0746
 3806TIP3    H132909   3.676   4.758   3.568  1.4461 -0.5665  1.9248
 3806TIP3    H232910   3.714   4.649   3.470 -1.5969  0.6962 -0.8710
 3807TIP3   OH232911   1.232   3.797   2.526  0.3134  0.0993  0.4572
 3807TIP3    H132912   1.311   3.841   2.495 -0.9147  2.2111  0.1260
 3807TIP3    H232913   1.161   3.839   2.477 -1.0357 -1.6436  0.8423
 3808TIP3   OH232914   1.758   5.291  12.385  0.2114  0.3305  0.2083
 3808TIP3    H132915   1.736   5.199  12.370 -0.4964  0.6650 -0.9943
 3808TIP3    H232916   1.828   5.309  12.322 -2.0235  1.4730 -2.1280
 3809TIP3   OH232917   3.186   5.945  15.403 -0.3052 -0.0253 -0.9049
 3809TIP3    H132918   3.173   6.036  15.432  0.8567 -0.0049 -0.3932
 3809TIP3    H232919   3.141   5.940  15.319  1.5995  1.7301 -2.1256
 3810TIP3   OH232920   2.197   1.318   0.297  0.2988 -0.1992  0.3430
 3810TIP3    H132921   2.151   1.249   0.345  2.3426 -2.2438 -0.4242
 3810TIP3    H232922   2.264   1.271   0.246  2.8504  2.4822  0.9637
 3811TIP3   OH232923   4.038   6.392  15.215  0.3975  0.3813  0.6424
 3811TIP3    H132924   4.120   6.441  15.218 -0.4714  1.8719  0.9556
 3811TIP3    H232925   3.973   6.452  15.252 -0.8344 -0.7811  0.4309
 3812TIP3   OH232926   1.612   6.130   0.112  0.4202  0.4211 -0.6795
 3812TIP3    H132927   1.680   6.185   0.152  0.4341 -0.0340 -0.0546
 3812TIP3    H232928   1.654   6.089   0.037  0.3915  1.3052 -1.1895
 3813TIP3   OH232929   4.361   3.120  11.769  0.3785 -0.3347 -0.4295
 3813TIP3    H132930   4.369   3.055  11.838 -1.1893 -1.3013 -1.1135
 3813TIP3    H232931   4.450   3.156  11.760  0.6331 -0.1549  2.0520
 3814TIP3   OH232932   2.419   3.741   5.650  0.2418  0.0157  0.4076
 3814TIP3    H132933   2.407   3.675   5.718 -1.4386 -1.2732 -1.0727
 3814TIP3    H232934   2.361   3.813   5.676 -0.0712 -0.2867  0.5549
 3815TIP3   OH232935   0.331   3.957   6.101 -0.4410 -0.3924  0.2978
 3815TIP3    H132936   0.254   3.906   6.127 -1.5929  0.2000 -1.7552
 3815TIP3    H232937   0.296   4.044   6.082  0.5778 -0.3433 -1.4951
 3816TIP3   OH232938   5.204   0.411  14.763  0.7110  0.9384  0.5948
 3816TIP3    H132939   5.209   0.409  14.858 -0.0135 -0.5319  0.6285
 3816TIP3    H232940   5.294   0.431  14.735  1.0260  0.9690  1.5747
 3817TIP3   OH232941   1.706   1.714   3.679 -0.2093 -0.4054 -0.3290
 3817TIP3    H132942   1.677   1.749   3.763  0.2261  2.3550 -1.2574
 3817TIP3    H232943   1.632   1.730   3.620  0.4093 -0.0953 -1.0218
 3818TIP3   OH232944   4.999   4.312  14.054  0.7156 -0.2623  0.0570
 3818TIP3    H132945   5.027   4.269  14.135  1.1065 -1.6011 -0.7460
 3818TIP3    H232946   5.056   4.389  14.047  1.1480 -0.5165  0.6982
 3819TIP3   OH232947   1.788   5.456  11.156  0.2108  0.0019 -0.1296
 3819TIP3    H132948   1.824   5.456  11.244  4.3018 -1.5063 -1.5381
 3819TIP3    H232949   1.776   5.549  11.135 -0.7127  0.3786  1.8973
 3820TIP3   OH232950   3.634   4.427  16.150  0.3540 -0.3175 -0.2030
 3820TIP3    H132951   3.709   4.455  16.202 -0.2259  0.0460  0.4437
 3820TIP3    H232952   3.584   4.370  16.207 -0.7835  0.8235 -0.0081
 3821TIP3   OH232953   2.494   4.974  11.502 -0.5469 -0.7044  0.0530
 3821TIP3    H132954   2.443   4.895  11.522 -0.2213 -0.4304  2.1492
 3821TIP3    H232955   2.585   4.944  11.505 -0.4348 -0.3174  0.5869
 3822TIP3   OH232956   4.011   1.032  11.589  0.5843  0.5121  0.4299
 3822TIP3    H132957   3.929   0.984  11.596 -0.0660  1.6083  0.5203
 3822TIP3    H232958   4.065   0.979  11.530 -0.2229 -0.1708  0.2926
 3823TIP3   OH232959   4.505   2.951  12.608  0.1626 -0.3947 -0.5463
 3823TIP3    H132960   4.510   3.046  12.619  2.5045 -0.4091 -1.1245
 3823TIP3    H232961   4.556   2.933  12.529 -3.3583 -1.8215 -2.7359
 3824TIP3   OH232962   1.552   3.879   3.266  0.4748  0.1180  0.0383
 3824TIP3    H132963   1.603   3.815   3.216 -0.4556 -0.6019 -0.0068
 3824TIP3    H232964   1.604   3.960   3.260  2.1817 -0.8486  0.9279
 3825TIP3   OH232965   1.772   0.192   4.576  0.4214  0.2763  0.4362
 3825TIP3    H132966   1.769   0.252   4.650  1.9579  0.7601  0.1467
 3825TIP3    H232967   1.680   0.170   4.559  0.0076  0.6395  2.0698
 3826TIP3   OH232968   2.006   0.742   0.643  0.1733  0.2794 -0.2174
 3826TIP3    H132969   1.985   0.674   0.707  1.0456  0.5390  0.3652
 3826TIP3    H232970   2.031   0.818   0.696  2.6158 -0.0248 -0.8167
 3827TIP3   OH232971   6.146   2.894   1.468 -0.4312  0.5355  0.0730
 3827TIP3    H132972   6.205   2.950   1.519  1.0803 -2.5625  2.0368
 3827TIP3    H232973   6.072   2.877   1.527 -0.7286  0.2244 -0.3847
 3828TIP3   OH232974   2.632   4.471  13.547 -0.1929 -0.2266 -0.1388
 3828TIP3    H132975   2.707   4.517  13.509  0.9941 -1.2500  0.8539
 3828TIP3    H232976   2.566   4.539  13.559  1.4608  1.2451  1.1655
 3829TIP3   OH232977   4.043   3.825  12.909  0.1981  0.0760 -0.6604
 3829TIP3    H132978   4.138   3.817  12.919  0.1905 -0.1279 -0.7592
 3829TIP3    H232979   4.010   3.825  12.999  0.1846 -1.1362 -0.6468
 3830TIP3   OH232980   0.270   0.356   1.553 -0.0197  0.1803 -0.5897
 3830TIP3    H132981   0.245   0.394   1.468  0.7978 -0.1438 -0.9832
 3830TIP3    H232982   0.322   0.425   1.595 -0.2364  0.2553 -0.4419
 3831TIP3   OH232983   5.227   2.840  14.174 -0.2106 -0.1920  0.2394
 3831TIP3    H132984   5.172   2.843  14.252  2.0491 -1.2608  1.9873
 3831TIP3    H232985   5.316   2.856  14.206  1.0907 -2.6228 -1.7439
 3832TIP3   OH232986   5.521   5.049  13.860 -0.2563  0.4554 -0.1197
 3832TIP3    H132987   5.494   5.080  13.947 -0.8874 -0.8238  0.1672
 3832TIP3    H232988   5.545   5.128  13.813  0.4387  1.1614  1.3384
 3833TIP3   OH232989   0.132   5.346   4.366 -0.1387  0.2995  0.1214
 3833TIP3    H132990   0.163   5.259   4.340 -1.2971 -0.2794  0.6018
 3833TIP3    H232991   0.123   5.340   4.461 -1.6003  0.4569  0.0118
 3834TIP3   OH232992   4.173   2.414   0.687 -0.2252  0.0852 -0.5674
 3834TIP3    H132993   4.111   2.375   0.626  0.9771  0.3365 -2.0099
 3834TIP3    H232994   4.182   2.350   0.757 -0.4041 -0.9809 -1.4903
 3835TIP3   OH232995   2.642   1.855   2.860 -0.1142  0.0360 -0.3956
 3835TIP3    H132996   2.724   1.899   2.878  0.3896 -0.9253 -0.2662
 3835TIP3    H232997   2.648   1.829   2.768 -0.8455  1.1252 -0.7671
 3836TIP3   OH232998   0.354   4.302  15.926  0.3002  0.2652 -0.8420
 3836TIP3    H132999   0.261   4.294  15.903  0.3614  2.7085 -2.3372
 3836TIP3    H233000   0.400   4.251  15.860  0.1129  1.5711 -2.0360
 3837TIP3   OH233001   2.738   0.313  13.882 -0.5682  0.2263 -0.6499
 3837TIP3    H133002   2.647   0.324  13.910  0.0058 -2.5210  3.1506
 3837TIP3    H233003   2.738   0.228  13.837  0.2635 -0.6021  0.8318
 3838TIP3   OH233004   1.945   2.777   3.257 -0.2957  0.3928  0.4665
 3838TIP3    H133005   1.895   2.783   3.176  2.3567  0.8588 -1.2462
 3838TIP3    H233006   1.967   2.868   3.278  0.5822  0.1424  0.6660
 3839TIP3   OH233007   3.378   4.503   4.211  0.0924 -0.1106  0.5633
 3839TIP3    H133008   3.319   4.506   4.286 -0.0789 -0.6050  0.4516
 3839TIP3    H233009   3.457   4.461   4.245 -0.2995 -1.1043  0.2587
 3840TIP3   OH233010   4.038   4.518  13.962  0.9413  0.4245 -0.4099
 3840TIP3    H133011   4.031   4.604  14.002 -1.8471 -0.5933  1.6199
 3840TIP3    H233012   3.955   4.507  13.914  1.0369 -1.2730 -0.2547
 3841TIP3   OH233013   0.450   1.055  14.026 -0.2438 -0.7410 -0.4467
 3841TIP3    H133014   0.454   1.104  14.108  2.1907  0.3545 -1.1333
 3841TIP3    H233015   0.418   1.119  13.962 -3.0141 -1.8278 -0.2996
 3842TIP3   OH233016   4.555   1.817  10.391  0.0978  0.2928  0.1385
 3842TIP3    H133017   4.577   1.731  10.355 -0.8000 -0.1920  0.7196
 3842TIP3    H233018   4.494   1.854  10.327 -0.4314  0.0063  0.4807
 3843TIP3   OH233019   4.049   0.619  15.116  0.2252 -0.5228 -0.1912
 3843TIP3    H133020   4.088   0.545  15.162  1.8357  1.0377  1.0991
 3843TIP3    H233021   4.113   0.642  15.049  0.3913  0.4752  0.2824
 3844TIP3   OH233022   1.215   0.548   0.097  0.4337  0.4478 -0.2669
 3844TIP3    H133023   1.208   0.465   0.145  0.9390  0.6513  0.1628
 3844TIP3    H233024   1.309   0.566   0.094  0.6705 -0.7012 -3.3140
 3845TIP3   OH233025   3.720   6.256   2.587 -0.2931 -0.2502 -0.0698
 3845TIP3    H133026   3.628   6.239   2.571 -0.2212 -1.2155  0.4838
 3845TIP3    H233027   3.722   6.294   2.675 -0.0217 -1.9271  0.6877
 3846TIP3   OH233028   2.101   5.144   4.278 -0.1297  0.4809  0.1443
 3846TIP3    H133029   2.076   5.195   4.355  0.6041 -0.7736  1.2518
 3846TIP3    H233030   2.169   5.195   4.236  0.2875  0.6300  0.9904
 3847TIP3   OH233031   1.050   1.323   5.969 -0.3497  0.4987 -0.5850
 3847TIP3    H133032   1.088   1.341   6.055  1.3289  1.2529 -1.4550
 3847TIP3    H233033   0.962   1.289   5.989  0.7097 -1.2654  1.4909
 3848TIP3   OH233034   4.174   1.741  15.801 -0.1100  0.0860 -0.0739
 3848TIP3    H133035   4.099   1.789  15.765 -0.2691  1.1430  1.5642
 3848TIP3    H233036   4.158   1.650  15.776 -1.3137  0.4539 -0.7656
 3849TIP3   OH233037   3.175   2.750   1.172  0.2008 -0.3343 -0.0655
 3849TIP3    H133038   3.123   2.741   1.092  2.5985  0.6012 -1.8575
 3849TIP3    H233039   3.177   2.844   1.189 -0.9902 -0.5788  1.6760
 3850TIP3   OH233040   6.283   4.240  13.690  0.5086  0.5141  0.1499
 3850TIP3    H133041   6.356   4.299  13.709  0.3494  0.3593  1.2724
 3850TIP3    H233042   6.205   4.288  13.717  0.2119  0.5260 -0.6871
 3851TIP3   OH233043   3.178   0.343   1.353 -0.5589  0.2467 -0.6356
 3851TIP3    H133044   3.169   0.367   1.445 -0.0694  2.0050 -1.0292
 3851TIP3    H233045   3.149   0.420   1.304 -0.7373 -0.6232 -1.9776
 3852TIP3   OH233046   4.910   2.306   2.140 -0.0664 -0.6301 -0.3696
 3852TIP3    H133047   4.840   2.299   2.075 -1.0580  1.0848  0.4324
 3852TIP3    H233048   4.918   2.400   2.157  0.9198 -0.9497  1.1838
 3853TIP3   OH233049   2.868   4.840  15.380 -0.5554  0.0900  0.0668
 3853TIP3    H133050   2.888   4.865  15.290 -0.2088  3.1242  0.8726
 3853TIP3    H233051   2.927   4.767  15.399 -0.7516 -0.7126 -2.1703
 3854TIP3   OH233052   6.350   5.757   4.901  0.1893  0.4669 -0.4673
 3854TIP3    H133053   6.328   5.777   4.992  1.8798 -1.7364  0.5129
 3854TIP3    H233054   6.414   5.824   4.877  1.5531 -0.3118  0.8341
 3855TIP3   OH233055   1.219   1.985   4.442 -0.0354  0.4480 -0.4541
 3855TIP3    H133056   1.176   2.070   4.450  0.9839  1.1358 -1.8330
 3855TIP3    H233057   1.312   2.004   4.459  0.3134 -0.2261 -1.4943
 3856TIP3   OH233058   3.322   0.030   0.328  0.8391  0.1375 -0.1854
 3856TIP3    H133059   3.408   0.063   0.305  0.2143  1.2473 -0.9789
 3856TIP3    H233060   3.267   0.048   0.252 -0.3262  0.3134  0.6671
 3857TIP3   OH233061   4.943   0.070  14.911  0.0927 -0.5607  0.6171
 3857TIP3    H133062   4.918   0.113  14.830  1.4382  0.3295  0.6549
 3857TIP3    H233063   4.973  -0.017  14.884  2.4293  0.4197 -0.1119
 3858TIP3   OH233064   6.600   1.908  12.283 -0.0747 -0.1823  0.1130
 3858TIP3    H133065   6.637   1.989  12.319 -1.6689  1.0411 -0.8361
 3858TIP3    H233066   6.527   1.887  12.341  0.3691 -1.0053  0.3924
 3859TIP3   OH233067   0.035   1.667  13.246 -0.6471  0.1688 -0.1524
 3859TIP3    H133068   0.117   1.619  13.245  0.0085  1.1540  1.5438
 3859TIP3    H233069  -0.018   1.626  13.178  0.8633 -1.1467 -0.5942
 3860TIP3   OH233070   6.198   6.514   2.009  0.3629 -0.3253  0.4451
 3860TIP3    H133071   6.212   6.538   2.101 -0.2802  0.4577  0.3487
 3860TIP3    H233072   6.160   6.592   1.969  2.4244  0.0316 -0.9597
 3861TIP3   OH233073   6.375   2.682  11.143 -0.1250  0.0691  0.3719
 3861TIP3    H133074   6.470   2.691  11.135 -0.1156  0.5146  0.9226
 3861TIP3    H233075   6.350   2.626  11.070  0.3843  1.0365 -0.5623
 3862TIP3   OH233076   6.817   1.925   4.653  0.1028 -0.1565  0.0053
 3862TIP3    H133077   6.770   1.890   4.729 -1.6338 -0.7860 -1.2705
 3862TIP3    H233078   6.791   2.017   4.648  0.8984  0.1083  0.6493
 3863TIP3   OH233079   5.621   6.236   5.997 -0.8144 -0.6245  0.1888
 3863TIP3    H133080   5.634   6.167   6.062 -0.6884 -0.6092  0.1791
 3863TIP3    H233081   5.543   6.283   6.027 -1.7231 -1.6033 -0.5020
 3864TIP3   OH233082   0.928   2.276   2.049 -0.4253  0.3026 -0.8416
 3864TIP3    H133083   0.967   2.280   2.136  0.0562  1.5056 -1.0980
 3864TIP3    H233084   0.954   2.358   2.006 -1.4936  0.1953 -1.7619
 3865TIP3   OH233085   1.153   1.457  14.078 -0.0238 -0.6781  1.0354
 3865TIP3    H133086   1.180   1.419  13.995  1.2169 -0.4732  1.3213
 3865TIP3    H233087   1.188   1.547  14.075  0.2319 -0.7419  1.8598
 3866TIP3   OH233088   3.537   0.770  14.818 -0.5787 -0.3453 -0.4058
 3866TIP3    H133089   3.453   0.806  14.847  1.0478  2.9704  0.6766
 3866TIP3    H233090   3.537   0.781  14.723 -0.3614  2.2941 -0.1660
 3867TIP3   OH233091   4.648   4.967   3.437  0.1689  0.4601 -0.6546
 3867TIP3    H133092   4.669   4.988   3.346 -0.3684  3.4704 -0.2175
 3867TIP3    H233093   4.571   5.021   3.456 -0.7637 -1.3751  1.1285
 3868TIP3   OH233094   5.016   1.732  13.577 -0.5921  0.1882 -0.3743
 3868TIP3    H133095   5.047   1.661  13.520  0.6452  0.0238  0.4798
 3868TIP3    H233096   5.053   1.811  13.538 -0.4950  0.1731 -0.3131
 3869TIP3   OH233097   3.776   6.309  16.721 -0.0169  0.0133  0.1520
 3869TIP3    H133098   3.744   6.257  16.647 -1.5115  1.0121  0.0570
 3869TIP3    H233099   3.816   6.245  16.780 -3.5877 -1.6545  1.0276
 3870TIP3   OH233100   0.089   1.699   4.275  0.4418 -0.1073  0.0623
 3870TIP3    H133101   0.073   1.743   4.192 -1.1716  0.0552  0.4273
 3870TIP3    H233102   0.038   1.618   4.270  0.4718 -0.1812  0.8187
 3871TIP3   OH233103   6.814   4.266  15.818  0.2200 -0.3651  0.2980
 3871TIP3    H133104   6.796   4.178  15.849  0.3030 -1.0371 -1.4592
 3871TIP3    H233105   6.739   4.289  15.764  1.4303 -0.5095 -1.5406
 3872TIP3   OH233106   2.320   6.213   1.514 -0.0334  0.1953 -0.1079
 3872TIP3    H133107   2.230   6.230   1.487  0.5249  1.6376 -1.2229
 3872TIP3    H233108   2.352   6.148   1.452 -0.1694  0.0492 -0.0230
 3873TIP3   OH233109   5.289   0.855  15.650 -0.7256 -0.0900 -0.3736
 3873TIP3    H133110   5.231   0.796  15.604 -1.5959 -0.3004  0.9230
 3873TIP3    H233111   5.322   0.915  15.583  0.7637 -2.4272 -1.8778
 3874TIP3   OH233112   3.587   3.448  12.714 -0.1240 -0.0270  0.1574
 3874TIP3    H133113   3.589   3.383  12.785  1.7754 -0.3049 -0.0892
 3874TIP3    H233114   3.604   3.398  12.635  2.0499  0.8001  0.0407
 3875TIP3   OH233115   4.316   1.808   2.828 -0.1414  0.0795 -0.3260
 3875TIP3    H133116   4.360   1.741   2.881  1.5875 -0.3216 -2.1568
 3875TIP3    H233117   4.371   1.886   2.836  0.1110  0.0300 -1.4595
 3876TIP3   OH233118   2.019   1.055   3.426  0.1005  0.0143 -0.4829
 3876TIP3    H133119   1.996   1.138   3.468 -0.4059 -0.6172  0.4917
 3876TIP3    H233120   1.944   0.998   3.442  0.1706 -0.4486 -1.6962
 3877TIP3   OH233121   5.725   2.137  13.147 -0.0431  0.2398  0.4716
 3877TIP3    H133122   5.746   2.049  13.180 -3.8366 -1.2243 -0.4905
 3877TIP3    H233123   5.799   2.159  13.090  1.2345 -2.1389  1.0645
 3878TIP3   OH233124   0.609   0.091   5.896 -0.0618 -0.7868  0.5146
 3878TIP3    H133125   0.689   0.043   5.916  0.1376  0.1880  2.1825
 3878TIP3    H233126   0.558   0.030   5.841  1.0727 -2.0617  0.8216
 3879TIP3   OH233127   6.486   4.557   4.619  0.3740 -0.3799  0.3924
 3879TIP3    H133128   6.408   4.510   4.589 -1.6451  1.3360  2.6318
 3879TIP3    H233129   6.513   4.510   4.698  0.0355  0.5494  1.0659
 3880TIP3   OH233130   5.630   4.901  12.574 -0.2771 -0.1298  0.4823
 3880TIP3    H133131   5.613   4.988  12.538 -2.1677 -0.2933  0.8824
 3880TIP3    H233132   5.637   4.844  12.497 -0.3238  0.1563  0.2633
 3881TIP3   OH233133   1.435   6.087   1.497  0.0390  0.4297  0.2182
 3881TIP3    H133134   1.487   6.017   1.537  1.2831  1.9292  1.3318
 3881TIP3    H233135   1.391   6.045   1.423  0.5364 -1.5762  0.9970
 3882TIP3   OH233136   0.775   5.393  14.252  0.0752  0.3182  0.0992
 3882TIP3    H133137   0.866   5.421  14.240 -0.2701  0.6858 -2.0913
 3882TIP3    H233138   0.740   5.455  14.317  0.6024  2.1217 -1.2488
 3883TIP3   OH233139   3.520   2.251   2.774  0.2418 -0.2996 -0.2036
 3883TIP3    H133140   3.474   2.211   2.700  1.6245  1.8576 -2.3810
 3883TIP3    H233141   3.463   2.322   2.802 -0.7089 -1.6626  1.5229
 3884TIP3   OH233142   6.120   0.496   0.800 -0.7317  0.4812  0.1365
 3884TIP3    H133143   6.159   0.580   0.824 -1.9429  1.2559 -0.5009
 3884TIP3    H233144   6.065   0.472   0.875 -0.4896  0.3198  0.2634
 3885TIP3   OH233145   6.737   5.761  14.373  0.2599  0.0919  0.1223
 3885TIP3    H133146   6.652   5.783  14.409  1.0773  2.6272  0.7118
 3885TIP3    H233147   6.755   5.672  14.405 -2.2745 -0.6676 -0.3692
 3886TIP3   OH233148   2.139   5.200   3.546 -0.6388 -0.6034  0.0049
 3886TIP3    H133149   2.135   5.106   3.566 -1.4422 -0.5438  0.1842
 3886TIP3    H233150   2.111   5.243   3.627 -1.2030 -0.2531 -0.3656
 3887TIP3   OH233151   2.542   3.235  16.846  0.3593 -0.2237 -0.3726
 3887TIP3    H133152   2.598   3.173  16.798  1.2139  1.0248 -1.0395
 3887TIP3    H233153   2.520   3.302  16.782 -2.1067 -0.7482 -0.1808
 3888TIP3   OH233154   0.529   0.576  16.374  0.4636  0.4650  0.5131
 3888TIP3    H133155   0.541   0.490  16.334 -2.0287  0.2585  0.0823
 3888TIP3    H233156   0.533   0.559  16.468  0.2567 -0.0791  0.4286
 3889TIP3   OH233157   6.579   4.195   3.889 -0.2038  0.4167 -0.3682
 3889TIP3    H133158   6.492   4.155   3.882 -2.0940  3.9831  0.1376
 3889TIP3    H233159   6.589   4.214   3.983 -0.1080  2.3207 -0.7244
 3890TIP3   OH233160   5.733   5.958   4.877  0.4032 -0.3702 -0.3759
 3890TIP3    H133161   5.817   5.942   4.920  0.6991  1.7112 -0.0336
 3890TIP3    H233162   5.726   6.054   4.875 -1.3718 -0.4850 -1.5660
 3891TIP3   OH233163   6.380   5.290   1.828 -0.0388  0.1293  0.2768
 3891TIP3    H133164   6.384   5.296   1.732  1.6086  1.3087  0.3751
 3891TIP3    H233165   6.422   5.370   1.858 -0.8866 -0.0403  2.0122
 3892TIP3   OH233166   2.846   1.024   3.679  0.2641 -0.0765  0.3837
 3892TIP3    H133167   2.762   1.021   3.725 -0.3272  1.2522 -0.5575
 3892TIP3    H233168   2.904   1.073   3.738  0.9917 -2.5334  1.8747
 3893TIP3   OH233169   4.482   0.808  11.377 -0.1164  0.1782  0.1450
 3893TIP3    H133170   4.576   0.820  11.394  0.5053 -0.2758 -2.6039
 3893TIP3    H233171   4.472   0.713  11.364 -1.0443  0.1898  0.6599
 3894TIP3   OH233172   0.952   1.186  13.579 -0.4114  0.1012 -0.1435
 3894TIP3    H133173   0.905   1.142  13.508 -1.4160  0.4396  0.2920
 3894TIP3    H233174   0.939   1.279  13.562  0.5118  0.2132 -0.2760
 3895TIP3   OH233175   2.235   2.106   5.647 -0.3824  0.1989  0.0560
 3895TIP3    H133176   2.183   2.161   5.588 -0.5404  1.6466  1.4641
 3895TIP3    H233177   2.311   2.160   5.670  1.8141 -1.8447 -1.8819
 3896TIP3   OH233178   3.328   5.635  15.313 -0.4958  0.3524 -0.0615
 3896TIP3    H133179   3.312   5.725  15.283 -1.2924  0.5354  0.8723
 3896TIP3    H233180   3.303   5.636  15.405  1.5862 -0.2645  0.5642
 3897TIP3   OH233181   6.388   3.498   3.380 -0.1289  1.1640 -0.8909
 3897TIP3    H133182   6.482   3.513   3.368 -0.1640  2.3266  0.1644
 3897TIP3    H233183   6.361   3.456   3.298  1.3360  0.6171 -1.1337
 3898TIP3   OH233184   6.357   6.561   3.390 -0.5854  0.2899 -0.0871
 3898TIP3    H133185   6.325   6.471   3.401 -1.8964  0.5782 -1.2881
 3898TIP3    H233186   6.440   6.552   3.344 -0.1407 -0.3542  0.8107
 3899TIP3   OH233187   2.311   3.109   3.452  0.0827 -0.2414  0.5396
 3899TIP3    H133188   2.342   3.056   3.525  0.1716  0.1101  0.7591
 3899TIP3    H233189   2.337   3.060   3.374  1.8707  0.3833  0.6872
 3900TIP3   OH233190   1.347   1.389   4.120  0.4851 -0.2875  0.6453
 3900TIP3    H133191   1.343   1.437   4.037  0.8396  2.9548  2.3381
 3900TIP3    H233192   1.424   1.333   4.111  1.4316  1.1204 -0.7070
 3901TIP3   OH233193   4.196   5.815   5.861 -0.7434  0.1172 -0.1220
 3901TIP3    H133194   4.268   5.753   5.851 -1.8088 -1.2625  0.3974
 3901TIP3    H233195   4.147   5.809   5.780 -1.2561 -0.2756  0.2112
 3902TIP3   OH233196   5.118   0.457  15.672  0.1914 -0.0434 -0.6765
 3902TIP3    H133197   5.145   0.512  15.746 -1.6241  1.6839 -1.2223
 3902TIP3    H233198   5.073   0.517  15.613 -0.2348 -1.7949 -2.2094
 3903TIP3   OH233199   2.221   5.043   2.165  0.7305 -0.2580  0.0839
 3903TIP3    H133200   2.165   5.042   2.243  2.7271 -0.9835  1.5829
 3903TIP3    H233201   2.176   4.985   2.103 -2.6671  2.8662 -0.7604
 3904TIP3   OH233202   4.561   3.089   2.749 -0.1125  0.2902 -0.0510
 3904TIP3    H133203   4.488   3.091   2.687 -0.2788  0.7990  0.1555
 3904TIP3    H233204   4.529   3.038   2.823 -0.2880  0.5818  0.0743
 3905TIP3   OH233205   3.616   3.917   5.386  0.0717  0.1905 -0.2425
 3905TIP3    H133206   3.569   3.856   5.442  1.0007  0.1627  0.5357
 3905TIP3    H233207   3.684   3.954   5.442  0.8049  0.4323 -1.2515
 3906TIP3   OH233208   3.557   3.992   2.973  0.0364  0.5137  0.3256
 3906TIP3    H133209   3.546   3.938   3.051 -0.6200 -0.1989 -0.2560
 3906TIP3    H233210   3.470   3.994   2.933  0.2716  1.2345 -0.1630
 3907TIP3   OH233211   4.439   2.423   0.574  0.6569  0.9436  0.2761
 3907TIP3    H133212   4.487   2.407   0.656 -0.2410 -1.5152  0.4105
 3907TIP3    H233213   4.348   2.431   0.601  0.0792 -1.7972 -0.5509
 3908TIP3   OH233214   3.261   2.003   0.444  0.2730 -0.4676 -0.0078
 3908TIP3    H133215   3.270   2.039   0.356  0.0158 -1.4544 -0.4442
 3908TIP3    H233216   3.277   2.078   0.502 -1.8648  0.7451 -0.8896
 3909TIP3   OH233217   2.893   1.090  10.446 -0.0580  0.1963  0.7238
 3909TIP3    H133218   2.821   1.149  10.470  0.5128  1.0320  0.4426
 3909TIP3    H233219   2.850   1.017  10.400 -0.6049  1.5587 -1.0701
 3910TIP3   OH233220   5.906   0.695  11.761  0.3231 -0.1020  0.2806
 3910TIP3    H133221   5.991   0.689  11.805 -0.6506 -1.0593  2.1440
 3910TIP3    H233222   5.917   0.767  11.699  2.4819 -0.1895  0.4712
 3911TIP3   OH233223   4.843   3.265   3.533  0.0860 -0.3045 -0.1313
 3911TIP3    H133224   4.816   3.195   3.592  0.5786  1.7204  2.6830
 3911TIP3    H233225   4.915   3.309   3.579  1.2520  0.7367 -2.7605
 3912TIP3   OH233226   3.085   4.614   2.470 -0.2588  0.4628 -0.3813
 3912TIP3    H133227   3.167   4.658   2.446 -0.9541  1.7025 -0.6080
 3912TIP3    H233228   3.076   4.632   2.564  0.8577 -1.6589  0.1920
 3913TIP3   OH233229   4.532   3.606  16.143 -0.2372  0.5993  0.7818
 3913TIP3    H133230   4.505   3.695  16.122  1.6166  1.5583  2.1657
 3913TIP3    H233231   4.628   3.607  16.137 -0.2061 -1.7337 -0.6350
 3914TIP3   OH233232   1.855   3.284   4.951  0.0245 -0.2606  0.0452
 3914TIP3    H133233   1.867   3.359   5.010 -1.1423 -0.3856  0.4668
 3914TIP3    H233234   1.765   3.294   4.919  0.6973 -0.0605 -1.9141
 3915TIP3   OH233235   5.185   0.862   1.848  0.3959  0.0762 -0.2348
 3915TIP3    H133236   5.227   0.848   1.763  0.2998  1.3107 -0.5004
 3915TIP3    H233237   5.111   0.920   1.829 -0.2467 -0.4612  0.5399
 3916TIP3   OH233238   2.285   6.019  13.186  0.1675 -0.4808 -0.2746
 3916TIP3    H133239   2.199   5.978  13.179 -0.0629 -0.5727  2.1938
 3916TIP3    H233240   2.267   6.111  13.208  0.6300 -0.6884  1.1316
 3917TIP3   OH233241   0.115   1.791   1.008  0.1624  0.0776 -0.1359
 3917TIP3    H133242   0.140   1.699   1.017  0.3603 -0.0724 -1.9124
 3917TIP3    H233243   0.025   1.795   1.040  0.7454 -0.3440  1.6715
 3918TIP3   OH233244   5.159   3.004   6.765  0.0640  0.0628  0.9926
 3918TIP3    H133245   5.177   3.086   6.720 -0.2531 -0.0859  0.5901
 3918TIP3    H233246   5.205   2.938   6.713 -1.2454 -0.2652  0.1987
 3919TIP3   OH233247   3.471   0.907   1.452 -0.6087  0.4281 -0.0890
 3919TIP3    H133248   3.396   0.859   1.488 -1.9227  0.8077 -2.1225
 3919TIP3    H233249   3.495   0.858   1.373  1.4625  0.2039  0.6341
 3920TIP3   OH233250   4.043   3.888   0.523  0.1464 -0.2923 -0.3566
 3920TIP3    H133251   4.090   3.971   0.517  0.7283 -0.6987 -1.9879
 3920TIP3    H233252   3.953   3.909   0.499  0.6199 -0.3430 -2.4056
 3921TIP3   OH233253   4.048   0.102  15.736 -0.1908 -0.4244 -0.8085
 3921TIP3    H133254   4.011   0.153  15.664 -0.1689 -1.0462 -1.2681
 3921TIP3    H233255   4.035   0.011  15.710 -0.1559 -0.6527 -0.0353
 3922TIP3   OH233256   4.457   1.734  14.797 -0.0332  0.2964 -0.2582
 3922TIP3    H133257   4.430   1.812  14.844  1.3987  0.8041 -0.2198
 3922TIP3    H233258   4.553   1.737  14.799  0.0485 -0.8171 -1.3071
 3923TIP3   OH233259   3.687   6.525  11.354  0.6626  0.1935 -0.1821
 3923TIP3    H133260   3.741   6.507  11.431  0.3357 -0.1855 -0.0375
 3923TIP3    H233261   3.731   6.478  11.283 -0.4788 -1.7194  0.2977
 3924TIP3   OH233262   2.470   0.037  11.569  0.7616 -0.4671  0.1201
 3924TIP3    H133263   2.471   0.027  11.474  0.2787  0.9079 -0.0559
 3924TIP3    H233264   2.398  -0.018  11.598 -1.7402  2.0821 -0.7642
 3925TIP3   OH233265   3.576   2.106   2.303 -0.2461 -0.0714  0.0238
 3925TIP3    H133266   3.540   2.028   2.259 -2.1722 -0.5890  2.2867
 3925TIP3    H233267   3.667   2.083   2.323 -0.8652 -1.9457  0.9325
 3926TIP3   OH233268   0.215   1.417  12.745 -0.1541  0.0775  0.6525
 3926TIP3    H133269   0.272   1.425  12.822 -0.5455  0.6708  0.8887
 3926TIP3    H233270   0.132   1.386  12.781  0.0271 -0.8700  0.2993
 3927TIP3   OH233271   0.025   4.452  15.467  0.5194  0.2762 -0.1890
 3927TIP3    H133272   0.038   4.357  15.470  1.2997  0.3060 -1.8524
 3927TIP3    H233273   0.105   4.488  15.504 -0.1581  0.3054  1.3183
 3928TIP3   OH233274   6.295   0.442  14.600  0.1307 -0.3212  0.1661
 3928TIP3    H133275   6.287   0.364  14.545  3.2118  0.1393 -1.1634
 3928TIP3    H233276   6.300   0.408  14.690 -2.1057 -1.3152 -0.0366
 3929TIP3   OH233277   2.784   1.323  12.050 -0.2686 -0.5832 -0.8836
 3929TIP3    H133278   2.711   1.337  11.990  0.0629  3.6482 -0.5736
 3929TIP3    H233279   2.746   1.335  12.137  0.4099 -0.3249 -0.6167
 3930TIP3   OH233280   1.224   3.885  14.756  0.9324  0.0539 -0.2578
 3930TIP3    H133281   1.196   3.872  14.666 -0.3693  0.5008  0.0625
 3930TIP3    H233282   1.233   3.797  14.792  0.3000 -0.1030 -0.4833
 3931TIP3   OH233283   5.153   3.697  11.436  0.0214  0.0500  0.2957
 3931TIP3    H133284   5.063   3.729  11.435  0.8803  2.7033  0.3251
 3931TIP3    H233285   5.181   3.701  11.345 -0.0815 -1.4932  0.1741
 3932TIP3   OH233286   3.292   6.200   0.641 -0.2741  0.0292  0.8014
 3932TIP3    H133287   3.305   6.133   0.575 -0.0582  0.4096  0.4533
 3932TIP3    H233288   3.292   6.153   0.724  1.9075 -0.1971  0.7463
 3933TIP3   OH233289   3.774   2.401   4.160  0.0638 -0.1091  0.0915
 3933TIP3    H133290   3.741   2.315   4.184  1.3087 -0.2985  1.2416
 3933TIP3    H233291   3.732   2.461   4.221 -0.4654  0.0577 -0.4255
 3934TIP3   OH233292   5.077   0.033   5.034 -0.1417 -0.0231 -0.6337
 3934TIP3    H133293   5.155  -0.008   5.070  0.2769  1.4791  0.2620
 3934TIP3    H233294   5.103   0.064   4.948 -0.0157 -0.2938 -0.6937
 3935TIP3   OH233295   4.046   5.457  10.829  0.4674  0.2858 -0.2398
 3935TIP3    H133296   4.115   5.472  10.764 -2.1230  0.8257 -3.0975
 3935TIP3    H233297   3.966   5.447  10.778 -1.9116  1.3220  2.9300
 3936TIP3   OH233298   3.406   5.555  10.718  0.0520 -0.1787  0.3332
 3936TIP3    H133299   3.498   5.559  10.691 -0.2405 -2.4823 -1.2653
 3936TIP3    H233300   3.367   5.633  10.677  1.2542  0.8784  1.0984
 3937TIP3   OH233301   0.524   4.843   1.711  0.4670 -0.2710  0.3527
 3937TIP3    H133302   0.438   4.816   1.677 -0.2453  1.3687  0.7518
 3937TIP3    H233303   0.512   4.934   1.737  1.7674 -0.6035  2.3606
 3938TIP3   OH233304   5.836   2.033  14.818  0.0477  0.7338 -0.3055
 3938TIP3    H133305   5.800   1.973  14.753  1.3743  1.1580 -1.4806
 3938TIP3    H233306   5.856   1.979  14.894  1.1018 -0.3034 -1.2960
 3939TIP3   OH233307   0.360   6.269   1.907 -0.4708  0.5811 -0.7709
 3939TIP3    H133308   0.407   6.317   1.838  0.6611  0.9439  0.2163
 3939TIP3    H233309   0.268   6.291   1.893 -0.0012  3.1617 -0.2916
 3940TIP3   OH233310   2.205   4.523   3.867 -0.1852 -0.1285  0.1720
 3940TIP3    H133311   2.132   4.470   3.835  0.3802 -2.0857  1.8807
 3940TIP3    H233312   2.195   4.523   3.962 -0.0608  2.8258  0.2698
 3941TIP3   OH233313   2.983   1.292   5.631 -0.6077  0.4608 -0.5859
 3941TIP3    H133314   3.035   1.276   5.710 -0.2123  2.1949 -0.4562
 3941TIP3    H233315   3.043   1.271   5.559  0.2712  2.2733 -0.4339
 3942TIP3   OH233316   6.160   2.442  13.497  0.1685 -0.4171  0.4137
 3942TIP3    H133317   6.107   2.435  13.576  0.3300 -0.9243  0.4786
 3942TIP3    H233318   6.108   2.497  13.438 -0.6601 -1.3019  0.3001
 3943TIP3   OH233319   6.464   6.711   5.815  0.0972  0.0369  0.4454
 3943TIP3    H133320   6.423   6.769   5.878 -0.6551  0.5850 -0.5197
 3943TIP3    H233321   6.547   6.755   5.793  1.0971 -0.9123  2.1515
 3944TIP3   OH233322   3.019   1.221  11.858 -0.3393  0.0420 -0.3375
 3944TIP3    H133323   2.995   1.240  11.768 -0.5288 -1.2904 -0.5943
 3944TIP3    H233324   3.030   1.307  11.899 -0.5268  0.6634 -1.5456
 3945TIP3   OH233325   1.732   6.350  15.749  0.4893 -0.3897  0.0195
 3945TIP3    H133326   1.706   6.404  15.674  0.4032 -1.8353 -1.0355
 3945TIP3    H233327   1.697   6.263  15.730  1.6750 -1.1369  1.0524
 3946TIP3   OH233328   1.425   5.244  12.523  0.7923 -0.1623 -0.2008
 3946TIP3    H133329   1.445   5.308  12.454 -1.5518  0.5014 -0.3510
 3946TIP3    H233330   1.412   5.297  12.601 -1.3830 -0.3589 -0.3694
 3947TIP3   OH233331   3.488   4.452   2.403  0.1113  0.4787  0.4633
 3947TIP3    H133332   3.446   4.371   2.375 -0.3459  1.6553 -2.6221
 3947TIP3    H233333   3.420   4.498   2.453 -0.0345 -0.4460  1.1432
 3948TIP3   OH233334   5.331   0.484  11.871 -0.2122  0.2961  1.0138
 3948TIP3    H133335   5.337   0.579  11.864  0.9104  0.1642 -0.3692
 3948TIP3    H233336   5.361   0.464  11.960  1.8748  1.1129  0.5623
 3949TIP3   OH233337   1.289   1.220  12.285  0.0149  0.5175  0.5242
 3949TIP3    H133338   1.240   1.220  12.203  1.4862  0.3714 -0.3977
 3949TIP3    H233339   1.274   1.307  12.322 -0.8622  0.4968  0.2462
 3950TIP3   OH233340   1.417   1.204  11.947  0.0514  0.5914 -0.0711
 3950TIP3    H133341   1.359   1.278  11.927 -1.3366 -0.4362  0.0082
 3950TIP3    H233342   1.429   1.209  12.042 -1.5995 -0.3542  0.2170
 3951TIP3   OH233343   6.516   4.975   0.566 -0.0462  0.2945 -0.0837
 3951TIP3    H133344   6.427   5.008   0.552  0.1581  1.3484  0.9563
 3951TIP3    H233345   6.504   4.883   0.590 -0.9677  0.7447  1.2826
 3952TIP3   OH233346   0.519   1.805   3.731  0.0910 -0.0762 -0.0408
 3952TIP3    H133347   0.576   1.729   3.732  0.2286  0.0305  0.3691
 3952TIP3    H233348   0.435   1.772   3.697 -0.9788 -1.2451  3.3056
 3953TIP3   OH233349   5.903   1.577  12.783  0.0816  0.5813  0.0190
 3953TIP3    H133350   5.831   1.525  12.819 -1.3186 -0.0927 -3.3877
 3953TIP3    H233351   5.925   1.639  12.853 -2.8127 -0.1525  1.7414
 3954TIP3   OH233352   5.981   5.139   6.448  0.2291  0.1455 -0.6559
 3954TIP3    H133353   5.962   5.159   6.356  0.2447 -4.2743 -1.8700
 3954TIP3    H233354   5.895   5.128   6.488  0.2293  0.6040 -0.5244
 3955TIP3   OH233355   1.301   0.178  13.575  0.2627 -0.0046 -0.2044
 3955TIP3    H133356   1.271   0.210  13.660  1.7186 -1.6409  0.9818
 3955TIP3    H233357   1.351   0.251  13.538  0.7683  0.2508  0.9596
 3956TIP3   OH233358   3.784   3.142  14.426  0.6373  0.3011 -0.2291
 3956TIP3    H133359   3.794   3.216  14.486  0.9992  0.2110 -0.1754
 3956TIP3    H233360   3.874   3.120  14.400  0.4973  0.2166 -0.6533
 3957TIP3   OH233361   5.452   3.856   1.050  1.0174 -0.3774  0.0618
 3957TIP3    H133362   5.378   3.807   1.087  1.0107 -0.4745 -0.0800
 3957TIP3    H233363   5.451   3.834   0.957  2.3614 -1.8713  0.3616
 3958TIP3   OH233364   0.945   5.986   1.481  0.4638 -0.2181  0.0905
 3958TIP3    H133365   0.909   5.898   1.469  0.4504 -0.1874 -0.1025
 3958TIP3    H233366   1.034   5.972   1.513  0.1525 -0.2880  0.9221
 3959TIP3   OH233367   6.666   3.825  14.568  0.4123  0.2221 -0.0023
 3959TIP3    H133368   6.673   3.914  14.602  0.4708  0.1881  0.0756
 3959TIP3    H233369   6.650   3.771  14.646 -1.9016  0.4297 -0.2762
 3960TIP3   OH233370   6.721   0.132  16.891  0.2421  0.1336  0.0644
 3960TIP3    H133371   6.732   0.039  16.911  0.2030  0.2319  0.5537
 3960TIP3    H233372   6.718   0.175  16.976  3.2935  0.9468 -0.1027
 3961TIP3   OH233373   4.640   5.264   6.227 -0.2001 -0.0461  0.8532
 3961TIP3    H133374   4.553   5.268   6.187  1.2350  0.1434 -2.5311
 3961TIP3    H233375   4.659   5.354   6.252 -0.6833  0.0341  0.9452
 3962TIP3   OH233376   5.522   5.579   4.589 -0.5627  0.0394 -0.3350
 3962TIP3    H133377   5.569   5.657   4.616 -0.6767  0.1087 -0.3357
 3962TIP3    H233378   5.431   5.607   4.581 -0.6308 -0.1316 -0.1753
 3963TIP3   OH233379   1.783   3.213   1.238  0.1260  0.2827 -0.5295
 3963TIP3    H133380   1.710   3.261   1.199 -0.3163  0.3361  0.3374
 3963TIP3    H233381   1.743   3.136   1.279  0.3625  0.9614  1.0543
 3964TIP3   OH233382   2.325   2.001   6.495 -0.2351 -0.0060 -0.4530
 3964TIP3    H133383   2.259   2.070   6.486 -0.9895 -0.4668  1.1591
 3964TIP3    H233384   2.403   2.046   6.525 -0.8073  0.1306  0.8723
 3965TIP3   OH233385   4.055   0.796   5.049 -0.4168  0.0493 -0.2559
 3965TIP3    H133386   4.055   0.808   5.144  0.8854 -1.1500 -0.0593
 3965TIP3    H233387   3.963   0.795   5.024 -0.9283 -2.0987  1.3670
 3966TIP3   OH233388   3.154   6.149   1.124 -0.1266  0.9205  0.7023
 3966TIP3    H133389   3.233   6.193   1.153  0.4599  0.7033 -0.4792
 3966TIP3    H233390   3.116   6.112   1.203  0.8729  1.1600  1.3096
 3967TIP3   OH233391   1.294   4.008   5.463 -0.2411  0.3567 -0.6729
 3967TIP3    H133392   1.286   3.981   5.554  1.6924  0.6858 -0.3619
 3967TIP3    H233393   1.301   4.103   5.466 -0.6409  0.4105 -1.2187
 3968TIP3   OH233394   2.383   2.608   1.832  0.5401 -0.4106  0.5538
 3968TIP3    H133395   2.415   2.690   1.870  0.5525  0.8205 -1.9456
 3968TIP3    H233396   2.289   2.623   1.820  0.6678 -0.4389 -0.5846
 3969TIP3   OH233397   2.927   3.747  11.617  0.6877 -0.3056 -0.0833
 3969TIP3    H133398   2.999   3.736  11.554  0.8763 -0.4585  0.1557
 3969TIP3    H233399   2.857   3.692  11.583  0.5368  0.1609 -0.5386
 3970TIP3   OH233400   5.980   0.877   0.827 -0.0656 -0.2743 -0.1650
 3970TIP3    H133401   6.018   0.964   0.836  0.0730 -0.4452  1.0715
 3970TIP3    H233402   5.989   0.856   0.734  0.8513  0.5920 -0.2830
 3971TIP3   OH233403   0.259   5.735  12.955 -0.1421  0.0343  0.0873
 3971TIP3    H133404   0.172   5.745  12.916  0.2618  1.1119 -0.5713
 3971TIP3    H233405   0.251   5.658  13.011 -0.9259 -1.2351 -1.6548
 3972TIP3   OH233406   1.693   2.172   5.242  0.2618 -0.1540  0.3993
 3972TIP3    H133407   1.713   2.206   5.155  1.0699 -1.5243  0.0224
 3972TIP3    H233408   1.652   2.087   5.225  1.4631 -0.9494  1.3675
 3973TIP3   OH233409   0.420   4.290   4.553 -0.6747  0.8622 -0.2881
 3973TIP3    H133410   0.338   4.264   4.595 -0.3660 -0.0760 -0.2366
 3973TIP3    H233411   0.481   4.301   4.626 -0.0540 -1.0731 -0.4590
 3974TIP3   OH233412   1.656   4.191  13.824 -0.5179 -0.3679 -0.3005
 3974TIP3    H133413   1.590   4.171  13.757 -0.1609 -0.2977 -0.6810
 3974TIP3    H233414   1.623   4.150  13.904 -0.9840 -0.3971 -0.5041
 3975TIP3   OH233415   6.741   1.023   1.433  0.2149  0.6135  0.9936
 3975TIP3    H133416   6.719   1.057   1.346  0.2391 -1.4771  0.1057
 3975TIP3    H233417   6.829   1.056   1.450  0.8290 -0.1666 -0.4832
 3976TIP3   OH233418   4.308   2.121  16.156 -0.3121 -0.1303 -0.1248
 3976TIP3    H133419   4.355   2.067  16.220  0.4670  1.0915  0.3586
 3976TIP3    H233420   4.265   2.057  16.099 -1.0388 -1.2655  1.5899
 3977TIP3   OH233421   6.861   0.728  12.540  0.0935  0.2485 -0.1502
 3977TIP3    H133422   6.918   0.716  12.464 -1.0607 -0.1158 -0.9864
 3977TIP3    H233423   6.921   0.723  12.615  1.6443  3.0344 -1.0541
 3978TIP3   OH233424   3.943   4.477   6.355  0.2982  0.2908  0.3288
 3978TIP3    H133425   4.005   4.504   6.287 -0.6034 -2.6157 -1.8638
 3978TIP3    H233426   3.977   4.394   6.388 -0.9056  0.1124  1.2006
 3979TIP3   OH233427   6.078   4.775   1.533 -0.0185 -0.5513 -0.2393
 3979TIP3    H133428   6.136   4.821   1.594 -2.6917  0.3719  1.8364
 3979TIP3    H233429   6.135   4.714   1.487  2.4740 -0.1976  2.1163
 3980TIP3   OH233430   5.718   0.788  13.272  0.1574  0.3111  0.3800
 3980TIP3    H133431   5.646   0.851  13.257  0.1223  0.2342  0.2270
 3980TIP3    H233432   5.749   0.809  13.360  0.0219  0.4212  0.4037
 3981TIP3   OH233433   4.647   6.723   1.886 -0.2901 -0.1417 -0.0887
 3981TIP3    H133434   4.598   6.678   1.955  1.4333 -1.4696  0.3342
 3981TIP3    H233435   4.716   6.770   1.933 -0.5207  0.8870 -0.7528
 3982TIP3   OH233436   1.001   4.016  11.790  0.0341 -0.0476  0.4598
 3982TIP3    H133437   1.079   4.037  11.840 -0.3606  0.7975  0.7425
 3982TIP3    H233438   1.031   3.957  11.720  0.8392 -0.0480  0.8076
 3983TIP3   OH233439   2.869   6.661  15.218  0.2464  0.4289  0.5994
 3983TIP3    H133440   2.846   6.721  15.288 -0.5868  0.6117  0.1786
 3983TIP3    H233441   2.965   6.662  15.216  0.3416 -0.6484  2.6317
 3984TIP3   OH233442   1.325   1.639  15.721  0.1037 -0.2159 -0.2248
 3984TIP3    H133443   1.236   1.629  15.686  0.9033 -0.9076 -2.1734
 3984TIP3    H233444   1.380   1.589  15.661  2.1947  2.5454 -0.7787
 3985TIP3   OH233445   3.145   0.031   5.109 -0.1961  0.0255  0.2697
 3985TIP3    H133446   3.084   0.017   5.182  1.0516 -2.0342  1.0052
 3985TIP3    H233447   3.144  -0.052   5.062  1.4903  0.1966 -0.1109
 3986TIP3   OH233448   0.790   6.344  12.491 -0.5764 -0.2940  0.6074
 3986TIP3    H133449   0.779   6.424  12.440  2.2410 -1.2297 -1.7313
 3986TIP3    H233450   0.700   6.315  12.510 -1.7244  1.6283 -1.4149
 3987TIP3   OH233451   1.174   4.507  11.380 -0.1198  0.4780 -0.3662
 3987TIP3    H133452   1.235   4.474  11.445 -0.4798  1.0276  0.2688
 3987TIP3    H233453   1.164   4.435  11.317  0.6459  0.1395 -0.1127
 3988TIP3   OH233454   3.589   6.571  11.812 -0.0818  0.3865 -0.1970
 3988TIP3    H133455   3.591   6.541  11.721 -1.7104  0.3649 -0.2426
 3988TIP3    H233456   3.499   6.599  11.826  0.7313  2.8712  0.6148
 3989TIP3   OH233457   2.561   4.879  14.374 -0.0238  0.8136 -0.2519
 3989TIP3    H133458   2.588   4.937  14.446 -2.1279  1.9993 -0.3464
 3989TIP3    H233459   2.478   4.915  14.345 -0.5887 -1.3284 -1.4295
 3990TIP3   OH233460   2.794   0.120   3.448  0.4530  0.6331 -0.1143
 3990TIP3    H133461   2.752   0.085   3.370 -1.0057  0.7932  0.5734
 3990TIP3    H233462   2.797   0.215   3.433  1.6235  0.5368 -0.6388
 3991TIP3   OH233463   0.627   2.954  15.927 -0.1025  0.2064 -0.5693
 3991TIP3    H133464   0.652   3.013  15.998 -0.6730  0.2809 -0.4283
 3991TIP3    H233465   0.654   3.000  15.847 -2.7704  1.8818 -0.6539
 3992TIP3   OH233466   0.371   2.560   5.008 -0.0224 -0.6604 -0.3953
 3992TIP3    H133467   0.282   2.581   4.979  0.0585 -0.8164 -0.7551
 3992TIP3    H233468   0.401   2.640   5.051  0.1032 -0.1991 -1.3253
 3993TIP3   OH233469   0.819   4.628   0.513 -0.0726  0.1768 -0.2171
 3993TIP3    H133470   0.777   4.556   0.561 -0.4619  0.8672  0.4848
 3993TIP3    H233471   0.747   4.675   0.472 -0.2304  2.2957  2.2421
 3994TIP3   OH233472   6.442   6.250   0.904  0.8560 -0.0183  0.2641
 3994TIP3    H133473   6.453   6.200   0.985  0.2132 -1.0980 -0.2897
 3994TIP3    H233474   6.368   6.209   0.860  0.1269  1.6057 -0.1093
 3995TIP3   OH233475   6.672   0.840  15.266 -0.4887 -0.1400 -0.0519
 3995TIP3    H133476   6.593   0.805  15.226 -1.1001 -0.5771  1.4569
 3995TIP3    H233477   6.641   0.906  15.328  0.4604  0.9572 -0.7047
 3996TIP3   OH233478   1.918   2.969  11.965  0.4236  0.2931 -0.2052
 3996TIP3    H133479   1.872   2.995  12.046 -0.7810 -0.0245 -0.7632
 3996TIP3    H233480   1.989   3.032  11.958 -0.1814  1.0902  0.4738
 3997TIP3   OH233481   3.650   2.355  13.962  0.3851 -0.3883 -0.6081
 3997TIP3    H133482   3.567   2.403  13.954  1.2524  1.4335  0.6699
 3997TIP3    H233483   3.654   2.302  13.882 -2.4155 -1.2575 -0.2835
 3998TIP3   OH233484   5.643   5.435  11.729  0.0610 -0.6341  0.1985
 3998TIP3    H133485   5.673   5.390  11.650 -0.2410 -0.4075 -0.0440
 3998TIP3    H233486   5.586   5.372  11.773 -1.7662  0.1204 -1.0207
 3999TIP3   OH233487   6.675   2.130   2.154 -0.3429  0.1123 -0.5663
 3999TIP3    H133488   6.710   2.219   2.152  1.8202 -0.6608  0.1898
 3999TIP3    H233489   6.682   2.099   2.064  0.8684  0.0187 -0.4530
 4000TIP3   OH233490   5.518   6.168  15.542  0.3922 -0.1048 -0.9199
 4000TIP3    H133491   5.585   6.226  15.506  0.9716 -0.5791 -0.6219
 4000TIP3    H233492   5.563   6.085  15.556  0.1225 -0.0159  0.6531
 4001TIP3   OH233493   2.969   4.606  12.687 -0.1231  0.8042 -0.4775
 4001TIP3    H133494   2.894   4.620  12.629  0.3069  1.3996 -0.9118
 4001TIP3    H233495   3.038   4.663  12.651  0.4424  0.4916  0.0833
 4002TIP3   OH233496   5.357   5.307  16.054  0.0028 -0.3685  0.0807
 4002TIP3    H133497   5.354   5.214  16.031 -3.0172 -0.4926  0.5890
 4002TIP3    H233498   5.338   5.310  16.148  0.1869  0.7629  0.1004
 4003TIP3   OH233499   6.536   0.016   0.534  0.6202  0.0044  0.1230
 4003TIP3    H133500   6.631   0.022   0.535  0.5940  0.3904  0.7348
 4003TIP3    H233501   6.506   0.107   0.528  0.2936 -0.2073 -2.5094
 4004TIP3   OH233502   5.810   2.386   1.481 -0.5106  0.1843  0.1356
 4004TIP3    H133503   5.905   2.393   1.487 -0.2187 -1.7026 -1.2538
 4004TIP3    H233504   5.778   2.413   1.567  1.2256  1.3294  0.4704
 4005TIP3   OH233505   0.696   4.911   3.356 -0.8946 -0.3294  0.0103
 4005TIP3    H133506   0.722   4.914   3.448  0.7692 -1.3843 -0.3810
 4005TIP3    H233507   0.765   4.860   3.314 -1.4042  0.5081 -1.9116
 4006TIP3   OH233508   3.293   6.248  12.484  0.3759 -0.0012 -0.0985
 4006TIP3    H133509   3.261   6.164  12.452  0.9057 -1.1898  2.2439
 4006TIP3    H233510   3.330   6.229  12.570  1.8042  2.3958 -0.0643
 4007TIP3   OH233511   2.050   6.480  16.649 -0.1888  0.2817  0.3819
 4007TIP3    H133512   2.005   6.516  16.726  1.1346  0.9814  0.8514
 4007TIP3    H233513   2.136   6.455  16.681  0.2312  0.1729 -0.7834
 4008TIP3   OH233514   1.108   5.030  11.097  0.3618 -0.2134 -0.1434
 4008TIP3    H133515   1.069   5.093  11.157  2.6451  0.7313  0.4616
 4008TIP3    H233516   1.054   4.951  11.107 -0.9700  0.7935  1.0659
 4009TIP3   OH233517   3.172   3.736  15.993  0.2315 -0.0996  0.2479
 4009TIP3    H133518   3.185   3.746  16.087 -1.5561 -0.4453  0.5657
 4009TIP3    H233519   3.184   3.643  15.976  0.0027 -0.1250  0.2266
 4010TIP3   OH233520   1.795   6.660  14.581  0.3374  0.2274 -0.3021
 4010TIP3    H133521   1.831   6.681  14.495 -0.6902 -1.4529 -1.2109
 4010TIP3    H233522   1.703   6.688  14.576  0.0113 -0.7626 -0.1330
 4011TIP3   OH233523   4.128   5.197  15.773  0.4892  0.6011  0.1590
 4011TIP3    H133524   4.153   5.115  15.730  0.8627  1.6400 -1.6830
 4011TIP3    H233525   4.207   5.250  15.771 -0.5408  2.1975 -1.6122
 4012TIP3   OH233526   5.461   1.433  12.857 -0.1471  0.0559 -0.2416
 4012TIP3    H133527   5.519   1.479  12.918 -0.9225 -0.3406  0.8234
 4012TIP3    H233528   5.382   1.414  12.908 -0.3795 -1.2843 -1.0355
 4013TIP3   OH233529   1.380   3.797  13.828 -0.2347 -0.1329 -0.2708
 4013TIP3    H133530   1.475   3.787  13.819 -0.0522 -1.8242  2.3478
 4013TIP3    H233531   1.343   3.730  13.770  0.2705 -0.7019  0.0471
 4014TIP3   OH233532   6.800   4.682  10.998 -0.0424  0.2952  0.2314
 4014TIP3    H133533   6.893   4.664  10.993 -0.2845 -0.7411 -1.6464
 4014TIP3    H233534   6.780   4.729  10.916 -0.9946  1.4872  1.0984
 4015TIP3   OH233535   0.132   3.062  11.820 -0.0092  0.1314 -0.1527
 4015TIP3    H133536   0.052   3.031  11.863 -1.1599  0.6398 -1.8261
 4015TIP3    H233537   0.200   3.003  11.851 -1.3969 -1.5654 -0.1874
 4016TIP3   OH233538   4.340   1.275   1.442  0.4953 -0.3556 -0.1586
 4016TIP3    H133539   4.424   1.320   1.456  1.1196 -1.2868 -0.7674
 4016TIP3    H233540   4.353   1.189   1.483 -0.0711 -0.6008 -0.4959
 4017TIP3   OH233541   4.505   5.667  14.669  0.5837 -0.2565  0.2065
 4017TIP3    H133542   4.486   5.721  14.592 -0.2332  0.7061  1.0534
 4017TIP3    H233543   4.460   5.584  14.651 -0.3984  0.2929  0.0485
 4018TIP3   OH233544   2.947   2.837  12.248  0.3380 -0.3131  0.0386
 4018TIP3    H133545   3.033   2.823  12.288 -0.0057 -0.3717  0.7887
 4018TIP3    H233546   2.957   2.809  12.157  1.1867 -0.0427  0.0462
 4019TIP3   OH233547   5.353   5.471   3.986 -0.2100 -0.8895 -0.6496
 4019TIP3    H133548   5.406   5.473   3.906  0.3296  0.3626 -0.2807
 4019TIP3    H233549   5.373   5.386   4.025  0.2565 -1.1173 -1.3501
 4020TIP3   OH233550   3.645   5.345   4.017  0.3000 -0.7172  0.7323
 4020TIP3    H133551   3.639   5.392   4.100 -2.1484 -1.3878  1.0165
 4020TIP3    H233552   3.557   5.310   4.003  0.5957 -0.5207 -2.2171
 4021TIP3   OH233553   5.549   0.618  12.514  0.6996 -0.6553  0.1887
 4021TIP3    H133554   5.598   0.557  12.458  2.1131  1.5729 -1.1721
 4021TIP3    H233555   5.600   0.624  12.594  2.9437  1.7033 -1.2434
 4022TIP3   OH233556   4.205   4.936  12.336  0.2270  0.5469 -0.0445
 4022TIP3    H133557   4.248   4.955  12.253 -0.2839 -0.1122 -0.4684
 4022TIP3    H233558   4.131   4.997  12.339  0.1715  0.4839 -0.1325
 4023TIP3   OH233559   3.795   2.925  12.343  0.2576 -0.1017  0.1914
 4023TIP3    H133560   3.844   3.007  12.335 -1.8913  1.0884 -2.0621
 4023TIP3    H233561   3.837   2.867  12.281  0.1318  0.2037 -0.1833
 4024TIP3   OH233562   4.073   5.646   3.694  0.4269  0.2080 -0.1853
 4024TIP3    H133563   4.163   5.616   3.697  0.2338 -0.4944 -1.0437
 4024TIP3    H233564   4.022   5.568   3.672 -0.3696  0.6248  0.1418
 4025TIP3   OH233565   4.590   4.311  13.305  0.5715  0.0215 -0.0513
 4025TIP3    H133566   4.529   4.311  13.232 -0.9510 -1.5910  1.1571
 4025TIP3    H233567   4.564   4.387  13.358  0.3358 -0.0165 -0.1110
 4026TIP3   OH233568   1.943   1.845   3.636 -0.2124  0.9987  0.2444
 4026TIP3    H133569   1.850   1.826   3.652 -1.0361  2.1242 -2.5580
 4026TIP3    H233570   1.943   1.912   3.568  2.6778  0.8618 -0.0385
 4027TIP3   OH233571   5.829   1.867  13.199 -0.5531 -0.3366 -0.5403
 4027TIP3    H133572   5.798   1.781  13.227  0.2756 -0.4664  0.0156
 4027TIP3    H233573   5.874   1.851  13.116  2.7346 -1.0960  1.2533
 4028TIP3   OH233574   2.003   6.142   1.711 -0.0261  0.1653  0.7385
 4028TIP3    H133575   2.003   6.070   1.774  1.6465  0.9621  1.6906
 4028TIP3    H233576   2.068   6.203   1.744 -0.4443  1.4926 -0.7870
 4029TIP3   OH233577   6.315   0.173  12.813 -0.4057 -0.3464  0.3853
 4029TIP3    H133578   6.285   0.202  12.727 -0.9513 -0.1048  0.6538
 4029TIP3    H233579   6.393   0.227  12.830 -0.8772  0.3146  0.4750
 4030TIP3   OH233580   3.695   0.725   5.589  0.1530 -0.2184  0.4576
 4030TIP3    H133581   3.671   0.632   5.595 -0.6783 -0.0231  0.2062
 4030TIP3    H233582   3.736   0.732   5.503  0.5331 -0.4195  0.6187
 4031TIP3   OH233583   3.761   1.518  15.044  0.1304  0.0551 -0.4940
 4031TIP3    H133584   3.815   1.502  15.122 -0.7556  1.9663  0.6118
 4031TIP3    H233585   3.674   1.487  15.069 -0.4887  1.9318 -0.1032
 4032TIP3   OH233586   4.260   3.593  11.378  0.3369 -0.1809  0.0844
 4032TIP3    H133587   4.284   3.543  11.300  1.5213  1.4331 -0.6522
 4032TIP3    H233588   4.191   3.541  11.419  0.8812 -1.9516 -1.0833
 4033TIP3   OH233589   6.016   3.526  15.045 -0.4396  0.1251  1.2120
 4033TIP3    H133590   5.986   3.585  14.975 -1.7913 -1.0377  0.7519
 4033TIP3    H233591   6.099   3.563  15.074  0.2202  0.5942 -1.0916
 4034TIP3   OH233592   2.521   0.546   1.228  0.1068 -1.0734  0.0322
 4034TIP3    H133593   2.552   0.472   1.280  2.8634  0.0756  0.1773
 4034TIP3    H233594   2.493   0.611   1.293 -0.5008 -1.2280 -0.0621
 4035TIP3   OH233595   2.294   1.619   1.775  0.1753  0.1161  0.3868
 4035TIP3    H133596   2.355   1.653   1.841  0.3415 -0.8883  0.7564
 4035TIP3    H233597   2.240   1.695   1.752 -0.2073  0.3705  2.0158
 4036TIP3   OH233598   3.635   4.286  12.343 -1.1968 -0.2400  0.2373
 4036TIP3    H133599   3.663   4.197  12.322 -2.5004 -1.1732  2.1538
 4036TIP3    H233600   3.715   4.329  12.375 -0.5383 -0.6895 -0.7631
 4037TIP3   OH233601   6.799   6.762  11.971  0.1439  0.0271 -0.3804
 4037TIP3    H133602   6.866   6.705  12.009 -0.5835 -0.9482 -0.5210
 4037TIP3    H233603   6.776   6.720  11.888  1.7946  2.1723 -2.0633
 4038TIP3   OH233604   4.284   3.993  16.609 -0.9154 -0.3522 -0.1983
 4038TIP3    H133605   4.242   3.963  16.690 -1.1605  0.5346  0.0174
 4038TIP3    H233606   4.351   4.055  16.639 -2.0896  1.2319 -0.7391
 4039TIP3   OH233607   6.689   1.150  14.707  0.0750  0.2790  0.0249
 4039TIP3    H133608   6.703   1.063  14.744  2.6537  0.5916 -0.0207
 4039TIP3    H233609   6.621   1.138  14.641 -1.7751 -1.0717  2.0310
 4040TIP3   OH233610   1.287   3.196   2.161 -0.2950 -0.0691 -0.4605
 4040TIP3    H133611   1.356   3.259   2.182  0.4216 -0.5640 -1.2746
 4040TIP3    H233612   1.235   3.239   2.093  0.6302 -0.6148 -1.5492
 4041TIP3   OH233613   1.343   3.229   0.359 -0.0208 -0.3985 -0.1918
 4041TIP3    H133614   1.279   3.300   0.367 -1.0050 -1.0441 -1.6659
 4041TIP3    H233615   1.356   3.198   0.448  0.8936  1.9819  0.5789
 4042TIP3   OH233616   2.454   5.730  16.501  0.1707 -0.4404  0.5811
 4042TIP3    H133617   2.386   5.717  16.435 -0.1394 -0.5833  0.9272
 4042TIP3    H233618   2.490   5.817  16.482 -0.7441  0.0353  0.9685
 4043TIP3   OH233619   6.470   3.128  16.653  0.2732  0.6818  0.0296
 4043TIP3    H133620   6.505   3.063  16.714  0.1096  1.5623  1.0824
 4043TIP3    H233621   6.447   3.203  16.708 -0.7424  1.1465 -0.9962
 4044TIP3   OH233622   3.510   2.653   3.013 -0.4089 -0.4897  0.5369
 4044TIP3    H133623   3.458   2.574   2.998 -1.0300 -0.2886  1.5187
 4044TIP3    H233624   3.586   2.622   3.063  1.3216 -1.0513 -2.2378
 4045TIP3   OH233625   6.138   6.711   5.680 -0.1425 -0.1651 -0.0307
 4045TIP3    H133626   6.204   6.780   5.679 -0.0326 -0.2327  1.3971
 4045TIP3    H233627   6.102   6.711   5.591  1.6997 -0.0790 -0.8125
 4046TIP3   OH233628   6.706   0.578  10.766  0.2356 -0.6460 -0.3796
 4046TIP3    H133629   6.656   0.656  10.742 -2.4684 -2.4924 -1.2117
 4046TIP3    H233630   6.744   0.599  10.852 -2.2716  0.8200  0.4784
 4047TIP3   OH233631   5.658   0.679  11.452  0.0333  0.1498 -0.1197
 4047TIP3    H133632   5.607   0.686  11.532 -1.2265  1.0507 -0.9684
 4047TIP3    H233633   5.656   0.586  11.430  0.5005 -0.1235  0.9421
 4048TIP3   OH233634   4.459   6.397  12.717 -0.3605 -0.1960  0.1773
 4048TIP3    H133635   4.448   6.344  12.638  0.8022 -0.1241 -0.0439
 4048TIP3    H233636   4.371   6.433  12.733 -0.4483  0.4980 -1.6007
 4049TIP3   OH233637   3.143   3.177   2.238 -0.3881 -0.4014  0.5043
 4049TIP3    H133638   3.112   3.259   2.276  0.5142  0.1142  0.1552
 4049TIP3    H233639   3.117   3.109   2.300  0.8490  0.3869  1.9286
 4050TIP3   OH233640   4.476   0.077  11.616 -0.1387  0.0355 -0.1998
 4050TIP3    H133641   4.546   0.136  11.641  1.0176 -0.6791 -1.6034
 4050TIP3    H233642   4.506   0.036  11.536 -2.8299  0.8548 -1.7771
 4051TIP3   OH233643   0.199   2.231   3.381  0.0120 -0.0223 -0.7441
 4051TIP3    H133644   0.103   2.229   3.379 -0.0211 -0.4237  0.3599
 4051TIP3    H233645   0.220   2.318   3.416  0.0259 -0.1519 -0.4239
 4052TIP3   OH233646   0.334   6.822  11.049 -0.0416  0.4900  0.2643
 4052TIP3    H133647   0.371   6.814  10.961  0.4270  1.1882  0.3843
 4052TIP3    H233648   0.239   6.818  11.036 -0.0084  1.4155 -0.3779
 4053TIP3   OH233649   1.181   6.790  16.490  0.5537  0.0490 -0.1163
 4053TIP3    H133650   1.121   6.804  16.563  0.3435 -0.0942 -0.2617
 4053TIP3    H233651   1.149   6.711  16.447  0.8201 -0.0040 -0.2212
 4054TIP3   OH233652   5.229   1.784  13.168 -0.4061  0.7947 -0.1969
 4054TIP3    H133653   5.195   1.728  13.098  0.7331 -1.0587  0.6496
 4054TIP3    H233654   5.207   1.873  13.140 -1.2718  0.0272 -2.1779
 4055TIP3   OH233655   1.848   6.313  15.059 -0.1736  0.4051  0.1989
 4055TIP3    H133656   1.936   6.288  15.087  0.6165  0.6141 -1.8855
 4055TIP3    H233657   1.795   6.234  15.072  0.1246  0.4745  2.0957
 4056TIP3   OH233658   5.853   0.602   2.097 -0.4428 -0.4830 -0.2125
 4056TIP3    H133659   5.784   0.592   2.031 -1.7593 -0.1117  1.0472
 4056TIP3    H233660   5.812   0.656   2.166  2.3811  3.4787 -1.2663
 4057TIP3   OH233661   3.138   2.024  14.488  0.1091 -0.4938 -0.2272
 4057TIP3    H133662   3.054   2.019  14.443  0.4776  0.5424 -1.0705
 4057TIP3    H233663   3.201   2.048  14.420  0.7846  0.5388  0.7190
 4058TIP3   OH233664   5.080   0.594   5.308  0.6331 -0.4445 -0.3882
 4058TIP3    H133665   5.070   0.594   5.404 -0.0806  0.4901 -0.4545
 4058TIP3    H233666   5.029   0.518   5.279 -0.3626  0.1116 -0.1368
 4059TIP3   OH233667   1.726   6.068   0.429 -0.0287  0.1349 -0.0818
 4059TIP3    H133668   1.813   6.100   0.407 -0.3909  0.9513 -0.3763
 4059TIP3    H233669   1.688   6.042   0.345 -0.4125  0.6849 -0.0835
 4060TIP3   OH233670   4.569   1.109   1.868 -0.3457  0.6365  0.5866
 4060TIP3    H133671   4.501   1.096   1.934  0.5017  1.5118  1.6622
 4060TIP3    H233672   4.541   1.188   1.821  0.9176  2.2248  2.3807
 4061TIP3   OH233673   2.732   5.367   5.279  0.2763  0.6367  0.2768
 4061TIP3    H133674   2.820   5.334   5.296  0.1862  1.0744  1.7092
 4061TIP3    H233675   2.736   5.403   5.190  0.9032 -1.3770 -0.5696
 4062TIP3   OH233676   6.770   2.020   1.055  0.2390 -0.1605  0.4149
 4062TIP3    H133677   6.832   2.069   1.001  1.7565 -0.2976  1.9463
 4062TIP3    H233678   6.746   2.082   1.124 -0.0647 -0.6420  0.7432
 4063TIP3   OH233679   0.618   0.383  15.083  0.1461  1.0650 -0.1530
 4063TIP3    H133680   0.537   0.400  15.131  0.4981 -0.1634  0.9192
 4063TIP3    H233681   0.683   0.365  15.150  1.3876  2.1722 -0.9827
 4064TIP3   OH233682   6.492   5.438  13.901  0.4943  0.3192 -0.5672
 4064TIP3    H133683   6.539   5.356  13.913  0.1209 -0.0071 -1.2429
 4064TIP3    H233684   6.558   5.501  13.871  1.2075  0.8482  1.8943
 4065TIP3   OH233685   3.698   2.896  14.504 -0.2834 -0.3459 -0.0041
 4065TIP3    H133686   3.709   2.991  14.495 -0.9099 -0.2316  0.3675
 4065TIP3    H233687   3.736   2.860  14.424 -0.1636  0.2280 -0.2120
 4066TIP3   OH233688   2.396   5.916  11.544 -0.1064  0.3859 -0.3893
 4066TIP3    H133689   2.479   5.911  11.495 -0.3344 -0.1222 -0.7271
 4066TIP3    H233690   2.415   5.876  11.628 -0.3012 -0.7453 -0.8729
 4067TIP3   OH233691   2.848   1.638   2.780  0.0810 -0.4616  0.2195
 4067TIP3    H133692   2.786   1.614   2.712  0.2865 -1.2172  0.2875
 4067TIP3    H233693   2.909   1.699   2.738 -0.3261 -0.2170 -0.0167
 4068TIP3   OH233694   2.963   5.352   3.391  0.6835 -0.3209 -0.2923
 4068TIP3    H133695   2.919   5.346   3.307 -0.3068 -0.1665  0.2007
 4068TIP3    H233696   3.027   5.422   3.380  0.4619 -0.2082 -0.8718
 4069TIP3   OH233697   6.844   0.412  11.891  0.2649  0.3421  0.1111
 4069TIP3    H133698   6.897   0.490  11.875 -0.1541  0.7331  0.5783
 4069TIP3    H233699   6.876   0.378  11.975 -2.1724  2.3138  2.0114
 4070TIP3   OH233700   2.524   6.633  12.070 -0.4085  0.3679  0.0856
 4070TIP3    H133701   2.432   6.612  12.089 -0.9823 -0.1606 -2.7878
 4070TIP3    H233702   2.573   6.563  12.114 -1.8274 -2.8363 -2.8783
 4071TIP3   OH233703   2.711   5.430   5.001 -0.1389  0.1824 -0.1638
 4071TIP3    H133704   2.679   5.398   4.917  2.0050 -0.1366 -0.9314
 4071TIP3    H233705   2.683   5.521   5.005 -1.6825 -0.2564 -0.4404
 4072TIP3   OH233706   0.594   3.007   3.723 -0.1705  0.3776  0.5105
 4072TIP3    H133707   0.613   3.036   3.634  2.3117  1.5018  1.3196
 4072TIP3    H233708   0.549   3.082   3.763 -0.1450  0.3546  0.5823
 4073TIP3   OH233709   5.998   6.096  10.348  0.6062  0.6688  0.0485
 4073TIP3    H133710   6.044   6.129  10.425 -0.5305 -0.9449  1.4820
 4073TIP3    H233711   6.035   6.009  10.332  0.3200  0.6822 -0.7807
 4074TIP3   OH233712   6.211   4.767   5.391 -0.2219  0.2410 -0.0164
 4074TIP3    H133713   6.121   4.787   5.418 -0.1869  0.7069 -0.2446
 4074TIP3    H233714   6.253   4.736   5.471 -1.5753 -3.5970 -0.5692
 4075TIP3   OH233715   2.428   5.571  14.202 -0.2574  0.5656 -0.0286
 4075TIP3    H133716   2.519   5.584  14.176 -1.0923  0.8959 -3.2919
 4075TIP3    H233717   2.431   5.502  14.269  2.3352  0.3323 -0.2913
 4076TIP3   OH233718   1.001   1.927  12.101  0.8144 -0.6270  0.1853
 4076TIP3    H133719   0.955   1.974  12.170  0.3112 -0.4708 -0.2464
 4076TIP3    H233720   0.959   1.956  12.020  1.5031 -0.6827 -0.2015
 4077TIP3   OH233721   2.685   5.648  11.251 -0.0122 -0.2115 -0.3303
 4077TIP3    H133722   2.725   5.672  11.167  0.0825 -1.1352 -0.5592
 4077TIP3    H233723   2.631   5.572  11.231  0.1455 -0.5476  0.4824
 4078TIP3   OH233724   3.157   2.334  16.742  0.1325 -0.0953  0.3417
 4078TIP3    H133725   3.125   2.246  16.765  0.1527  0.4265  2.5619
 4078TIP3    H233726   3.252   2.328  16.749  0.3023 -0.4266 -1.6860
 4079TIP3   OH233727   2.754   2.776   1.898  0.1245 -0.5132 -0.2672
 4079TIP3    H133728   2.801   2.727   1.830  1.4705 -0.1427  0.3501
 4079TIP3    H233729   2.810   2.851   1.916 -1.9340  1.3635 -1.2369
 4080TIP3   OH233730   5.568   5.623   4.939  0.7608 -0.4564  0.8611
 4080TIP3    H133731   5.632   5.645   4.871  2.9677 -0.3771  2.8133
 4080TIP3    H233732   5.516   5.702   4.951 -0.2039 -0.7256 -1.2082
 4081TIP3   OH233733   3.238   3.441  12.769  0.3895 -0.6437 -0.3797
 4081TIP3    H133734   3.290   3.486  12.702 -0.1170 -1.2424 -1.1859
 4081TIP3    H233735   3.292   3.446  12.848  1.1943 -0.3167 -0.9380
 4082TIP3   OH233736   6.010   2.229  10.946 -0.2641  0.1338  0.1575
 4082TIP3    H133737   5.974   2.290  10.882 -1.0733  0.8620  1.2675
 4082TIP3    H233738   6.080   2.183  10.899 -1.2964  0.1291 -1.4452
 4083TIP3   OH233739   5.212   5.282   3.548 -0.2516  0.0457  0.6018
 4083TIP3    H133740   5.188   5.354   3.489  2.4943 -1.9728 -3.4199
 4083TIP3    H233741   5.147   5.214   3.529  2.0488 -1.5641 -2.4275
 4084TIP3   OH233742   5.682   1.756  16.784 -0.6998 -0.7162 -0.2987
 4084TIP3    H133743   5.652   1.699  16.855 -1.1806 -1.3290 -0.9809
 4084TIP3    H233744   5.666   1.706  16.705 -1.0064  0.3192 -0.9065
 4085TIP3   OH233745   1.353   3.123   4.343 -0.5990  0.4301  0.0027
 4085TIP3    H133746   1.267   3.156   4.367 -0.1030  2.4625 -0.7663
 4085TIP3    H233747   1.354   3.127   4.247 -0.9208 -3.1455 -0.2670
 4086TIP3   OH233748   0.020   4.833   5.927 -0.4718  0.0248 -0.0807
 4086TIP3    H133749   0.070   4.759   5.962  0.9627  1.4729  1.1332
 4086TIP3    H233750   0.038   4.905   5.988 -1.4320  1.5098 -1.4520
 4087TIP3   OH233751   2.158   3.924   2.447  0.2419  0.3902  0.4954
 4087TIP3    H133752   2.115   4.010   2.452  1.7454  1.2110 -0.2232
 4087TIP3    H233753   2.142   3.894   2.358 -0.5217 -0.2303  0.8283
 4088TIP3   OH233754   1.905   4.159  13.882  0.7325 -0.6931 -0.2903
 4088TIP3    H133755   1.958   4.099  13.828  0.9931 -1.3822  0.7053
 4088TIP3    H233756   1.820   4.159  13.839  1.3665  0.0350 -1.6247
 4089TIP3   OH233757   0.232   4.830   1.082  0.0512  0.1994 -0.4754
 4089TIP3    H133758   0.140   4.810   1.067  0.0352 -1.1921  1.1573
 4089TIP3    H233759   0.250   4.906   1.026 -2.4173  1.3497  0.1537
 4090TIP3   OH233760   3.101   2.838  14.705 -0.5016  0.5174 -0.1577
 4090TIP3    H133761   3.118   2.764  14.647 -0.9305  0.7046 -0.5266
 4090TIP3    H233762   3.145   2.815  14.787 -0.9479 -0.3224 -0.1441
 4091TIP3   OH233763   0.998   2.967   5.868 -0.0336  0.6959 -0.6732
 4091TIP3    H133764   1.036   3.050   5.841 -0.5484  1.0329 -0.3706
 4091TIP3    H233765   1.030   2.904   5.804 -0.6674  1.3543 -1.6692
 4092TIP3   OH233766   3.347   4.687   2.433  0.4894 -0.2786  0.1919
 4092TIP3    H133767   3.409   4.733   2.375  2.2508 -2.2481  0.4064
 4092TIP3    H233768   3.329   4.750   2.503  0.5606  1.1109 -0.9850
 4093TIP3   OH233769   2.705   4.214   4.774  0.3250 -0.2881  0.4303
 4093TIP3    H133770   2.722   4.252   4.861 -1.5254  1.7476 -0.0110
 4093TIP3    H233771   2.610   4.210   4.768  0.3469  1.1367 -2.0999
 4094TIP3   OH233772   4.009   5.947   0.740 -0.0695  0.3412 -0.0793
 4094TIP3    H133773   4.070   5.877   0.764 -2.6898 -1.6458  1.2722
 4094TIP3    H233774   3.977   5.922   0.654 -0.9405 -0.1204  0.3657
 4095TIP3   OH233775   2.140   5.314   3.082 -0.5863 -0.5760 -0.3655
 4095TIP3    H133776   2.081   5.266   3.025 -2.6806  0.4377  0.8530
 4095TIP3    H233777   2.141   5.265   3.164 -0.2682 -0.2259 -0.1538
 4096TIP3   OH233778   3.108   2.296  13.264 -0.6232  0.4516  0.2382
 4096TIP3    H133779   3.014   2.316  13.264 -0.9685 -1.0302 -0.3528
 4096TIP3    H233780   3.141   2.337  13.184 -1.0820 -0.2626 -0.3342
 4097TIP3   OH233781   3.393   3.193   4.184  0.2381 -0.4247  0.2550
 4097TIP3    H133782   3.486   3.206   4.204  0.3303  1.0720 -0.9372
 4097TIP3    H233783   3.390   3.117   4.126  0.4377 -1.9255  2.1352
 4098TIP3   OH233784   2.877   0.879  11.819  0.1129 -0.0634 -0.0579
 4098TIP3    H133785   2.804   0.891  11.880 -0.1573  2.2534 -0.7521
 4098TIP3    H233786   2.845   0.913  11.736  1.7177  0.3215 -0.5634
 4099TIP3   OH233787   3.265   2.851   0.024 -0.2150  0.1752 -0.5036
 4099TIP3    H133788   3.171   2.835   0.034 -0.5001  2.4106  1.1917
 4099TIP3    H233789   3.298   2.774  -0.022 -2.5195 -1.6741  0.7294
 4100TIP3   OH233790   0.604   5.304   2.552 -0.0480 -0.1747  1.1280
 4100TIP3    H133791   0.511   5.302   2.572  0.1706 -1.4660  2.1810
 4100TIP3    H233792   0.621   5.221   2.507  0.3595  0.6549 -0.3137
 4101TIP3   OH233793   6.470   2.605   1.147 -0.7617  0.1707  0.7119
 4101TIP3    H133794   6.408   2.629   1.216  0.2320  0.9301  1.3567
 4101TIP3    H233795   6.414   2.589   1.070 -1.7118  1.7004  1.0336
 4102TIP3   OH233796   1.431   3.715  14.653  0.4231 -0.7451  0.1992
 4102TIP3    H133797   1.450   3.621  14.646 -1.5900 -1.2067  0.5297
 4102TIP3    H233798   1.351   3.727  14.603  1.0113  0.9610 -0.4044
 4103TIP3   OH233799   0.647   2.870  13.629 -0.5612 -0.1839  0.2126
 4103TIP3    H133800   0.611   2.803  13.572  1.1500 -0.8981 -0.0934
 4103TIP3    H233801   0.641   2.833  13.717  1.3479 -1.2648 -0.0570
 4104TIP3   OH233802   0.080   3.102  15.978  0.2085  0.0733  0.3045
 4104TIP3    H133803   0.054   3.149  16.058  2.3869  1.4567  0.2872
 4104TIP3    H233804   0.131   3.027  16.010 -2.0385 -1.5581  0.2767
 4105TIP3   OH233805   3.503   5.423  12.477  0.2230  0.1883 -0.0611
 4105TIP3    H133806   3.595   5.448  12.478  0.6324 -1.2606  0.3432
 4105TIP3    H233807   3.493   5.363  12.551 -0.6954 -0.8248 -0.9712
 4106TIP3   OH233808   2.674   4.360   0.451  0.4634 -0.4390 -0.7588
 4106TIP3    H133809   2.669   4.397   0.539 -0.5249  2.5764 -1.9464
 4106TIP3    H233810   2.753   4.306   0.452  1.5136  0.9902  1.4510
 4107TIP3   OH233811   5.699   5.310   3.644  0.0406 -0.1184  0.7000
 4107TIP3    H133812   5.778   5.269   3.610 -1.3543 -1.5891 -0.9545
 4107TIP3    H233813   5.633   5.295   3.577 -0.7285  4.7128  0.0002
 4108TIP3   OH233814   1.901   4.351   5.404 -0.6482 -0.1955  0.2923
 4108TIP3    H133815   1.839   4.402   5.351  1.2148  2.1712  0.2250
 4108TIP3    H233816   1.897   4.391   5.491 -0.2088 -0.9282  0.6610
 4109TIP3   OH233817   3.547   0.628  13.554 -0.4386 -0.2762  0.2583
 4109TIP3    H133818   3.602   0.650  13.479 -1.5994  2.0570 -0.0087
 4109TIP3    H233819   3.464   0.673  13.537 -1.2123 -0.8243  2.2869
 4110TIP3   OH233820   1.955   3.478  11.876  0.3644 -0.5367 -0.3944
 4110TIP3    H133821   1.991   3.399  11.836  0.7452 -0.3050 -0.5065
 4110TIP3    H233822   2.006   3.550  11.840  0.3471 -0.2773  0.0819
 4111TIP3   OH233823   4.155   5.789  16.571  0.6426  0.0337  0.0071
 4111TIP3    H133824   4.087   5.783  16.638  2.1105  1.4526  1.7157
 4111TIP3    H233825   4.142   5.711  16.517 -2.2568  0.2262  0.2904
 4112TIP3   OH233826   2.722   0.109  12.846 -0.3400 -0.1334  0.3027
 4112TIP3    H133827   2.740   0.099  12.940  1.2759 -1.2721 -0.0927
 4112TIP3    H233828   2.745   0.025  12.808 -0.1900  0.5750 -1.2443
 4113TIP3   OH233829   3.594   1.083   3.754  0.0025 -0.3063 -0.1092
 4113TIP3    H133830   3.605   1.046   3.666 -0.0597  0.7338 -0.5752
 4113TIP3    H233831   3.663   1.042   3.806  0.2202 -0.7301 -0.7105
 4114TIP3   OH233832   1.941   5.537   0.776 -0.3896 -0.1916 -0.2613
 4114TIP3    H133833   1.929   5.506   0.687 -0.5323 -0.3280 -0.1943
 4114TIP3    H233834   1.925   5.632   0.771 -0.0693 -0.1446 -0.4404
 4115TIP3   OH233835   3.017   4.292   3.395  0.5217  0.5544 -0.0437
 4115TIP3    H133836   3.019   4.340   3.312 -1.5627  0.6025 -0.1273
 4115TIP3    H233837   3.081   4.337   3.450  2.0286  0.4516 -1.6182
 4116TIP3   OH233838   2.359   5.563  16.701  0.4117 -0.0905 -0.3504
 4116TIP3    H133839   2.391   5.636  16.648  0.6713  1.4886  1.8404
 4116TIP3    H233840   2.282   5.598  16.745  0.4419 -1.1999  0.6262
 4117TIP3   OH233841   6.698   6.308  15.371  0.1328 -0.8286  0.1883
 4117TIP3    H133842   6.667   6.395  15.349 -0.7370 -0.8552  1.2244
 4117TIP3    H233843   6.790   6.320  15.396 -0.1714 -0.1038  0.9765
 4118TIP3   OH233844   4.071   0.182  14.250  0.0453 -0.5742 -0.1847
 4118TIP3    H133845   4.117   0.113  14.202  0.1915 -0.7729  0.2321
 4118TIP3    H233846   4.140   0.235  14.289 -0.0707 -0.3279 -0.3132
 4119TIP3   OH233847   6.638   4.478  11.650 -0.0656  0.0240 -0.6822
 4119TIP3    H133848   6.623   4.533  11.573  1.0291  0.4731 -0.6059
 4119TIP3    H233849   6.661   4.392  11.615 -0.5409 -0.0451 -0.8285
 4120TIP3   OH233850   6.430   2.189   4.649 -0.0857  0.6782  0.6329
 4120TIP3    H133851   6.398   2.204   4.739  0.4298  1.4054  0.7031
 4120TIP3    H233852   6.352   2.160   4.601 -0.1705 -0.6884  1.5339
 4121TIP3   OH233853   1.060   5.394   0.023  0.3478 -0.5612  0.9389
 4121TIP3    H133854   0.998   5.463  -0.005  0.4614 -0.5482  0.7109
 4121TIP3    H233855   1.146   5.432   0.006  0.4066 -1.1120 -0.0784
 4122TIP3   OH233856   5.053   6.506  16.478 -0.2190  0.1356  0.4779
 4122TIP3    H133857   4.975   6.497  16.532  0.0734 -0.9330  0.7383
 4122TIP3    H233858   5.093   6.588  16.507 -0.7566  0.2332  0.9566
 4123TIP3   OH233859   0.677   6.047  14.600  0.1956 -0.0547 -0.0363
 4123TIP3    H133860   0.654   6.134  14.632 -2.5391 -0.1969 -1.3498
 4123TIP3    H233861   0.688   6.058  14.505 -0.9006 -1.2505 -0.3193
 4124TIP3   OH233862   2.366   1.186   1.386 -0.3645  0.0444  0.3808
 4124TIP3    H133863   2.457   1.210   1.373 -0.4403  1.5795  2.3089
 4124TIP3    H233864   2.317   1.266   1.367 -1.0638  0.0325  1.9799
 4125TIP3   OH233865   4.530   5.449   1.516  0.4394 -0.3129 -0.1419
 4125TIP3    H133866   4.504   5.454   1.608  2.3481  1.6011  0.3634
 4125TIP3    H233867   4.623   5.430   1.518 -0.1359 -4.4202 -1.8413
 4126TIP3   OH233868   0.927   2.899   0.198  0.1586 -0.4630  0.1634
 4126TIP3    H133869   1.013   2.925   0.164  0.1239 -0.3381  0.1692
 4126TIP3    H233870   0.878   2.981   0.203 -0.5964 -0.7692 -1.5959
 4127TIP3   OH233871   2.725   2.894   0.669  0.2440  0.3133 -0.3870
 4127TIP3    H133872   2.734   2.855   0.755  0.3155 -0.1158 -0.5857
 4127TIP3    H233873   2.671   2.972   0.683  2.9489  2.1616  0.6193
 4128TIP3   OH233874   3.920   1.115   3.664 -0.3870  0.4349  0.0776
 4128TIP3    H133875   4.001   1.065   3.651  0.7240  2.2377 -0.3661
 4128TIP3    H233876   3.880   1.076   3.741 -0.4034 -2.1126 -1.1014
 4129TIP3   OH233877   0.601   2.703  14.818 -0.0681  0.2464 -0.1162
 4129TIP3    H133878   0.636   2.698  14.906  0.3147 -1.2109 -0.3188
 4129TIP3    H233879   0.539   2.630  14.813  0.8888 -0.5267 -1.4385
 4130TIP3   OH233880   5.709   4.999   5.850  0.0018  0.0274 -0.1213
 4130TIP3    H133881   5.619   4.966   5.856 -0.5517  1.4346 -0.4011
 4130TIP3    H233882   5.741   4.999   5.940 -0.6875  0.6010  0.1308
 4131TIP3   OH233883   4.502   2.406   0.063 -0.0683  0.2411 -0.6409
 4131TIP3    H133884   4.415   2.417   0.101 -0.3674 -1.6032 -0.7055
 4131TIP3    H233885   4.539   2.331   0.109  1.3499  0.7700 -0.8818
 4132TIP3   OH233886   2.663   0.580  14.554 -0.5183 -1.0299 -0.1751
 4132TIP3    H133887   2.582   0.562  14.601 -1.3858 -1.0184 -1.6001
 4132TIP3    H233888   2.709   0.496  14.552  0.0778 -0.7878  1.6152
 4133TIP3   OH233889   3.303   6.869  12.420  0.1240 -0.3749 -0.3158
 4133TIP3    H133890   3.364   6.927  12.373  1.6969 -0.5133  1.4449
 4133TIP3    H233891   3.217   6.894  12.387  0.9534  1.2853 -1.3888
 4134TIP3   OH233892   5.109   6.732   4.727 -0.3564  0.3729  0.0690
 4134TIP3    H133893   5.042   6.746   4.660 -3.1587 -0.3931  2.4637
 4134TIP3    H233894   5.122   6.818   4.767 -0.7041  0.3454  0.2480
 4135TIP3   OH233895   1.884   5.566   2.324 -0.5662  0.2199 -0.5888
 4135TIP3    H133896   1.902   5.588   2.415 -0.8511 -0.6823 -0.3022
 4135TIP3    H233897   1.897   5.471   2.319 -1.7975  0.0571 -1.1882
 4136TIP3   OH233898   3.544   1.029  11.726 -0.0660  0.1803  0.0592
 4136TIP3    H133899   3.635   1.002  11.734  0.5129  2.2499  1.5042
 4136TIP3    H233900   3.524   1.070  11.810 -1.1793  2.9379 -1.4229
 4137TIP3   OH233901   5.020   3.455   4.156  0.5505 -0.0512  0.1019
 4137TIP3    H133902   5.023   3.364   4.127 -0.6992  0.0914 -0.5543
 4137TIP3    H233903   4.927   3.471   4.173  0.7939  1.0203  0.4818
 4138TIP3   OH233904   1.972   1.199   0.853 -0.2973 -0.5575 -0.6289
 4138TIP3    H133905   1.960   1.217   0.946 -0.5250  1.0475 -0.9463
 4138TIP3    H233906   1.964   1.284   0.810 -0.2913 -1.2777 -2.1372
 4139TIP3   OH233907   3.254   2.682  16.636 -0.6735 -0.3509  0.1931
 4139TIP3    H133908   3.224   2.773  16.640  2.0597  0.8472 -2.2112
 4139TIP3    H233909   3.249   2.659  16.543  1.0956 -1.7106  0.3801
 4140TIP3   OH233910   6.715   6.047   3.618 -0.7271 -0.2925 -0.5992
 4140TIP3    H133911   6.737   5.957   3.593 -0.8330 -0.8684  1.1753
 4140TIP3    H233912   6.653   6.076   3.551  1.1249 -0.6387 -2.5480
 4141TIP3   OH233913   4.679   3.640   3.723 -0.4778 -0.4552  0.0469
 4141TIP3    H133914   4.706   3.700   3.793 -2.0991 -0.3810  0.6347
 4141TIP3    H233915   4.596   3.603   3.753 -1.8922  0.5266 -2.3603
 4142TIP3   OH233916   4.059   2.948   4.160 -0.3936 -0.6602 -0.3137
 4142TIP3    H133917   4.020   3.033   4.182  0.3914 -0.5171  0.5978
 4142TIP3    H233918   4.153   2.966   4.156 -0.3828 -1.0309 -2.3281
 4143TIP3   OH233919   1.257   3.487   3.828 -0.0300  0.0084 -0.5495
 4143TIP3    H133920   1.297   3.547   3.890  0.7501  0.5862 -1.5803
 4143TIP3    H233921   1.179   3.533   3.796 -1.1219 -0.7713  0.8243
 4144TIP3   OH233922   1.047   0.356   5.074 -0.0915  0.1746 -0.4378
 4144TIP3    H133923   1.134   0.337   5.037  0.8944  1.0150  1.3080
 4144TIP3    H233924   1.058   0.340   5.168 -1.3114  2.0306  0.0567
 4145TIP3   OH233925   0.191   0.176  15.694  0.3036 -0.1344  0.1167
 4145TIP3    H133926   0.222   0.267  15.691  0.8201 -0.2246  1.8217
 4145TIP3    H233927   0.271   0.124  15.696  0.0064 -0.6333 -0.5985
 4146TIP3   OH233928   4.779   6.687   6.339  0.2359 -0.7024 -0.0133
 4146TIP3    H133929   4.809   6.597   6.326 -0.9855 -1.1294  0.0393
 4146TIP3    H233930   4.850   6.728   6.388  1.1360 -1.4213 -0.6558
 4147TIP3   OH233931   4.526   2.508   2.049 -0.5522 -0.4195 -0.1794
 4147TIP3    H133932   4.434   2.509   2.024 -0.7155  1.5608  0.2740
 4147TIP3    H233933   4.540   2.594   2.090  1.5852 -0.5140 -0.5877
 4148TIP3   OH233934   4.690   0.530   2.337  0.3287  0.2675 -0.1365
 4148TIP3    H133935   4.726   0.498   2.254  0.4846  0.5762 -0.1873
 4148TIP3    H233936   4.743   0.485   2.403  0.0600 -0.1481 -0.1983
 4149TIP3   OH233937   0.956   3.001  12.375  0.0189  0.1640  0.6123
 4149TIP3    H133938   0.923   2.956  12.453 -1.6392  0.2727  0.0078
 4149TIP3    H233939   0.965   2.932  12.310 -1.6909  0.5067 -0.0475
 4150TIP3   OH233940   5.292   5.738   4.054  0.2375  0.0626  0.3958
 4150TIP3    H133941   5.220   5.704   4.108  0.9398 -0.7490  0.8592
 4150TIP3    H233942   5.330   5.660   4.014  0.0658  0.6125 -0.8698
 4151TIP3   OH233943   0.689   0.655  14.997 -0.6713 -0.1538  0.1735
 4151TIP3    H133944   0.665   0.569  15.030 -2.4646  0.3890  0.3815
 4151TIP3    H233945   0.658   0.656  14.907 -0.0650  0.0561 -0.0388
 4152TIP3   OH233946   3.313   5.494  12.773 -0.3306 -0.0682  0.0094
 4152TIP3    H133947   3.268   5.541  12.844  0.9415 -0.1412  0.8854
 4152TIP3    H233948   3.386   5.550  12.749 -0.9481  0.1159 -1.5091
 4153TIP3   OH233949   6.430   1.291   0.765 -0.1260 -0.0761  0.0493
 4153TIP3    H133950   6.493   1.237   0.812  1.3595  2.2367  0.9053
 4153TIP3    H233951   6.391   1.346   0.832 -0.6059  0.8256 -0.9321
 4154TIP3   OH233952   2.971   6.763   1.783  0.2079  0.3530  0.3359
 4154TIP3    H133953   2.979   6.705   1.708  0.4267  1.0358 -0.1838
 4154TIP3    H233954   3.056   6.758   1.827  0.0627 -0.0857  0.5732
 4155TIP3   OH233955   1.508   2.823   1.135  0.5071  0.0820  0.2450
 4155TIP3    H133956   1.556   2.756   1.183  0.1174 -0.8693 -0.6510
 4155TIP3    H233957   1.575   2.873   1.089  0.8294  0.5649  1.2096
 4156TIP3   OH233958   4.273   4.206  11.841 -0.2546 -0.1836  0.5617
 4156TIP3    H133959   4.200   4.144  11.837 -2.8575  2.6839 -3.3616
 4156TIP3    H233960   4.247   4.269  11.908  0.4359 -1.0561  1.6817
 4157TIP3   OH233961   6.006   5.128  16.659  0.2057  0.2941 -0.0789
 4157TIP3    H133962   6.075   5.194  16.651 -2.9751  4.1979  1.1587
 4157TIP3    H233963   5.973   5.117  16.570  1.3154 -0.3696 -0.4276
 4158TIP3   OH233964   2.383   5.217  11.284 -0.5149  0.6048  0.9404
 4158TIP3    H133965   2.410   5.159  11.355 -0.9260 -0.9537 -0.1179
 4158TIP3    H233966   2.465   5.250  11.248  0.1308 -2.6354 -1.0519
 4159TIP3   OH233967   5.106   3.087   2.671  0.2716 -0.2688 -0.3752
 4159TIP3    H133968   5.113   3.108   2.578 -0.0971  0.9531 -0.1385
 4159TIP3    H233969   5.014   3.102   2.693  0.0360 -1.8928 -0.1047
 4160TIP3   OH233970   6.544   5.834   0.923 -0.4045 -0.2144 -0.5206
 4160TIP3    H133971   6.596   5.885   0.861 -0.3714 -0.0165 -0.3292
 4160TIP3    H233972   6.604   5.767   0.956 -0.2928 -0.0350 -0.3587
 4161TIP3   OH233973   0.649   6.114   4.735  0.1249  0.1796 -0.3227
 4161TIP3    H133974   0.594   6.144   4.664 -0.4028  0.5425  0.2311
 4161TIP3    H233975   0.604   6.037   4.770  1.1849 -0.9637 -1.3758
 4162TIP3   OH233976   5.105   5.967  12.292 -0.8976 -0.3650 -0.5410
 4162TIP3    H133977   5.127   6.006  12.207  1.5630  0.7170  0.4728
 4162TIP3    H233978   5.190   5.959  12.336 -2.1079 -0.8094  1.8452
 4163TIP3   OH233979   1.838   0.536   5.458  0.5738 -0.1359  0.2936
 4163TIP3    H133980   1.930   0.562   5.467  0.9983 -0.6849 -1.8386
 4163TIP3    H233981   1.790   0.619   5.451  0.9472  0.1478  1.0130
 4164TIP3   OH233982   1.647   5.175   1.491  0.0321  0.2128  0.1108
 4164TIP3    H133983   1.663   5.232   1.416 -0.2134 -0.8176 -0.7599
 4164TIP3    H233984   1.575   5.216   1.539  0.0053  0.7396 -0.3817
 4165TIP3   OH233985   1.459   0.355  13.382 -0.2965 -0.3016  0.0798
 4165TIP3    H133986   1.541   0.397  13.354 -0.4057  0.0717  0.3078
 4165TIP3    H233987   1.398   0.428  13.394 -0.3553 -0.4837  0.9288
 4166TIP3   OH233988   3.462   0.095  15.546 -0.0812 -0.5422 -0.2318
 4166TIP3    H133989   3.505   0.125  15.626  0.4221 -2.0173  0.0844
 4166TIP3    H233990   3.505   0.144  15.476  0.9960 -0.7929  0.2294
 4167TIP3   OH233991   6.210   0.665  14.059 -0.2790 -0.4916  0.1372
 4167TIP3    H133992   6.186   0.631  13.973  0.2804 -1.2491  0.2719
 4167TIP3    H233993   6.283   0.725  14.041 -0.6508 -0.0739  0.0051
 4168TIP3   OH233994   4.817   4.526  15.773 -0.0503  0.7286 -0.4995
 4168TIP3    H133995   4.744   4.586  15.757 -0.7940  0.4339  1.4758
 4168TIP3    H233996   4.876   4.574  15.831  2.7854  1.9602 -4.0223
 4169TIP3   OH233997   3.744   1.380  14.140  0.2702 -0.2813  0.0059
 4169TIP3    H133998   3.675   1.429  14.183 -0.0440 -1.7784  1.3049
 4169TIP3    H233999   3.823   1.430  14.156 -0.3485  0.9389 -0.6450
 4170TIP3   OH234000   1.166   5.550  13.424 -0.0601 -0.5212  0.0214
 4170TIP3    H134001   1.134   5.583  13.340 -2.1716 -2.9225 -0.2400
 4170TIP3    H234002   1.230   5.484  13.400  0.2327 -0.3529  0.3458
 4171TIP3   OH234003   2.628   4.654   1.043 -0.3097  0.6103  0.3289
 4171TIP3    H134004   2.693   4.650   1.113  1.4172  0.9322 -1.1769
 4171TIP3    H234005   2.628   4.746   1.015  0.8571  0.0692 -1.6615
 4172TIP3   OH234006   0.175   6.136   3.178  0.2478 -0.2332 -0.1452
 4172TIP3    H134007   0.244   6.074   3.153  0.5867  0.3960 -0.8096
 4172TIP3    H234008   0.093   6.089   3.164  0.4240  0.0593 -2.4330
 4173TIP3   OH234009   4.354   4.438  14.114 -0.1067 -0.3716 -0.1361
 4173TIP3    H134010   4.440   4.442  14.073 -0.6071 -0.7585 -1.2838
 4173TIP3    H234011   4.315   4.524  14.098  0.7047  0.4459  1.9393
 4174TIP3   OH234012   0.149   1.868  15.919 -0.0359  0.1434 -0.3819
 4174TIP3    H134013   0.077   1.930  15.920 -0.6560 -0.5263  1.5102
 4174TIP3    H234014   0.202   1.891  15.996  0.3578 -0.9281 -0.3074
 4175TIP3   OH234015   3.198   0.030   1.143 -0.1218  0.1236  0.0700
 4175TIP3    H134016   3.210   0.102   1.080  1.6569 -1.2287 -1.2536
 4175TIP3    H234017   3.110  -0.002   1.126  0.1722  0.0628 -1.5176
 4176TIP3   OH234018   0.639   1.218  13.089  0.0863  0.3087 -0.6157
 4176TIP3    H134019   0.695   1.247  13.017  1.3271  1.0426  0.6004
 4176TIP3    H234020   0.651   1.284  13.157 -0.6520 -0.6428  0.4787
 4177TIP3   OH234021   1.327   6.211   1.220 -0.4004  0.0435  0.0884
 4177TIP3    H134022   1.397   6.267   1.187 -1.4685  2.4682  1.6670
 4177TIP3    H234023   1.260   6.213   1.151  0.4725 -1.2256 -0.8491
 4178TIP3   OH234024   2.923   0.462   2.245  0.1245 -0.8433 -0.1778
 4178TIP3    H134025   3.000   0.461   2.189 -0.2169 -1.3193 -0.6566
 4178TIP3    H234026   2.850   0.445   2.185 -0.4854  0.7103  0.0774
 4179TIP3   OH234027   2.932   5.161  12.441 -0.2588  0.3446 -0.3595
 4179TIP3    H134028   2.968   5.239  12.400 -0.7430 -1.0246 -3.6317
 4179TIP3    H234029   2.871   5.195  12.508 -1.4044  2.8253 -2.4988
 4180TIP3   OH234030   2.157   4.546  11.640  0.0273 -0.1757 -0.7997
 4180TIP3    H134031   2.188   4.456  11.643  1.0005  0.1712  0.3495
 4180TIP3    H234032   2.224   4.596  11.687 -1.0400  0.9820 -0.4563
 4181TIP3   OH234033   2.610   2.737   4.211 -0.0686 -0.8221 -0.0964
 4181TIP3    H134034   2.643   2.791   4.138 -1.0429 -1.1948 -0.8341
 4181TIP3    H234035   2.577   2.658   4.169  0.3904 -1.5551  0.8807
 4182TIP3   OH234036   5.942   5.500  15.701  0.3504 -0.8424 -0.3026
 4182TIP3    H134037   5.860   5.507  15.751  1.9482  3.5886  2.2984
 4182TIP3    H234038   5.998   5.445  15.756 -0.0901 -1.9423 -0.9246
 4183TIP3   OH234039   3.901   1.355  14.581 -0.0211  0.4578 -0.1132
 4183TIP3    H134040   3.907   1.369  14.675 -1.7485 -1.7273  0.3879
 4183TIP3    H234041   3.991   1.335  14.554  0.2476 -0.4976  1.3863
 4184TIP3   OH234042   3.224   5.288  10.263 -0.3174 -0.3699 -0.4008
 4184TIP3    H134043   3.263   5.340  10.333  1.4126 -2.0843  0.0131
 4184TIP3    H234044   3.156   5.236  10.307 -1.9290  1.3304 -0.7852
 4185TIP3   OH234045   6.348   1.031   2.673  0.0863 -0.3142 -0.0223
 4185TIP3    H134046   6.348   1.019   2.768  2.9326  1.0837  0.2598
 4185TIP3    H234047   6.328   1.123   2.660 -2.0482 -0.8622 -0.9426
 4186TIP3   OH234048   4.587   6.722   5.613 -0.4360 -0.2937 -0.3525
 4186TIP3    H134049   4.622   6.803   5.574 -2.0784  0.3406 -0.5771
 4186TIP3    H234050   4.608   6.731   5.706  0.9039 -0.4346 -0.6191
 4187TIP3   OH234051   1.356   2.763  10.766 -0.4009  0.1525  0.2486
 4187TIP3    H134052   1.271   2.722  10.752  0.4363 -1.6823  0.3160
 4187TIP3    H234053   1.394   2.769  10.678 -0.3770  0.4919  0.2809
 4188TIP3   OH234054   3.135   4.503   1.760  0.0578 -0.5664 -0.5953
 4188TIP3    H134055   3.229   4.522   1.755  0.5707 -2.4823  0.6032
 4188TIP3    H234056   3.125   4.419   1.716 -0.9976 -0.6578 -0.2009
 4189TIP3   OH234057   3.788   4.675   6.481  0.6645  0.6803 -0.1137
 4189TIP3    H134058   3.770   4.598   6.536  1.3088  1.3661  1.1051
 4189TIP3    H234059   3.875   4.658   6.446 -0.2081 -0.2932 -1.9051
 4190TIP3   OH234060   0.615   3.337   0.557  0.1766 -0.2559 -0.2656
 4190TIP3    H134061   0.698   3.356   0.601  0.2098 -0.4554 -0.2419
 4190TIP3    H234062   0.553   3.318   0.627  0.0233  0.2235 -0.2661
 4191TIP3   OH234063   3.457   1.921   5.536  0.0363 -0.3141 -0.7240
 4191TIP3    H134064   3.398   1.854   5.571 -1.3107  1.4039  0.4593
 4191TIP3    H234065   3.515   1.942   5.610 -0.1229  0.4423 -0.8122
 4192TIP3   OH234066   5.204   1.104  13.306  0.0917 -0.2811  0.1216
 4192TIP3    H134067   5.262   1.084  13.233 -0.7348  2.4191 -1.4033
 4192TIP3    H234068   5.185   1.197  13.298 -3.4376 -0.7190  1.2699
 4193TIP3   OH234069   5.815   2.567  10.086 -0.4894  0.1340  0.1290
 4193TIP3    H134070   5.753   2.504  10.049 -2.0326  1.5577  0.2036
 4193TIP3    H234071   5.868   2.514  10.147 -0.8141 -1.3446 -0.8130
 4194TIP3   OH234072   0.978   0.903  12.671  0.0720  0.2528 -0.1567
 4194TIP3    H134073   1.055   0.929  12.621  0.2401  0.5157  0.2325
 4194TIP3    H234074   1.009   0.833  12.728  0.2939  1.0655  0.7559
 4195TIP3   OH234075   5.221   4.484  15.309  0.1672  0.1733 -0.5151
 4195TIP3    H134076   5.299   4.458  15.359  0.2863  1.2423 -0.1298
 4195TIP3    H234077   5.220   4.424  15.234  1.4702  0.2671 -0.6276
 4196TIP3   OH234078   0.189   6.826   0.638  0.2766  0.1000 -0.4946
 4196TIP3    H134079   0.269   6.863   0.674  0.8947  0.1597 -1.8754
 4196TIP3    H234080   0.161   6.762   0.702  1.8330 -0.4413 -0.3235
 4197TIP3   OH234081   1.679   0.459  13.264 -0.7405 -0.2167  0.2581
 4197TIP3    H134082   1.668   0.549  13.233  0.4654 -0.3922 -0.7494
 4197TIP3    H234083   1.746   0.465  13.332 -0.3913 -0.4051 -0.0708
 4198TIP3   OH234084   5.799   2.993   4.908  0.2670 -0.4946 -0.3232
 4198TIP3    H134085   5.832   3.063   4.851 -2.1833  0.2825 -0.8872
 4198TIP3    H234086   5.785   3.035   4.992 -2.9001  0.2667 -1.1261
 4199TIP3   OH234087   6.563   1.113   6.424 -0.0791 -0.3068 -0.5581
 4199TIP3    H134088   6.584   1.076   6.509  1.0558 -2.7999 -1.8148
 4199TIP3    H234089   6.645   1.149   6.392 -0.5651  0.8852 -0.5151
 4200TIP3   OH234090   0.580   4.401   3.066  0.3304 -0.0609 -0.0164
 4200TIP3    H134091   0.558   4.379   3.156 -2.8467 -1.8717 -1.0615
 4200TIP3    H234092   0.658   4.349   3.047  0.1960 -0.7797  1.2687
 4201TIP3   OH234093   3.224   2.874  12.020 -0.3775  0.3967  0.5115
 4201TIP3    H134094   3.229   2.823  12.102  3.1843 -0.2437  0.0655
 4201TIP3    H234095   3.214   2.808  11.952  0.0523  0.6373  0.2130
 4202TIP3   OH234096   1.466   0.580  11.271  0.3844 -0.2235 -0.3753
 4202TIP3    H134097   1.410   0.502  11.266 -1.0442  0.4925  2.5180
 4202TIP3    H234098   1.555   0.546  11.259  0.0260 -2.7602  2.8644
 4203TIP3   OH234099   6.140   2.135   0.296 -0.2498 -0.3213 -0.0710
 4203TIP3    H134100   6.077   2.196   0.257  0.4191  1.3266  1.2834
 4203TIP3    H234101   6.225   2.167   0.266  0.0883 -1.0686  0.0625
 4204TIP3   OH234102   3.365   5.377  11.351 -0.5939  0.4624 -0.3894
 4204TIP3    H134103   3.300   5.367  11.282  2.6353  1.8508 -3.9802
 4204TIP3    H234104   3.410   5.292  11.355 -1.0173  0.2550  0.4177
 4205TIP3   OH234105   2.721   3.437  12.576  0.1221  0.2434 -0.4422
 4205TIP3    H134106   2.695   3.351  12.607 -0.9005  0.6603 -0.1025
 4205TIP3    H234107   2.812   3.446  12.604 -0.8334  0.7651  2.8853
 4206TIP3   OH234108   3.162   6.612  16.817  0.0916  0.3876 -0.5077
 4206TIP3    H134109   3.202   6.675  16.877  2.9415 -1.2997 -0.4671
 4206TIP3    H234110   3.092   6.572  16.869  0.1576  1.4466  0.4486
 4207TIP3   OH234111   2.983   0.198  16.057 -0.1906 -0.0219  0.0587
 4207TIP3    H134112   3.058   0.139  16.063 -0.1304  0.1414  1.3519
 4207TIP3    H234113   3.012   0.277  16.103  0.3517  1.7370 -3.0593
 4208TIP3   OH234114   3.003   0.688  11.512 -0.2190 -0.5126 -0.5440
 4208TIP3    H134115   3.002   0.673  11.606 -1.3210 -1.8643 -0.7351
 4208TIP3    H234116   3.090   0.660  11.484  1.1571  2.4797  0.3886
 4209TIP3   OH234117   6.228   3.585   1.274 -0.3051  0.1460 -0.4413
 4209TIP3    H134118   6.261   3.669   1.304  0.4261 -1.1922  2.9116
 4209TIP3    H234119   6.302   3.525   1.284 -1.9204 -1.7004  1.4270
 4210TIP3   OH234120   2.035   0.947   0.815 -0.0856  0.0119  0.5444
 4210TIP3    H134121   2.117   0.934   0.863  0.8112 -0.9847 -1.1718
 4210TIP3    H234122   2.023   1.042   0.814  3.3425  0.6531 -2.6333
 4211TIP3   OH234123   5.783   1.097  15.672  0.0652  0.0136 -0.2960
 4211TIP3    H134124   5.748   1.085  15.584  0.3461 -1.8694 -0.2079
 4211TIP3    H234125   5.722   1.048  15.728  1.9901 -2.2361  0.0199
 4212TIP3   OH234126   6.233   5.808   4.640 -0.1882  0.4338  0.2484
 4212TIP3    H134127   6.293   5.821   4.714 -0.4177 -0.3459  0.5764
 4212TIP3    H234128   6.231   5.713   4.627 -1.6780  0.4159  0.5165
 4213TIP3   OH234129   0.285   0.149   2.617  0.1418  0.2288  0.2620
 4213TIP3    H134130   0.338   0.152   2.697 -0.3196  1.4092  0.5496
 4213TIP3    H234131   0.194   0.146   2.649 -0.0091 -0.3808 -0.2194
 4214TIP3   OH234132   0.491   1.600   0.076  0.5190  0.1699  0.2145
 4214TIP3    H134133   0.445   1.519   0.097 -0.7914  0.8679  0.1401
 4214TIP3    H234134   0.525   1.630   0.160 -1.2999  0.9034  0.7305
 4215TIP3   OH234135   0.269   3.014   2.802 -0.4859 -0.8889  0.2779
 4215TIP3    H134136   0.186   2.997   2.847 -0.8925  1.0034  0.3609
 4215TIP3    H234137   0.291   2.932   2.759 -2.2773 -1.5116  0.4764
 4216TIP3   OH234138   5.320   0.668   5.687  0.8064  0.4710 -0.2150
 4216TIP3    H134139   5.286   0.655   5.775  1.2879  0.3309 -0.0453
 4216TIP3    H234140   5.308   0.761   5.669  1.2813  0.6207  0.2398
 4217TIP3   OH234141   5.998   2.256  13.615 -0.5689 -0.1031  0.8461
 4217TIP3    H134142   5.927   2.317  13.593 -0.5251  0.1241  1.3280
 4217TIP3    H234143   5.965   2.170  13.589  1.2153  0.4778 -4.7046
 4218TIP3   OH234144   2.437   0.858  11.006 -0.4680 -0.0159 -0.0703
 4218TIP3    H134145   2.474   0.832  11.090  0.8560  0.5250 -0.4454
 4218TIP3    H234146   2.480   0.801  10.942 -0.7909  0.1755 -0.4654
 4219TIP3   OH234147   0.139   1.360  13.156 -0.7472  0.6359 -0.3047
 4219TIP3    H134148   0.185   1.280  13.130 -1.9185 -0.4010  0.7122
 4219TIP3    H234149   0.055   1.355  13.110 -1.0266  1.0306  0.1569
 4220TIP3   OH234150   0.408   5.039  10.667 -0.2055 -0.2984  0.3476
 4220TIP3    H134151   0.362   5.120  10.643  0.0569 -0.2902 -0.1370
 4220TIP3    H234152   0.356   5.003  10.739 -1.2307 -0.5166 -0.4604
 4221TIP3   OH234153   1.082   5.286  14.954  0.0118 -0.0957  0.4583
 4221TIP3    H134154   1.082   5.227  15.029 -0.8166 -0.7449 -0.0334
 4221TIP3    H234155   1.120   5.235  14.883  0.2344  0.3102  0.2810
 4222TIP3   OH234156   2.227   3.511   4.987 -0.2769  0.5428  0.2818
 4222TIP3    H134157   2.184   3.549   4.910 -1.8660 -0.9852  0.3628
 4222TIP3    H234158   2.192   3.422   4.993  0.4389  0.3482  2.2946
 4223TIP3   OH234159   2.180   6.630   5.441  0.1472 -0.1223 -0.6820
 4223TIP3    H134160   2.193   6.597   5.530 -1.1477 -0.9456 -0.7761
 4223TIP3    H234161   2.087   6.649   5.436  0.6350  2.4695 -1.0401
 4224TIP3   OH234162   1.243   2.908  13.440  0.4224  0.2305  0.1175
 4224TIP3    H134163   1.252   2.821  13.478  0.7972 -0.6281 -1.8366
 4224TIP3    H234164   1.194   2.957  13.505  1.2971 -1.0512  1.8309
 4225TIP3   OH234165   0.692   2.178  11.679 -0.2983 -0.4144 -0.1095
 4225TIP3    H134166   0.654   2.265  11.664  0.0138 -0.2779 -0.1087
 4225TIP3    H234167   0.618   2.124  11.708 -0.7363 -0.4521 -1.2602
 4226TIP3   OH234168   1.341   5.720  12.969  0.4841  0.4092 -0.0976
 4226TIP3    H134169   1.290   5.770  12.905 -0.1789 -0.1230  0.0049
 4226TIP3    H234170   1.429   5.756  12.962 -0.0644  1.9182  0.3013
 4227TIP3   OH234171   6.000   4.529  12.172 -0.0716 -0.2481 -0.3554
 4227TIP3    H134172   5.969   4.593  12.236 -0.2429  0.8266 -1.4578
 4227TIP3    H234173   6.029   4.454  12.224 -1.4987  0.0121  0.8864
 4228TIP3   OH234174   6.849   2.950   3.260 -0.0269 -0.0536  0.5924
 4228TIP3    H134175   6.881   2.958   3.350 -0.3355  0.1706  0.6796
 4228TIP3    H234176   6.758   2.923   3.269 -0.7217  2.0448  0.3964
 4229TIP3   OH234177   2.541   2.103   3.349  0.2345 -0.3297 -0.2787
 4229TIP3    H134178   2.478   2.032   3.339 -1.0271  0.5118  1.2435
 4229TIP3    H234179   2.596   2.076   3.424 -0.5669  0.4796  0.6245
 4230TIP3   OH234180   1.193   2.515   2.829 -0.5243  0.0693 -0.1720
 4230TIP3    H134181   1.268   2.573   2.844 -0.2611 -0.6305  1.4990
 4230TIP3    H234182   1.118   2.566   2.860 -1.0924  1.4704 -3.4643
 4231TIP3   OH234183   0.731   5.754   3.709 -0.7659 -0.0880 -0.6498
 4231TIP3    H134184   0.656   5.722   3.759  0.8360 -0.2425  1.7761
 4231TIP3    H234185   0.692   5.811   3.642 -3.0830 -0.8767 -0.0647
 4232TIP3   OH234186   2.558   6.827   5.164 -0.1283 -0.1378  0.0647
 4232TIP3    H134187   2.599   6.864   5.242  0.3048 -1.8049  0.6648
 4232TIP3    H234188   2.467   6.858   5.167  0.4556  1.6897 -0.0399
 4233TIP3   OH234189   2.939   5.021   5.368 -0.4377  0.5044 -0.1095
 4233TIP3    H134190   3.000   4.967   5.318 -0.0351  1.5309 -0.7633
 4233TIP3    H234191   2.953   4.995   5.459 -0.4579 -0.6744 -0.4202
 4234TIP3   OH234192   5.084   1.901  11.351  0.2053 -1.0127 -1.0888
 4234TIP3    H134193   5.037   1.981  11.375  2.1624  0.3424 -1.5117
 4234TIP3    H234194   5.077   1.846  11.429 -0.4760 -0.0915 -0.4659
 4235TIP3   OH234195   1.733   3.631  14.931  0.5465 -0.4807  0.2543
 4235TIP3    H134196   1.814   3.580  14.933  1.1037  0.3557 -0.4170
 4235TIP3    H234197   1.760   3.720  14.953  0.1022  0.1552 -1.6231
 4236TIP3   OH234198   1.540   4.328   0.300  0.1049 -0.0070  0.2978
 4236TIP3    H134199   1.465   4.300   0.247  0.1312  0.4359  0.0191
 4236TIP3    H234200   1.585   4.393   0.245  1.4875 -1.2525 -0.1428
 4237TIP3   OH234201   4.343   1.024  15.905 -0.3857 -0.1656  0.0485
 4237TIP3    H134202   4.425   0.978  15.888  0.6695  1.9562 -1.1002
 4237TIP3    H234203   4.289   1.004  15.829 -0.5510 -0.7431  0.3116
 4238TIP3   OH234204   0.426   3.274  11.563 -0.2161  0.2298 -0.0360
 4238TIP3    H134205   0.456   3.202  11.618  1.5581  0.0168 -1.2057
 4238TIP3    H234206   0.410   3.234  11.477  1.7070  1.3007 -0.9723
 4239TIP3   OH234207   6.824   6.009   4.313  0.1177 -0.0816  0.3455
 4239TIP3    H134208   6.896   6.036   4.369  0.2147  0.1421  0.1148
 4239TIP3    H234209   6.850   6.036   4.225  1.0120 -2.4628 -0.1985
 4240TIP3   OH234210   2.621   3.623   0.639 -0.4023 -0.2256 -0.0389
 4240TIP3    H134211   2.553   3.688   0.657 -1.2684  0.1403 -3.8695
 4240TIP3    H234212   2.698   3.675   0.615 -1.0810 -0.4380 -3.0569
 4241TIP3   OH234213   3.465   5.795   5.705 -0.1039 -0.4347 -0.2652
 4241TIP3    H134214   3.465   5.857   5.778  1.4520 -1.2548  0.4617
 4241TIP3    H234215   3.400   5.729   5.729 -0.9546  0.2919 -0.5225
 4242TIP3   OH234216   0.083   6.104   0.755  0.1632  0.0712  0.0916
 4242TIP3    H134217   0.138   6.087   0.831 -0.1839  1.2932  0.6439
 4242TIP3    H234218   0.125   6.056   0.683  0.9144 -0.4896  0.8929
 4243TIP3   OH234219   6.613   2.528   3.755 -0.7572  0.7645 -0.2545
 4243TIP3    H134220   6.556   2.519   3.679 -0.2776  3.8981 -1.1262
 4243TIP3    H234221   6.591   2.614   3.791  3.1108  2.0054 -0.4600
 4244TIP3   OH234222   2.696   4.147  13.159  0.6935  0.2009 -0.2574
 4244TIP3    H134223   2.769   4.198  13.196  0.7198 -0.8919  1.2763
 4244TIP3    H234224   2.722   4.056  13.170 -0.2611 -0.1946 -1.0806
 4245TIP3   OH234225   1.745   3.097  12.559  0.0720  0.1940  0.1451
 4245TIP3    H134226   1.703   3.084  12.643  0.8846  2.9485  1.0729
 4245TIP3    H234227   1.818   3.034  12.558 -0.8618 -0.9225  0.7809
 4246TIP3   OH234228   3.619   2.165   3.466 -0.2636  0.0822 -0.3516
 4246TIP3    H134229   3.650   2.076   3.445 -1.3235 -0.3602 -0.1273
 4246TIP3    H234230   3.594   2.201   3.381 -0.5638 -0.1301 -0.3565
 4247TIP3   OH234231   4.716   4.850   3.876 -0.1410  0.2607 -0.2409
 4247TIP3    H134232   4.651   4.823   3.811  0.1108  1.3058 -0.9417
 4247TIP3    H234233   4.702   4.790   3.950 -0.8834 -0.5009 -0.9802
 4248TIP3   OH234234   1.800   6.272   1.049 -0.2756 -0.2145  0.1093
 4248TIP3    H134235   1.858   6.331   0.999  1.1077 -1.1591  0.5322
 4248TIP3    H234236   1.733   6.246   0.986  0.5928 -0.2282 -0.8439
 4249TIP3   OH234237   6.110   6.773   5.972  0.2723  0.3723 -0.2548
 4249TIP3    H134238   6.107   6.712   5.898  0.2742  0.6724 -0.5061
 4249TIP3    H234239   6.165   6.730   6.037  0.9612  0.4702 -0.7618
 4250TIP3   OH234240   2.667   2.627  13.949 -0.3797 -0.4386 -0.1331
 4250TIP3    H134241   2.731   2.681  13.996 -0.1920 -0.4829 -0.3341
 4250TIP3    H234242   2.666   2.544  13.997 -0.2825 -0.4389 -0.1296
 4251TIP3   OH234243   6.493   6.693  14.561  0.1417  0.1184 -0.3058
 4251TIP3    H134244   6.423   6.728  14.614  0.9877  0.7891  0.3946
 4251TIP3    H234245   6.571   6.697  14.616  1.2272  1.6170 -1.8316
 4252TIP3   OH234246   6.651   2.454   5.182  0.1755  0.1476 -0.0083
 4252TIP3    H134247   6.716   2.399   5.139 -1.1790 -1.9780  0.5021
 4252TIP3    H234248   6.666   2.440   5.276 -0.5468  0.1875  0.1217
 4253TIP3   OH234249   2.099   0.379  14.611 -0.2250  0.6164  0.2900
 4253TIP3    H134250   2.031   0.336  14.559  0.7424  2.1477 -2.4305
 4253TIP3    H234251   2.061   0.464  14.634  0.3518  1.0268 -0.2641
 4254TIP3   OH234252   2.168   5.694  15.427 -0.4470 -0.3459  0.1485
 4254TIP3    H134253   2.114   5.663  15.499  0.8210 -1.1803  0.7891
 4254TIP3    H234254   2.229   5.622  15.410 -0.5738 -0.0835 -1.6239
 4255TIP3   OH234255   5.943   2.013   6.743  0.6792  0.2213  0.4107
 4255TIP3    H134256   5.997   1.940   6.715 -0.8134 -0.8347  0.1916
 4255TIP3    H234257   5.972   2.087   6.690  0.5691 -0.8046 -1.1180
 4256TIP3   OH234258   5.538   3.404   5.602  0.7661 -0.0337  0.1254
 4256TIP3    H134259   5.450   3.434   5.622  0.3869 -0.1467 -1.2795
 4256TIP3    H234260   5.535   3.379   5.510  2.2412 -0.1444  0.0754
 4257TIP3   OH234261   1.860   4.670   6.049 -0.2983  0.3239 -0.0115
 4257TIP3    H134262   1.794   4.607   6.021  0.6160 -0.4100 -0.5796
 4257TIP3    H234263   1.857   4.668   6.144  0.2846 -1.2294  0.0025
 4258TIP3   OH234264   2.138   2.512  15.838  0.1446 -0.6308 -0.1522
 4258TIP3    H134265   2.137   2.503  15.743 -0.3312  0.0582 -0.2212
 4258TIP3    H234266   2.228   2.534  15.859  0.1081 -0.1129 -0.5181
 4259TIP3   OH234267   6.693   3.847  12.998  0.2382  0.5366 -0.4215
 4259TIP3    H134268   6.626   3.840  13.066  1.2233  0.1974  0.5489
 4259TIP3    H234269   6.699   3.759  12.961 -1.5253  1.1010 -2.2092
 4260TIP3   OH234270   5.860   4.701   0.539 -0.2207 -0.1417  0.1843
 4260TIP3    H134271   5.829   4.689   0.628 -0.0732 -1.7004  0.0610
 4260TIP3    H234272   5.785   4.680   0.484 -0.2390  0.5616 -0.0674
 4261TIP3   OH234273   5.907   3.683   0.804  0.2766 -0.0833  0.0183
 4261TIP3    H134274   5.964   3.634   0.864 -0.7174  0.1272  1.1732
 4261TIP3    H234275   5.821   3.680   0.845 -1.2479 -2.7136 -2.9858
 4262TIP3   OH234276   2.400   4.793   2.751  0.5231 -0.0361 -0.3974
 4262TIP3    H134277   2.362   4.867   2.798 -0.0782 -0.0048 -0.9246
 4262TIP3    H234278   2.444   4.742   2.819 -1.1382 -0.5077  0.3812
 4263TIP3   OH234279   3.592   6.212   4.290 -0.1350  0.3759  0.0535
 4263TIP3    H134280   3.683   6.194   4.315  0.0775 -1.3394 -1.7067
 4263TIP3    H234281   3.557   6.126   4.265 -2.1284  1.0741  0.2653
 4264TIP3   OH234282   4.506   2.711   1.343  0.1570  0.0062  0.0056
 4264TIP3    H134283   4.524   2.667   1.426  1.6538  1.8419  0.7209
 4264TIP3    H234284   4.566   2.785   1.342  0.9649 -0.5601 -3.2444
 4265TIP3   OH234285   0.783   4.647  16.129  0.6468  0.1328  0.1520
 4265TIP3    H134286   0.819   4.656  16.217  1.5241 -0.6573 -0.1145
 4265TIP3    H234287   0.847   4.594  16.081 -0.5110 -0.6896 -0.5492
 4266TIP3   OH234288   4.706   1.701  12.525  0.0380 -0.5657  0.2758
 4266TIP3    H134289   4.696   1.780  12.471 -0.3796 -0.8257 -0.0379
 4266TIP3    H234290   4.699   1.629  12.463  2.9370 -0.8449  0.1529
 4267TIP3   OH234291   3.589   4.740  12.332 -0.1857  0.5069  1.0603
 4267TIP3    H134292   3.595   4.661  12.385  1.5053 -1.8276 -2.2485
 4267TIP3    H234293   3.630   4.808  12.385  0.7787 -1.4713  2.9808
 4268TIP3   OH234294   4.147   2.514  12.861 -0.0003  0.1823 -0.3437
 4268TIP3    H134295   4.106   2.439  12.819 -1.0309  1.2013 -1.2082
 4268TIP3    H234296   4.090   2.588  12.841  0.7726  1.1462  0.8184
 4269TIP3   OH234297   0.635   1.490   1.559  0.1799 -0.2358 -0.2688
 4269TIP3    H134298   0.699   1.528   1.619 -0.6851 -0.9574  1.1521
 4269TIP3    H234299   0.684   1.476   1.477  1.6128 -0.0251  0.5253
 4270TIP3   OH234300   5.295   4.191  17.025 -0.6403 -0.2247  0.5479
 4270TIP3    H134301   5.354   4.180  16.950  2.2429  2.3201  2.1982
 4270TIP3    H234302   5.233   4.258  16.997 -2.7267 -2.6214 -1.0564
 4271TIP3   OH234303   6.138   0.984   4.826  0.3440  0.3533  0.0349
 4271TIP3    H134304   6.103   0.961   4.740  0.0767 -0.7610  0.4311
 4271TIP3    H234305   6.201   1.054   4.808  0.7195 -0.2611 -1.1257
 4272TIP3   OH234306   5.738   3.199  15.406  0.0983  0.2291  0.3735
 4272TIP3    H134307   5.807   3.135  15.394  0.9882  0.6362  2.6643
 4272TIP3    H234308   5.761   3.271  15.348  0.5991 -0.3893 -0.2025
 4273TIP3   OH234309   3.709   4.017  15.414  0.0957  0.2791  0.5173
 4273TIP3    H134310   3.775   4.022  15.483  0.2399  1.5856  0.3056
 4273TIP3    H234311   3.713   3.926  15.384  2.1596  0.4388  0.1669
 4274TIP3   OH234312   2.330   5.642  15.737 -0.2155  0.0296 -0.1420
 4274TIP3    H134313   2.388   5.711  15.704 -1.9086  1.9813  0.7002
 4274TIP3    H234314   2.382   5.595  15.802  0.6563  1.2579  0.0881
 4275TIP3   OH234315   6.640   2.170   1.884 -0.2544 -0.7185  0.2691
 4275TIP3    H134316   6.567   2.219   1.922  0.6267  0.8335  0.0622
 4275TIP3    H234317   6.684   2.233   1.827  1.4051 -1.5094  0.6095
 4276TIP3   OH234318   2.596   3.850   5.438  0.3502 -0.0547  0.4890
 4276TIP3    H134319   2.522   3.827   5.494 -0.0494 -0.8141 -0.3178
 4276TIP3    H234320   2.672   3.813   5.480  0.5236  1.9596  2.0978
 4277TIP3   OH234321   4.011   3.855   4.529  0.1249  0.0654  0.1124
 4277TIP3    H134322   3.952   3.780   4.517 -0.5842  0.6003  0.2197
 4277TIP3    H234323   4.093   3.815   4.558 -0.0608 -0.7195 -0.3965
 4278TIP3   OH234324   6.200   6.377  13.981  0.6599  0.0451 -0.4438
 4278TIP3    H134325   6.249   6.310  13.934 -0.3564 -2.5043  1.8624
 4278TIP3    H234326   6.262   6.412  14.046  1.2145  1.5183 -1.6957
 4279TIP3   OH234327   5.030   6.835   1.617 -0.6606 -0.5049 -0.3125
 4279TIP3    H134328   5.080   6.757   1.637 -1.9799 -1.3782 -0.3092
 4279TIP3    H234329   5.070   6.870   1.537 -0.4994 -1.5799 -0.7145
 4280TIP3   OH234330   6.125   0.342   2.494  0.4675  0.6377  0.2629
 4280TIP3    H134331   6.060   0.317   2.560  1.7123 -1.4576  0.7945
 4280TIP3    H234332   6.083   0.413   2.446 -1.9499 -0.1407  1.0199
 4281TIP3   OH234333   1.542   5.367  10.745 -0.0935  0.0443 -0.5094
 4281TIP3    H134334   1.569   5.407  10.662 -0.1447 -0.6501 -0.8726
 4281TIP3    H234335   1.622   5.361  10.796 -0.3312  1.9957  0.1775
 4282TIP3   OH234336   2.723   2.773   5.637  0.2732 -0.1187 -0.3063
 4282TIP3    H134337   2.639   2.807   5.606  0.3656  1.3572  0.9828
 4282TIP3    H234338   2.783   2.847   5.630  1.2146 -0.8469 -0.1650
 4283TIP3   OH234339   2.048   0.410   3.998 -0.1381  0.6033 -0.3766
 4283TIP3    H134340   2.077   0.498   3.974 -0.6951  0.8891 -0.0198
 4283TIP3    H234341   1.966   0.398   3.951 -0.7198  0.7775  0.5573
 4284TIP3   OH234342   6.102   4.955  11.177 -0.6573  0.0020 -0.2187
 4284TIP3    H134343   6.083   4.949  11.084 -2.7157  0.3589  0.1300
 4284TIP3    H234344   6.164   4.884  11.193 -0.2882 -0.0768 -1.8358
 4285TIP3   OH234345   2.258   3.275  16.544 -0.0598  0.2939 -0.4537
 4285TIP3    H134346   2.345   3.311  16.561  0.0372 -0.7263  1.5521
 4285TIP3    H234347   2.275   3.188  16.506 -0.2373  0.6076 -1.2715
 4286TIP3   OH234348   3.065   3.238   0.725  0.0640 -0.9789  0.1597
 4286TIP3    H134349   2.999   3.298   0.690  0.8643 -0.0345  0.2459
 4286TIP3    H234350   3.052   3.240   0.819 -0.3267 -1.4538  0.1232
 4287TIP3   OH234351   1.465   0.941  15.486  0.0820  0.4541 -0.3229
 4287TIP3    H134352   1.542   0.973  15.439  0.1702 -1.6302 -1.7487
 4287TIP3    H234353   1.492   0.938  15.578  1.3953  0.6020 -0.6833
 4288TIP3   OH234354   2.146   0.245  10.718 -0.2651 -0.9154 -0.2936
 4288TIP3    H134355   2.187   0.324  10.682  0.3474  0.2895  2.7748
 4288TIP3    H234356   2.206   0.174  10.694  0.2435 -0.1557 -1.3493
 4289TIP3   OH234357   0.389   0.551  12.881  0.3383  0.2644 -0.2015
 4289TIP3    H134358   0.367   0.464  12.913  0.9260 -0.1239 -0.8202
 4289TIP3    H234359   0.334   0.610  12.931  1.3448 -0.3001  1.6638
 4290TIP3   OH234360   3.288   6.802   0.847 -0.1523 -0.3661  0.5809
 4290TIP3    H134361   3.206   6.835   0.884  0.4022  2.4238 -0.4191
 4290TIP3    H234362   3.303   6.719   0.892 -2.4447  0.0479  2.2962
 4291TIP3   OH234363   5.526   4.037   0.167  0.0159 -0.7555 -0.5521
 4291TIP3    H134364   5.460   4.086   0.216  1.6184  0.2571  0.6948
 4291TIP3    H234365   5.539   3.957   0.218 -0.4069 -1.0694 -0.9302
 4292TIP3   OH234366   1.974   0.396   0.045  0.3422 -0.0453  0.0600
 4292TIP3    H134367   2.004   0.306   0.061 -1.7263 -0.6688  0.8511
 4292TIP3    H234368   1.999   0.414  -0.046  1.5816 -1.0863  0.1783
 4293TIP3   OH234369   2.848   3.215   4.493 -0.0001  0.0653 -0.1308
 4293TIP3    H134370   2.879   3.253   4.411 -0.2734 -0.8810 -0.6954
 4293TIP3    H234371   2.904   3.138   4.506 -0.8977 -0.6183 -0.2022
 4294TIP3   OH234372   1.880   4.470  15.686  0.1809 -0.4378 -0.3538
 4294TIP3    H134373   1.949   4.536  15.693 -0.0752 -0.3274  1.6328
 4294TIP3    H234374   1.916   4.394  15.733 -0.3698 -0.9923 -0.8168
 4295TIP3   OH234375   2.003   0.878  13.974 -0.4473 -0.4343 -0.1299
 4295TIP3    H134376   1.928   0.818  13.985 -0.7624  0.0112  0.1802
 4295TIP3    H234377   1.969   0.963  14.000  0.2825 -0.2911  0.3778
 4296TIP3   OH234378   2.173   3.645  14.075 -0.0615  0.1892 -0.4148
 4296TIP3    H134379   2.259   3.602  14.076  1.4095  2.9194 -0.0778
 4296TIP3    H234380   2.151   3.657  14.168 -0.2137  0.5926 -0.5004
 4297TIP3   OH234381   4.885   0.720  15.815  0.5187  0.7250  0.2035
 4297TIP3    H134382   4.868   0.811  15.794  2.1892  1.2496  0.9245
 4297TIP3    H234383   4.973   0.720  15.853  0.6646 -1.2148 -0.0043
 4298TIP3   OH234384   2.871   4.406  10.666 -0.7713  0.0423  0.4152
 4298TIP3    H134385   2.841   4.323  10.703 -0.6280  0.0642  0.5786
 4298TIP3    H234386   2.948   4.429  10.718 -0.4596 -0.0180 -0.0100
 4299TIP3   OH234387   0.822   6.654  12.951  0.2947  0.0015  0.1335
 4299TIP3    H134388   0.869   6.607  12.882  0.5889  0.8444 -0.2514
 4299TIP3    H234389   0.751   6.595  12.976  1.1516 -1.0118  0.2599
 4300TIP3   OH234390   0.301   4.925  12.536  0.5101 -0.1697 -0.0874
 4300TIP3    H134391   0.301   4.840  12.492 -0.2191 -0.9145  1.2753
 4300TIP3    H234392   0.393   4.949  12.542  0.7097 -0.7731 -0.6532
 4301TIP3   OH234393   4.204   0.208  12.702  0.0632 -0.6591 -0.3756
 4301TIP3    H134394   4.121   0.172  12.732 -0.0890 -0.4941 -0.5940
 4301TIP3    H234395   4.189   0.230  12.610  0.9477 -2.4614 -0.9970
 4302TIP3   OH234396   5.278   1.819  12.506 -0.2271  0.6247  0.0294
 4302TIP3    H134397   5.188   1.790  12.513 -0.1589  0.4238  0.0878
 4302TIP3    H234398   5.328   1.756  12.558 -0.1057  0.9900  0.3544
 4303TIP3   OH234399   5.605   3.517   2.433  0.3093 -0.2858 -0.6785
 4303TIP3    H134400   5.673   3.579   2.406  0.6117  0.3791  1.4134
 4303TIP3    H234401   5.526   3.570   2.440  0.4115 -0.2565  0.4302
 4304TIP3   OH234402   6.749   0.702   5.415 -0.4349 -0.2630 -0.0777
 4304TIP3    H134403   6.826   0.712   5.359 -0.3017 -1.6574 -0.1702
 4304TIP3    H234404   6.753   0.777   5.475  0.7296 -0.0559 -0.3892
 4305TIP3   OH234405   3.158   6.735  15.518 -0.3793  0.2720  1.0945
 4305TIP3    H134406   3.117   6.807  15.471 -1.4748 -0.9554  0.1158
 4305TIP3    H234407   3.105   6.725  15.597  0.4431  1.2203  1.8025
 4306TIP3   OH234408   1.306   4.492   1.279  0.2941  0.2799  0.8524
 4306TIP3    H134409   1.360   4.569   1.296 -1.5600  1.2690  2.8153
 4306TIP3    H234410   1.317   4.437   1.357 -0.2219 -0.2799  0.5395
 4307TIP3   OH234411   4.276   2.945  15.806 -0.1868  0.2293 -0.4149
 4307TIP3    H134412   4.290   2.885  15.880  0.8052  2.3047  1.1759
 4307TIP3    H234413   4.240   3.024  15.845  0.6501  1.5156 -2.1075
 4308TIP3   OH234414   0.086   0.564   2.955  0.3063 -0.0414 -0.2442
 4308TIP3    H134415  -0.003   0.530   2.966  0.3521  0.1959  1.0252
 4308TIP3    H234416   0.128   0.504   2.895  0.1805 -1.8578  1.3999
 4309TIP3   OH234417   5.406   1.186  16.361 -0.1910 -0.0563 -0.0830
 4309TIP3    H134418   5.359   1.103  16.349  0.2400 -0.2326 -0.5881
 4309TIP3    H234419   5.424   1.189  16.455 -0.5555 -0.3465 -0.0000
 4310TIP3   OH234420   1.683   6.804   1.965  0.0035  0.2142  0.3940
 4310TIP3    H134421   1.649   6.791   2.053  0.5625  2.5732  1.0371
 4310TIP3    H234422   1.616   6.767   1.907 -0.8567 -0.4514  1.7763
 4311TIP3   OH234423   4.092   2.586   1.436  0.1162 -0.2258 -0.7459
 4311TIP3    H134424   3.999   2.575   1.415  0.4775 -0.0651 -2.6067
 4311TIP3    H234425   4.135   2.515   1.389  0.9029 -0.6895  0.6301
 4312TIP3   OH234426   3.380   0.682   5.902 -0.4998  0.4143 -0.3725
 4312TIP3    H134427   3.298   0.633   5.897  0.6540 -1.5087 -1.5357
 4312TIP3    H234428   3.436   0.644   5.835  1.6452  1.1478  0.8787
 4313TIP3   OH234429   4.545   6.217   4.721 -0.1851  0.3075 -0.3435
 4313TIP3    H134430   4.559   6.165   4.800  0.2542  1.5538  0.4119
 4313TIP3    H234431   4.616   6.191   4.662 -1.4558 -1.8759 -1.0545
 4314TIP3   OH234432   5.839   6.136   4.577  0.5282  0.5811  0.4706
 4314TIP3    H134433   5.828   6.062   4.517 -0.2242  1.5761 -0.6710
 4314TIP3    H234434   5.756   6.139   4.625  0.7573  0.3805  0.8835
 4315TIP3   OH234435   4.991   6.190  16.190  0.0827 -0.0720  0.6660
 4315TIP3    H134436   4.995   6.108  16.140 -1.7843  0.1360  0.0921
 4315TIP3    H234437   4.993   6.259  16.122 -0.7343  0.2688  0.9767
 4316TIP3   OH234438   0.769   2.909  11.816  0.0419  0.4362  0.4845
 4316TIP3    H134439   0.776   2.843  11.747 -1.3564 -0.2536  0.9515
 4316TIP3    H234440   0.772   2.859  11.898 -1.9003  0.7801  0.8344
 4317TIP3   OH234441   5.299   2.249   2.805  0.2738 -0.5726  0.3697
 4317TIP3    H134442   5.244   2.320   2.839  0.3132 -0.2358 -0.2572
 4317TIP3    H234443   5.281   2.176   2.864 -0.6266 -0.3821  0.3611
 4318TIP3   OH234444   6.708   1.866  11.223  0.3012  0.0496  0.7605
 4318TIP3    H134445   6.791   1.843  11.181 -0.9844 -0.7676 -1.4930
 4318TIP3    H234446   6.720   1.956  11.254  1.1686  0.9665 -1.9877
 4319TIP3   OH234447   1.505   5.411   4.787  0.3458 -0.0280  0.2315
 4319TIP3    H134448   1.485   5.385   4.877  1.1568 -1.4629  0.0215
 4319TIP3    H234449   1.463   5.345   4.733  1.5648 -0.3503 -0.3558
 4320TIP3   OH234450   1.854   4.883   0.388 -0.1184 -0.1316  0.3909
 4320TIP3    H134451   1.939   4.916   0.358  0.3608 -0.6953  1.1114
 4320TIP3    H234452   1.862   4.788   0.383 -0.7708 -0.1889  0.3126
 4321TIP3   OH234453   2.656   4.126  13.997  0.6506 -0.1771  0.2082
 4321TIP3    H134454   2.657   4.055  14.060 -1.4158  0.9668  1.6450
 4321TIP3    H234455   2.744   4.165  14.002  1.9401 -2.7257 -0.8784
 4322TIP3   OH234456   4.930   5.812  15.149 -0.3655 -0.0633 -0.3811
 4322TIP3    H134457   4.882   5.840  15.227  0.2312 -1.0814  0.3799
 4322TIP3    H234458   5.022   5.814  15.175 -0.0569  0.8131 -1.4751
 4323TIP3   OH234459   1.419   5.877  15.413 -0.0911 -0.2308 -0.5402
 4323TIP3    H134460   1.497   5.932  15.417 -0.7489  0.9702 -2.5083
 4323TIP3    H234461   1.452   5.790  15.391  0.8257 -0.2212  0.7290
 4324TIP3   OH234462   3.265   3.477  15.917  0.0847  0.4331 -0.1820
 4324TIP3    H134463   3.361   3.474  15.915  0.0667  0.0961 -1.3015
 4324TIP3    H234464   3.238   3.403  15.862 -0.8263  0.4564  0.2176
 4325TIP3   OH234465   3.934   1.722  15.584  0.7685 -0.2346  0.3014
 4325TIP3    H134466   3.867   1.739  15.518 -0.3770  2.4422  1.9498
 4325TIP3    H234467   3.884   1.710  15.665  2.1295 -3.2314  0.8091
 4326TIP3   OH234468   2.919   0.326  10.339  0.1406  0.2179  0.2999
 4326TIP3    H134469   3.007   0.313  10.375  0.0732 -0.2487  0.2917
 4326TIP3    H234470   2.860   0.296  10.408  0.0241 -2.3155 -0.8092
 4327TIP3   OH234471   2.632   6.332  15.845 -0.2749 -0.5368  0.4644
 4327TIP3    H134472   2.576   6.410  15.842 -0.1035 -0.4373 -0.1035
 4327TIP3    H234473   2.656   6.324  15.938 -0.4794 -0.0470  0.5627
 4328TIP3   OH234474   6.600   1.423   1.760  0.6236  0.5796 -0.0907
 4328TIP3    H134475   6.664   1.475   1.808  0.7796 -0.7750  1.2361
 4328TIP3    H234476   6.550   1.378   1.828 -0.3148 -0.0500 -1.1643
 4329TIP3   OH234477   3.954   3.929  15.671 -0.0477 -0.2191  0.0374
 4329TIP3    H134478   4.017   3.964  15.607 -1.6499  0.1108 -1.4266
 4329TIP3    H234479   3.999   3.854  15.709  0.3022 -1.6317 -2.8807
 4330TIP3   OH234480   4.327   0.967   1.305  0.4997 -0.2024  0.4280
 4330TIP3    H134481   4.264   0.953   1.375  0.4023  2.2447  0.8955
 4330TIP3    H234482   4.274   0.980   1.226  0.4632  0.6498  0.5917
 4331TIP3   OH234483   0.357   3.578   1.280  0.0225 -0.3915  0.1705
 4331TIP3    H134484   0.330   3.615   1.196 -0.7278 -1.7010 -0.1850
 4331TIP3    H234485   0.301   3.502   1.292  0.8229 -0.8153  1.3770
 4332TIP3   OH234486   2.910   5.820  14.945  0.2432 -0.2606  0.2636
 4332TIP3    H134487   2.900   5.751  15.010 -0.0579 -0.8501 -0.3919
 4332TIP3    H234488   2.820   5.842  14.920  0.3383  0.4111  0.5079
 4333TIP3   OH234489   4.628   2.447   2.649 -0.5002  0.6816  0.2568
 4333TIP3    H134490   4.693   2.426   2.581 -0.7045  0.8077  0.0237
 4333TIP3    H234491   4.680   2.462   2.728 -0.3301 -0.8100  0.4707
 4334TIP3   OH234492   2.404   2.528   2.245 -0.4814 -0.1350  0.0561
 4334TIP3    H134493   2.461   2.576   2.185 -0.8145  1.3467  0.8889
 4334TIP3    H234494   2.460   2.457   2.279  0.2505  0.1034 -0.6152
 4335TIP3   OH234495   5.519   6.304  12.112 -0.0641 -0.0078  0.1688
 4335TIP3    H134496   5.510   6.369  12.042  0.0872  1.1203  1.1624
 4335TIP3    H234497   5.451   6.328  12.176 -0.6277 -1.4073  0.1295
 4336TIP3   OH234498   1.618   3.016   3.925  0.4742 -0.5027 -0.2552
 4336TIP3    H134499   1.570   3.048   3.848 -0.2047 -1.4808 -0.2478
 4336TIP3    H234500   1.706   3.054   3.915 -0.1084  0.8259 -0.5785
 4337TIP3   OH234501   3.036   4.461   6.359 -0.4192 -0.1504 -0.0687
 4337TIP3    H134502   3.066   4.396   6.295  0.0569 -0.0764  0.0753
 4337TIP3    H234503   2.943   4.441   6.371 -0.4620 -0.3021 -0.6173
 4338TIP3   OH234504   2.057   3.638  16.888  0.2367  0.4005  0.3698
 4338TIP3    H134505   2.119   3.640  16.816  1.8416  0.4904  1.6865
 4338TIP3    H234506   2.012   3.722  16.884  0.4237  0.4640 -0.4248
 4339TIP3   OH234507   3.512   6.307   3.025  0.3125  0.2228 -0.1398
 4339TIP3    H134508   3.421   6.288   3.004 -0.5549  0.2887  3.0765
 4339TIP3    H234509   3.508   6.382   3.085  2.6087  0.9596 -0.7824
 4340TIP3   OH234510   2.396   0.535  14.671  0.6961 -0.2944  0.6530
 4340TIP3    H134511   2.319   0.488  14.640 -1.8149  3.9810 -0.4625
 4340TIP3    H234512   2.374   0.560  14.760  1.3457 -0.0928  0.7580
 4341TIP3   OH234513   0.374   1.841   0.781 -0.1228 -0.0844  0.4792
 4341TIP3    H134514   0.297   1.896   0.796 -0.3440 -0.3499  0.3440
 4341TIP3    H234515   0.375   1.827   0.686  1.1041  1.3637  0.2349
 4342TIP3   OH234516   1.740   5.367   5.128 -0.2812  0.5729  0.0307
 4342TIP3    H134517   1.792   5.346   5.050 -0.5393 -2.2167  0.4965
 4342TIP3    H234518   1.651   5.341   5.105 -0.1715 -1.3507  1.5547
 4343TIP3   OH234519   6.737   2.937  12.011  0.1389  0.8129 -0.0673
 4343TIP3    H134520   6.682   3.013  12.028 -2.0992 -0.7987  0.5152
 4343TIP3    H234521   6.674   2.865  11.999  2.1361 -0.9989 -0.2547
 4344TIP3   OH234522   0.865   4.437   5.509  0.0403 -0.1713 -0.4203
 4344TIP3    H134523   0.942   4.400   5.554 -1.3775 -1.4178  1.1386
 4344TIP3    H234524   0.899   4.467   5.425  2.7484  1.6649  1.1441
 4345TIP3   OH234525   0.163   4.221  16.781 -0.1898  0.3184  0.7490
 4345TIP3    H134526   0.139   4.270  16.860  0.8774  0.5940  0.9214
 4345TIP3    H234527   0.216   4.283  16.730 -1.3800  0.3615 -0.4921
 4346TIP3   OH234528   2.041   2.519   0.646  0.4008  0.0675  0.6268
 4346TIP3    H134529   2.047   2.599   0.698  0.9434  0.0370  0.6173
 4346TIP3    H234530   2.129   2.481   0.650  1.8730  2.3546 -4.0053
 4347TIP3   OH234531   3.941   1.155   4.449 -0.2664 -0.2445  0.2506
 4347TIP3    H134532   3.937   1.067   4.411  1.2564 -0.3533  0.2769
 4347TIP3    H234533   3.955   1.140   4.542  0.6647  0.0063  0.1618
 4348TIP3   OH234534   1.021   2.658  15.419  0.2257  0.5121  0.1716
 4348TIP3    H134535   0.931   2.687  15.401 -0.0778 -0.1635  0.5767
 4348TIP3    H234536   1.064   2.661  15.334 -0.1596  0.9131 -0.0168
 4349TIP3   OH234537   1.128   0.547   4.361  0.0950 -0.6020  0.2006
 4349TIP3    H134538   1.106   0.462   4.323 -1.0900 -0.5089  0.6352
 4349TIP3    H234539   1.061   0.561   4.428 -0.2027  1.0239 -0.3864
 4350TIP3   OH234540   4.332   0.180  16.285 -0.0473  0.3458 -0.4585
 4350TIP3    H134541   4.312   0.124  16.360 -1.0341  0.1565 -0.8438
 4350TIP3    H234542   4.321   0.122  16.209  0.4947  0.6542 -0.7788
 4351TIP3   OH234543   1.659   2.427   6.130  0.3090 -0.5638  0.3040
 4351TIP3    H134544   1.715   2.417   6.053 -1.0982  0.2405 -0.8641
 4351TIP3    H234545   1.672   2.517   6.157  1.5214 -1.0985  1.6396
 4352TIP3   OH234546   4.330   2.079   6.507  0.0425 -0.3811  0.7224
 4352TIP3    H134547   4.305   2.119   6.590 -0.5148  0.5775  0.1111
 4352TIP3    H234548   4.283   2.129   6.441 -0.0988 -1.6043 -0.1321
 4353TIP3   OH234549   4.689   5.769   5.722 -0.2856 -0.0292 -1.3498
 4353TIP3    H134550   4.746   5.757   5.798 -0.9677  2.6166 -0.3045
 4353TIP3    H234551   4.748   5.791   5.651  0.1931  3.5831 -0.0830
 4354TIP3   OH234552   0.867   3.086  11.078  0.1496 -0.3147 -0.0425
 4354TIP3    H134553   0.822   3.081  10.993 -1.9366  1.7473  0.8365
 4354TIP3    H234554   0.816   3.029  11.135  0.2282 -0.0064  0.3345
 4355TIP3   OH234555   1.859   0.863  13.236  0.0762 -0.2841  0.5432
 4355TIP3    H134556   1.950   0.892  13.244  0.3042 -1.0344  0.8285
 4355TIP3    H234557   1.851   0.831  13.146 -0.9087  2.9821 -0.6497
 4356TIP3   OH234558   4.557   5.974   4.914 -0.0662 -0.5932 -0.0215
 4356TIP3    H134559   4.556   5.900   4.976  1.7826  0.6486  1.6190
 4356TIP3    H234560   4.607   5.941   4.839 -1.3351 -1.7468 -0.4092
 4357TIP3   OH234561   3.788   2.919  14.028  0.2489 -0.3816 -0.1581
 4357TIP3    H134562   3.776   2.840  13.974  1.2199 -1.0201  0.5268
 4357TIP3    H234563   3.723   2.981  13.995  0.2119 -1.0792 -1.4470
 4358TIP3   OH234564   0.986   6.283  17.031 -0.2336  0.0924 -0.5480
 4358TIP3    H134565   0.914   6.307  17.090  0.1125  0.5926 -0.3276
 4358TIP3    H234566   0.993   6.356  16.969  1.9696  1.4980  1.1881
 4359TIP3   OH234567   3.221   6.860   6.019 -0.3189  0.0171 -0.1758
 4359TIP3    H134568   3.212   6.943   6.066 -1.6354 -0.6218  0.7816
 4359TIP3    H234569   3.311   6.832   6.038 -0.1616  0.7672  0.2550
 4360TIP3   OH234570   2.657   5.686   4.879 -0.4097  0.7559 -0.1649
 4360TIP3    H134571   2.703   5.701   4.962 -2.7606  1.2103  1.1461
 4360TIP3    H234572   2.606   5.766   4.865 -1.7119 -0.1741 -0.9106
 4361TIP3   OH234573   5.315   5.167   5.019  0.0060 -0.0965 -0.5240
 4361TIP3    H134574   5.373   5.237   4.987 -0.5445 -0.5600 -2.7155
 4361TIP3    H234575   5.280   5.127   4.939 -2.0882 -0.8785  0.7071
 4362TIP3   OH234576   0.023   4.675  16.975 -0.2273  0.1474 -0.4113
 4362TIP3    H134577   0.086   4.616  17.017  1.0654  0.9861 -1.1226
 4362TIP3    H234578   0.054   4.684  16.885 -0.9304  1.1879 -0.5638
 4363TIP3   OH234579   2.099   0.687   1.563 -0.3022  0.2094  0.7418
 4363TIP3    H134580   2.179   0.688   1.616 -0.3381  2.7046  0.8633
 4363TIP3    H234581   2.052   0.609   1.593  0.7668  0.2487  2.7094
 4364TIP3   OH234582   5.603   0.218  14.743  0.1006 -0.6119  0.3362
 4364TIP3    H134583   5.535   0.195  14.679 -1.3360  2.1814  0.7049
 4364TIP3    H234584   5.557   0.221  14.826  1.1166 -0.4622  0.9083
 4365TIP3   OH234585   2.295   0.951  12.582  0.1729 -0.2143 -0.2435
 4365TIP3    H134586   2.276   0.883  12.647  0.0357 -1.4249 -1.5097
 4365TIP3    H234587   2.231   0.935  12.512  1.1415  0.2501 -1.2572
 4366TIP3   OH234588   2.499   6.371  12.636  0.3324 -1.0089 -0.1109
 4366TIP3    H134589   2.512   6.357  12.730  0.6158  0.4459  0.0836
 4366TIP3    H234590   2.581   6.410  12.606 -0.0447 -0.7322 -0.7977
 4367TIP3   OH234591   3.580   4.282   2.999  0.6109 -0.4175  0.0849
 4367TIP3    H134592   3.569   4.198   2.955  0.0757 -0.4088  0.1994
 4367TIP3    H234593   3.654   4.268   3.059  0.6091 -0.7625  0.0106
 4368TIP3   OH234594   0.294   6.154  13.560  0.8010 -0.2831  0.4793
 4368TIP3    H134595   0.299   6.248  13.545 -0.4919 -0.5172 -1.6432
 4368TIP3    H234596   0.326   6.143  13.650 -0.5328  2.3396  1.3753
 4369TIP3   OH234597   4.715   6.461   5.809  0.0202  0.2704  0.6991
 4369TIP3    H134598   4.744   6.392   5.749 -2.6342 -0.3044 -0.0903
 4369TIP3    H234599   4.723   6.421   5.896 -1.4966 -1.1533  0.2516
 4370TIP3   OH234600   0.146   3.698   4.662  0.5593  0.2348 -0.2530
 4370TIP3    H134601   0.051   3.696   4.676  0.6912 -0.4851  0.6343
 4370TIP3    H234602   0.158   3.758   4.588 -0.7777 -1.5291 -2.0058
 4371TIP3   OH234603   3.555   0.356  12.889 -0.0510 -0.3034  0.6622
 4371TIP3    H134604   3.568   0.451  12.881  2.3693 -0.6740 -0.9968
 4371TIP3    H234605   3.486   0.336  12.827  0.3503  0.2276  0.0316
 4372TIP3   OH234606   0.913   2.603  13.790 -0.1417  0.3840  0.2738
 4372TIP3    H134607   0.924   2.546  13.714 -1.8789 -1.3070  1.2230
 4372TIP3    H234608   0.931   2.547  13.865 -0.7129  1.3995  1.1991
 4373TIP3   OH234609   1.061   2.383   3.602 -0.4164  0.4484 -0.2562
 4373TIP3    H134610   1.020   2.451   3.548 -1.4274 -1.2732 -1.8009
 4373TIP3    H234611   0.988   2.325   3.626  0.4481 -0.2297  0.7998
 4374TIP3   OH234612   1.184   6.867  12.118 -0.5148  0.0041 -0.0063
 4374TIP3    H134613   1.276   6.868  12.093 -0.5583  0.5074 -0.1641
 4374TIP3    H234614   1.185   6.891  12.211 -0.3331 -2.1307  0.5884
 4375TIP3   OH234615   1.418   0.066   4.610 -0.1997 -0.6487 -0.0613
 4375TIP3    H134616   1.354   0.070   4.539  0.1364 -0.9903 -0.3901
 4375TIP3    H234617   1.437   0.158   4.630 -1.2675 -0.5252  0.4873
 4376TIP3   OH234618   0.596   3.331   3.890 -0.1263  0.4425 -0.1982
 4376TIP3    H134619   0.540   3.405   3.912  0.7582  1.0987 -0.1330
 4376TIP3    H234620   0.535   3.261   3.866 -0.9695  1.1248 -0.0654
 4377TIP3   OH234621   6.396   5.191  12.603  0.6182 -0.1968 -0.4629
 4377TIP3    H134622   6.474   5.240  12.579  0.1915  1.1483  0.7878
 4377TIP3    H234623   6.346   5.251  12.658 -0.5769 -1.5701 -0.0015
 4378TIP3   OH234624   0.028   0.716  10.929  0.0291  0.4787 -0.2569
 4378TIP3    H134625   0.103   0.775  10.924  1.1459 -0.9165 -0.4744
 4378TIP3    H234626   0.018   0.699  11.023 -0.3208  1.0183 -0.1901
 4379TIP3   OH234627   5.139   4.855  15.371 -0.3271  0.0414 -0.0109
 4379TIP3    H134628   5.106   4.826  15.456  0.6566  0.2436  0.4526
 4379TIP3    H234629   5.209   4.793  15.350 -1.6307 -1.0247 -1.4760
 4380TIP3   OH234630   0.240   3.248   3.644  0.0400  0.5703 -0.7483
 4380TIP3    H134631   0.324   3.283   3.613 -1.0687  1.2503 -3.1764
 4380TIP3    H234632   0.180   3.261   3.571 -1.8521 -1.2651  0.3838
 4381TIP3   OH234633   3.744   2.093  15.105  0.1764 -0.4323  0.5926
 4381TIP3    H134634   3.771   2.160  15.167  1.2134 -0.3351  0.0568
 4381TIP3    H234635   3.791   2.115  15.024 -0.4348 -1.0876  0.0505
 4382TIP3   OH234636   5.116   1.935   1.982 -0.2803 -0.2553  0.2192
 4382TIP3    H134637   5.051   1.958   2.049  0.9725  1.6317  0.8808
 4382TIP3    H234638   5.175   1.873   2.026  0.4207  0.8207  0.8405
 4383TIP3   OH234639   3.202   5.726  15.534 -0.0753  0.5155 -0.2110
 4383TIP3    H134640   3.251   5.744  15.615  0.8698  1.2604 -0.9246
 4383TIP3    H234641   3.183   5.813  15.498  0.0425  0.1858 -1.0841
 4384TIP3   OH234642   6.593   1.930   0.606 -0.1972  0.3963 -0.0516
 4384TIP3    H134643   6.652   1.886   0.545 -0.4581 -1.0803  0.7095
 4384TIP3    H234644   6.515   1.950   0.555  0.6369  1.6957 -0.8780
 4385TIP3   OH234645   2.162   2.908  12.950  1.0562 -0.3324 -0.2638
 4385TIP3    H134646   2.247   2.950  12.938  0.5324  0.9635  0.3599
 4385TIP3    H234647   2.155   2.895  13.045  0.6406 -0.6220 -0.3312
 4386TIP3   OH234648   5.158   0.223  15.499  0.5402 -0.5277 -0.4453
 4386TIP3    H134649   5.236   0.180  15.537 -0.8174 -2.7008  0.0869
 4386TIP3    H234650   5.145   0.301  15.552 -1.2516 -3.3962  3.8868
 4387TIP3   OH234651   1.640   2.533  15.676 -0.1630 -0.7422  0.8071
 4387TIP3    H134652   1.606   2.578  15.753  0.8367 -1.6490  1.8096
 4387TIP3    H234653   1.710   2.477  15.709 -0.0715 -1.5698 -0.6838
 4388TIP3   OH234654   5.505   1.337   6.004  0.1220 -0.1547 -0.5778
 4388TIP3    H134655   5.533   1.292   6.084  1.2670  0.1481 -0.7942
 4388TIP3    H234656   5.580   1.390   5.979 -0.5995  0.5504 -1.2887
 4389TIP3   OH234657   4.602   0.070   1.750 -0.1942 -0.0996  0.2788
 4389TIP3    H134658   4.610  -0.017   1.789 -0.4467 -0.5595 -0.6779
 4389TIP3    H234659   4.681   0.116   1.778 -0.7854 -0.0895  2.0970
 4390TIP3   OH234660   1.238   1.710  11.827 -0.3540  0.3606  0.1349
 4390TIP3    H134661   1.183   1.690  11.903 -0.6773  1.0102  0.0769
 4390TIP3    H234662   1.186   1.771  11.775  0.2624  0.6744 -0.1249
 4391TIP3   OH234663   6.133   1.522   1.152 -0.5894 -0.2843 -0.4430
 4391TIP3    H134664   6.087   1.457   1.206 -0.5055 -0.3366 -0.4350
 4391TIP3    H234665   6.158   1.590   1.215  0.5491 -0.9068 -0.2087
 4392TIP3   OH234666   4.033   0.556  13.850 -0.1817  0.4021 -0.0336
 4392TIP3    H134667   3.996   0.630  13.801 -2.0084  1.6141  2.8553
 4392TIP3    H234668   4.053   0.490  13.784 -1.4792  2.2732 -2.4425
 4393TIP3   OH234669   0.170   2.079   6.586  0.3851  0.4755 -0.3255
 4393TIP3    H134670   0.260   2.051   6.569  0.8742  2.2361 -0.8248
 4393TIP3    H234671   0.134   2.011   6.643  1.7554 -0.6879 -0.7867
 4394TIP3   OH234672   2.588   1.426   2.877 -0.2980 -0.0069 -0.3821
 4394TIP3    H134673   2.681   1.433   2.897 -0.4997 -1.9681  1.6834
 4394TIP3    H234674   2.583   1.357   2.810 -0.3073 -0.4587  0.0798
 4395TIP3   OH234675   3.144   2.510   0.524  0.1928  0.1414 -0.6758
 4395TIP3    H134676   3.122   2.541   0.436 -0.6423  2.6890  0.3194
 4395TIP3    H234677   3.065   2.526   0.575  0.4628 -1.8585  0.4524
 4396TIP3   OH234678   6.340   1.921  14.296  0.4354 -0.0612 -0.1838
 4396TIP3    H134679   6.399   1.866  14.346  0.3104 -1.4504 -1.5157
 4396TIP3    H234680   6.274   1.949  14.359 -1.1253 -3.7338  0.0613
 4397TIP3   OH234681   1.172   6.618  12.578 -0.6741  0.3277  0.0547
 4397TIP3    H134682   1.148   6.557  12.508 -0.8053 -1.3958  1.5179
 4397TIP3    H234683   1.263   6.597  12.597 -1.0633 -0.2550  1.3621
 4398TIP3   OH234684   5.606   6.595   3.725 -0.2760  0.1215 -0.1302
 4398TIP3    H134685   5.537   6.604   3.659 -0.6401  0.1584  0.2563
 4398TIP3    H234686   5.640   6.683   3.735 -0.5259  0.1960  0.0617
 4399TIP3   OH234687   6.750   5.048  16.151 -0.0836  0.1557  0.6418
 4399TIP3    H134688   6.842   5.023  16.157  0.0722 -0.1820 -1.9837
 4399TIP3    H234689   6.707   4.971  16.113 -1.7279 -0.1422  2.9018
 4400TIP3   OH234690   5.621   3.154  16.915  0.1311  1.0953  0.0303
 4400TIP3    H134691   5.675   3.220  16.870 -0.0143  0.9706 -0.3212
 4400TIP3    H234692   5.670   3.073  16.905 -0.0014  1.0294 -0.0718
 4401TIP3   OH234693   1.912   4.054   3.067  0.0898  0.6370 -0.9801
 4401TIP3    H134694   1.882   4.111   3.138  0.6412  0.1457 -0.3405
 4401TIP3    H234695   1.996   4.019   3.098 -0.5390 -1.0259 -1.0649
 4402TIP3   OH234696   5.929   1.185   2.628 -0.3840 -0.3588 -0.2555
 4402TIP3    H134697   5.993   1.254   2.609 -1.2189  0.8913  1.1891
 4402TIP3    H234698   5.898   1.206   2.717 -1.9429 -1.5911 -0.4747
 4403TIP3   OH234699   3.858   4.921  12.753  0.1465  0.2775  0.3326
 4403TIP3    H134700   3.913   4.982  12.704 -2.0705  2.3513  0.2262
 4403TIP3    H234701   3.828   4.971  12.829 -2.5856 -0.2205 -0.2761
 4404TIP3   OH234702   4.093   1.236  14.751 -0.0157  0.4105  0.0785
 4404TIP3    H134703   4.110   1.147  14.722 -1.8678  0.1898 -0.4599
 4404TIP3    H234704   4.001   1.235  14.779 -0.6711  2.5580 -1.6934
 4405TIP3   OH234705   1.843   6.511   5.173 -0.3467  0.4289 -0.7123
 4405TIP3    H134706   1.875   6.426   5.145 -2.3937 -1.3219  1.7192
 4405TIP3    H234707   1.765   6.526   5.119 -0.2778  0.5006 -0.7910
 4406TIP3   OH234708   6.196   2.927  15.213  0.1668 -0.3067  0.0758
 4406TIP3    H134709   6.182   3.022  15.206  1.1993 -0.0886  0.7658
 4406TIP3    H234710   6.266   2.909  15.151  0.5850 -0.4656  0.5875
 4407TIP3   OH234711   4.010   1.040  15.006 -0.4355  0.4205  0.1544
 4407TIP3    H134712   4.096   1.008  14.980 -0.9265 -0.5961 -0.2806
 4407TIP3    H234713   3.949   0.998  14.944 -1.2882  0.7154  0.7717
 4408TIP3   OH234714   3.348   0.238  16.225 -0.2498 -0.1486  0.1625
 4408TIP3    H134715   3.401   0.216  16.302  0.2475 -1.5255 -0.5584
 4408TIP3    H234716   3.257   0.229  16.256 -0.0632 -1.9116  0.2848
 4409TIP3   OH234717   3.417   3.486  13.023  0.3562 -0.3296 -0.2370
 4409TIP3    H134718   3.504   3.449  13.007  0.2830 -0.6372  0.0679
 4409TIP3    H234719   3.369   3.416  13.067 -0.3449 -0.5057 -1.2375
 4410TIP3   OH234720   4.605   0.951   0.612  0.1582 -0.2902 -0.5038
 4410TIP3    H134721   4.510   0.941   0.605  0.4880 -3.5782 -2.3653
 4410TIP3    H234722   4.631   0.990   0.529  0.5233  0.1307 -0.1977
 4411TIP3   OH234723   1.096   1.720   4.567 -0.7011  0.0355 -0.2572
 4411TIP3    H134724   1.188   1.733   4.545 -0.5039 -0.9471 -0.0481
 4411TIP3    H234725   1.059   1.674   4.492 -0.8943 -0.0550 -0.1089
 4412TIP3   OH234726   6.822   5.370  11.362 -0.4877  0.2830  0.2847
 4412TIP3    H134727   6.813   5.308  11.434  1.8492  0.0664  0.4830
 4412TIP3    H234728   6.772   5.447  11.390  0.2972  0.1728  2.1310
 4413TIP3   OH234729   0.119   1.084  14.115 -0.2267 -0.2027  0.1803
 4413TIP3    H134730   0.154   1.159  14.066  0.2251 -0.3334  0.2998
 4413TIP3    H234731   0.167   1.009  14.081 -0.8821 -0.4846 -0.1394
 4414TIP3   OH234732   1.216   4.797  16.623  0.3166  0.2102  0.2669
 4414TIP3    H134733   1.275   4.780  16.697  0.0520  0.7378  0.6119
 4414TIP3    H234734   1.146   4.732  16.632 -0.4979  1.1832  1.3573
 4415TIP3   OH234735   5.083   5.036   3.582  0.4718 -0.2221  0.6424
 4415TIP3    H134736   5.150   4.972   3.608  0.3170  0.3135  2.4728
 4415TIP3    H234737   5.000   4.991   3.597  0.3911 -0.1737  0.3350
 4416TIP3   OH234738   0.005   0.581   4.192  0.4813  0.2877 -0.3044
 4416TIP3    H134739  -0.073   0.618   4.151  0.7533 -0.9476 -2.0218
 4416TIP3    H234740   0.078   0.612   4.139  1.0763  0.5370  0.6384
 4417TIP3   OH234741   0.294   0.133   4.257 -0.1111 -0.0711 -0.5698
 4417TIP3    H134742   0.305   0.070   4.329  2.1736  0.4304 -0.3793
 4417TIP3    H234743   0.304   0.219   4.299 -2.1647  0.4042 -0.9913
 4418TIP3   OH234744   2.728   2.232  11.021 -0.4422 -0.4726 -0.5673
 4418TIP3    H134745   2.734   2.162  10.955 -1.7690  0.0536 -1.2718
 4418TIP3    H234746   2.791   2.298  10.990  0.1108 -0.9170 -0.4197
 4419TIP3   OH234747   6.666   3.522   3.978 -0.4995 -0.5904 -0.5243
 4419TIP3    H134748   6.583   3.564   3.954  0.1994 -0.1845 -2.4137
 4419TIP3    H234749   6.655   3.430   3.955  0.2828 -0.1477 -3.0119
 4420TIP3   OH234750   1.516   3.873   0.367  0.0327  0.0354  0.2841
 4420TIP3    H134751   1.423   3.896   0.356  0.0624  1.3853  2.3041
 4420TIP3    H234752   1.561   3.957   0.361  0.9018 -0.3458  1.3445
 4421TIP3   OH234753   2.632   5.376   1.742  0.5081 -0.1835 -0.0751
 4421TIP3    H134754   2.594   5.341   1.662  1.7383  0.7114 -1.1048
 4421TIP3    H234755   2.689   5.307   1.774 -0.9305 -1.0325  0.7680
 4422TIP3   OH234756   3.145   2.744  14.240  0.8112 -0.1489 -0.1966
 4422TIP3    H134757   3.224   2.690  14.241  1.0982  0.1159 -2.3227
 4422TIP3    H234758   3.140   2.776  14.150 -0.3915  1.8386  0.5239
 4423TIP3   OH234759   3.399   4.584   1.774  0.0189  0.6025  0.4997
 4423TIP3    H134760   3.446   4.584   1.691 -1.3607 -0.1165 -0.3194
 4423TIP3    H234761   3.453   4.531   1.832 -0.0451 -0.7346 -0.6002
 4424TIP3   OH234762   4.480   2.976  16.178  0.5011 -0.0871  0.6786
 4424TIP3    H134763   4.392   2.988  16.214  0.5347 -0.4453  0.8880
 4424TIP3    H234764   4.483   3.033  16.101  0.0197 -0.2294  0.5542
 4425TIP3   OH234765   1.251   6.800  16.796 -0.2719  0.0909 -0.1494
 4425TIP3    H134766   1.316   6.822  16.863  0.1367 -1.0139 -0.1809
 4425TIP3    H234767   1.284   6.721  16.755 -2.2018 -1.1810  0.6260
 4426TIP3   OH234768   2.411   1.706   3.734  0.2969 -0.2848  0.5601
 4426TIP3    H134769   2.352   1.639   3.767  0.0792 -0.2856  0.1666
 4426TIP3    H234770   2.412   1.694   3.639  0.7773 -0.1634  0.5443
 4427TIP3   OH234771   6.597   3.867  11.235 -0.5178  0.7038 -0.1962
 4427TIP3    H134772   6.588   3.773  11.249 -2.0400  1.0131  1.1686
 4427TIP3    H234773   6.548   3.884  11.154 -2.7973  0.7053  1.1230
 4428TIP3   OH234774   2.959   3.266   5.033  0.5584 -0.0545  0.1130
 4428TIP3    H134775   2.964   3.213   4.953 -3.0140  0.5457 -0.7234
 4428TIP3    H234776   3.011   3.344   5.013  1.1070 -0.6637 -0.9579
 4429TIP3   OH234777   5.428   4.984  14.965 -0.4767  0.1245  0.5938
 4429TIP3    H134778   5.359   5.028  14.915  0.1944  1.2826  0.6380
 4429TIP3    H234779   5.473   4.929  14.901 -1.2803 -0.4531  0.5154
 4430TIP3   OH234780   0.050   6.052  11.187  0.2829  0.1541 -0.5695
 4430TIP3    H134781  -0.025   6.051  11.247  0.9571 -0.7240  0.3074
 4430TIP3    H234782   0.012   6.061  11.100 -1.1250 -3.1220 -0.4664
 4431TIP3   OH234783   1.614   6.779   3.122  0.0527 -0.2343  0.3926
 4431TIP3    H134784   1.601   6.853   3.063 -0.7448  0.8011  1.8035
 4431TIP3    H234785   1.646   6.708   3.066  1.0355  1.2289 -0.9730
 4432TIP3   OH234786   3.266   4.693   3.742 -0.3009 -0.3599 -0.1770
 4432TIP3    H134787   3.222   4.778   3.748 -1.8990 -1.2378  1.6696
 4432TIP3    H234788   3.311   4.683   3.826  1.2077 -0.6836 -0.9887
 4433TIP3   OH234789   0.455   3.360   3.511  0.2530  0.1575 -0.0623
 4433TIP3    H134790   0.475   3.414   3.434  1.1051 -1.8711 -1.3658
 4433TIP3    H234791   0.522   3.291   3.509 -1.0536 -1.2081  1.2186
 4434TIP3   OH234792   1.601   1.103  14.920  0.0691  0.1625 -0.0899
 4434TIP3    H134793   1.505   1.103  14.921  0.0375  1.3458 -0.9390
 4434TIP3    H234794   1.626   1.159  14.993  0.1298 -0.2931  0.2441
 4435TIP3   OH234795   4.348   1.546   2.418 -0.0946 -0.3133  0.2510
 4435TIP3    H134796   4.256   1.532   2.443 -0.5864  0.3578 -1.1095
 4435TIP3    H234797   4.347   1.625   2.364  1.3474 -0.1023  0.4969
 4436TIP3   OH234798   6.223   1.440  16.665 -0.0913 -0.6109 -0.0867
 4436TIP3    H134799   6.282   1.456  16.739  0.3734  0.1521 -0.6067
 4436TIP3    H234800   6.141   1.483  16.689 -0.2435 -1.1608  0.3804
 4437TIP3   OH234801   6.628   2.699  12.707  0.3898  0.4477 -0.1700
 4437TIP3    H134802   6.653   2.722  12.617  0.2554  0.5613 -0.1795
 4437TIP3    H234803   6.710   2.696  12.755  0.4533  0.4900 -0.2746
 4438TIP3   OH234804   2.824   3.618   3.949 -0.4539  0.1839  0.2368
 4438TIP3    H134805   2.738   3.606   3.988  0.3623  3.5555  3.7108
 4438TIP3    H234806   2.881   3.558   3.998 -0.2421  0.7947  0.7556
 4439TIP3   OH234807   1.770   0.133   6.054 -0.4319  0.0204 -0.5925
 4439TIP3    H134808   1.790   0.051   6.009 -1.9582 -0.4546 -0.4547
 4439TIP3    H234809   1.856   0.169   6.077  0.2684 -2.2747  0.7097
 4440TIP3   OH234810   6.680   4.337   1.914 -0.2903 -0.5730  0.3695
 4440TIP3    H134811   6.588   4.362   1.920 -0.2648 -0.3202 -0.2125
 4440TIP3    H234812   6.680   4.241   1.918 -0.4472 -0.5304  1.9374
 4441TIP3   OH234813   1.516   3.653  13.473  0.0503 -0.2553  0.1305
 4441TIP3    H134814   1.488   3.713  13.404  0.4552  0.4854  0.5961
 4441TIP3    H234815   1.437   3.608  13.501 -0.4670  0.9312  0.6041
 4442TIP3   OH234816   4.965   1.870  11.092  0.0445  0.2951  0.1124
 4442TIP3    H134817   5.010   1.878  11.176 -1.6601 -0.7613  1.1880
 4442TIP3    H234818   4.966   1.776  11.072 -0.3444  0.4279 -0.5872
 4443TIP3   OH234819   2.155   2.363  13.730 -0.7676  0.3314 -0.2840
 4443TIP3    H134820   2.077   2.339  13.779 -1.7226  1.0736 -1.3959
 4443TIP3    H234821   2.138   2.452  13.699 -0.1365 -0.0488 -1.8086
 4444TIP3   OH234822   4.735   4.620  11.666 -0.0813  0.1465 -0.1775
 4444TIP3    H134823   4.660   4.635  11.608 -0.8592  3.1751  1.4226
 4444TIP3    H234824   4.808   4.663  11.622  0.1721 -0.6074 -0.5202
 4445TIP3   OH234825   1.344   3.866  15.969 -0.6162 -0.0356  0.1048
 4445TIP3    H134826   1.395   3.822  15.901 -0.5898  1.4869 -0.8936
 4445TIP3    H234827   1.325   3.797  16.033  2.7820 -0.6875  0.5961
 4446TIP3   OH234828   1.133   4.982  11.999 -0.2877  0.1289 -0.3976
 4446TIP3    H134829   1.185   4.935  12.064 -0.1289  0.3037 -0.3986
 4446TIP3    H234830   1.197   5.022  11.941 -0.3613  1.6413  0.4953
 4447TIP3   OH234831   1.913   6.028  16.903 -0.6076  0.1603 -0.1295
 4447TIP3    H134832   1.882   6.116  16.881 -0.8463  0.2476  0.5548
 4447TIP3    H234833   1.920   5.984  16.818 -0.2320  0.9181 -0.4994
 4448TIP3   OH234834   5.994   0.286  16.430  0.2778 -0.0181 -0.0381
 4448TIP3    H134835   5.992   0.261  16.523  0.8511 -0.2765 -0.0864
 4448TIP3    H234836   6.033   0.373  16.429 -1.1405  0.6439  0.0804
 4449TIP3   OH234837   0.626   2.983  11.176  0.2084 -0.2490 -0.4951
 4449TIP3    H134838   0.569   3.056  11.201 -0.8186 -1.3906  0.6864
 4449TIP3    H234839   0.598   2.960  11.087 -1.0327 -0.5993 -0.0434
 4450TIP3   OH234840   1.855   5.280   2.360  0.0535  0.1412  0.2779
 4450TIP3    H134841   1.795   5.253   2.291 -0.3899 -0.1052  0.7594
 4450TIP3    H234842   1.808   5.264   2.442  0.5802  0.4129  0.6436
 4451TIP3   OH234843   0.357   3.247  10.309  0.2673 -0.6803  0.1422
 4451TIP3    H134844   0.344   3.339  10.285 -0.6268 -0.5796  0.9291
 4451TIP3    H234845   0.269   3.209  10.308  0.4152 -1.1222  1.3752
 4452TIP3   OH234846   1.976   0.543  11.812  0.0187  0.1715 -0.4194
 4452TIP3    H134847   1.972   0.477  11.744 -1.1272  0.0620 -0.2612
 4452TIP3    H234848   1.943   0.500  11.891 -0.8756  0.9396 -0.3442
 4453TIP3   OH234849   2.582   0.768   4.505  0.4109 -0.1533  0.4733
 4453TIP3    H134850   2.664   0.717   4.501  0.4989 -0.0645  1.0661
 4453TIP3    H234851   2.530   0.724   4.572 -0.7344 -1.2132 -1.0522
 4454TIP3   OH234852   2.110   3.185   3.115 -0.2821 -0.1462  0.2198
 4454TIP3    H134853   2.015   3.181   3.108 -0.3594 -0.6020  1.3380
 4454TIP3    H234854   2.126   3.233   3.196  0.4380 -0.2187  0.1248
 4455TIP3   OH234855   6.251   2.147  15.673  0.2132  0.1176  0.8911
 4455TIP3    H134856   6.304   2.189  15.604 -1.5352  0.3772 -0.3486
 4455TIP3    H234857   6.285   2.058  15.678  0.5523  0.1734 -0.1136
 4456TIP3   OH234858   5.520   3.489  16.035  0.1360  0.8420  0.5170
 4456TIP3    H134859   5.510   3.550  15.961  0.1180  0.0804 -0.1222
 4456TIP3    H234860   5.595   3.523  16.084 -0.0418  1.5315  0.3228
 4457TIP3   OH234861   1.227   0.938   0.293 -0.5250  0.7224 -0.4461
 4457TIP3    H134862   1.259   0.868   0.349  1.8280  0.6807 -1.7221
 4457TIP3    H234863   1.138   0.911   0.268  0.3945 -1.9814 -1.1301
 4458TIP3   OH234864   2.004   1.072   4.745 -0.0099  0.6902 -0.3175
 4458TIP3    H134865   2.053   1.016   4.685  0.4496  0.7233  0.0239
 4458TIP3    H234866   1.979   1.147   4.693  0.3262  0.6832 -0.4882
 4459TIP3   OH234867   0.172   0.454   2.068  0.8356 -0.0596 -0.9033
 4459TIP3    H134868   0.184   0.457   1.973  1.0026  0.6174 -0.8670
 4459TIP3    H234869   0.187   0.544   2.097 -2.0468  0.4005 -0.5643
 4460TIP3   OH234870   0.932   4.701  12.218 -0.1051 -0.8411 -0.2657
 4460TIP3    H134871   0.841   4.674  12.211 -0.4026  0.2576 -0.9434
 4460TIP3    H234872   0.961   4.713  12.128  0.1027  0.6536 -0.0386
 4461TIP3   OH234873   5.290   5.673   1.352 -0.0716  0.3798 -0.4351
 4461TIP3    H134874   5.367   5.675   1.409  0.0681 -0.5419 -0.5702
 4461TIP3    H234875   5.325   5.658   1.264 -0.2678  2.1217 -0.8281
 4462TIP3   OH234876   3.724   0.923   2.043 -0.0153 -1.2370  0.4313
 4462TIP3    H134877   3.681   0.942   2.127  0.4711 -3.4284  1.2550
 4462TIP3    H234878   3.658   0.877   1.991  0.2391 -1.5266  0.3559
 4463TIP3   OH234879   4.310   6.775  11.937 -0.8699 -0.0497  1.2634
 4463TIP3    H134880   4.248   6.703  11.947  0.5050 -1.5959 -0.5734
 4463TIP3    H234881   4.330   6.777  11.844  0.5589  1.5006  1.5486
 4464TIP3   OH234882   4.913   5.392   3.980  0.1151 -0.0126  0.0473
 4464TIP3    H134883   4.924   5.339   3.901 -1.4071  0.2409 -0.3661
 4464TIP3    H234884   4.820   5.385   4.001  0.4060  0.3311  1.5389
 4465TIP3   OH234885   2.848   2.119   1.055 -0.0359 -0.3136  0.2219
 4465TIP3    H134886   2.835   2.043   0.999 -0.2460  0.0969 -0.2956
 4465TIP3    H234887   2.924   2.097   1.110 -0.7265 -1.3024  0.7996
 4466TIP3   OH234888   3.179   1.584   1.002  0.0745  0.1464  0.3926
 4466TIP3    H134889   3.113   1.596   0.934 -1.4192  0.1598  1.7828
 4466TIP3    H234890   3.235   1.661   0.994  0.1049  0.0129 -0.9724
 4467TIP3   OH234891   1.653   3.939  12.456  0.1354 -0.0205 -0.6588
 4467TIP3    H134892   1.684   3.855  12.488  0.9408  0.2363 -0.7428
 4467TIP3    H234893   1.578   3.961  12.512  1.0192  0.0418  0.5179
 4468TIP3   OH234894   1.082   3.997   0.740  0.1145  0.4851 -0.2773
 4468TIP3    H134895   1.036   4.048   0.806  0.1618 -1.8994  1.7293
 4468TIP3    H234896   1.140   4.061   0.696 -0.8678  2.3857  1.0638
 4469TIP3   OH234897   2.578   1.764  13.347 -0.2113  0.4716  0.4090
 4469TIP3    H134898   2.560   1.745  13.439 -0.9113 -0.9672  0.0033
 4469TIP3    H234899   2.494   1.753  13.303  0.7291 -2.5094 -0.9314
 4470TIP3   OH234900   0.762   0.223   3.140 -0.4587  0.2573 -0.1930
 4470TIP3    H134901   0.702   0.180   3.199 -0.2797  1.9168  1.2789
 4470TIP3    H234902   0.713   0.299   3.107  0.1369  0.4833 -0.5772
 4471TIP3   OH234903   3.580   4.849   1.662  0.1538 -0.6140  0.2026
 4471TIP3    H134904   3.602   4.918   1.600  1.1678  0.1238  1.3371
 4471TIP3    H234905   3.531   4.785   1.610  1.9909 -0.6218 -1.6431
 4472TIP3   OH234906   1.783   6.828  11.923  0.0273 -0.7739  0.2101
 4472TIP3    H134907   1.862   6.775  11.914  1.1972  0.2086  3.2136
 4472TIP3    H234908   1.792   6.897  11.858  1.7371 -0.6363  0.5581
 4473TIP3   OH234909   5.979   3.427   2.899  0.3675  0.0205 -0.0424
 4473TIP3    H134910   6.014   3.338   2.899 -0.2398 -0.2235 -0.4869
 4473TIP3    H234911   5.901   3.423   2.954 -1.0282 -0.2943 -1.9355
 4474TIP3   OH234912   1.903   1.741  13.854  0.0614  0.1607 -0.4722
 4474TIP3    H134913   1.827   1.699  13.893 -0.4222  0.0608 -1.4844
 4474TIP3    H234914   1.960   1.763  13.928 -1.1423  0.6219  0.3455
 4475TIP3   OH234915   2.445   0.751  16.484 -0.1578 -0.1792 -0.2402
 4475TIP3    H134916   2.468   0.790  16.568 -0.0941 -0.1147 -0.2885
 4475TIP3    H234917   2.519   0.769  16.427  1.9423 -4.1245  0.8795
 4476TIP3   OH234918   2.951   2.340  14.570  0.1461  0.0007  0.1915
 4476TIP3    H134919   2.898   2.283  14.514 -1.3357  1.2167  0.2732
 4476TIP3    H234920   2.999   2.396  14.509  3.3154 -2.6139  0.0210
 4477TIP3   OH234921   4.191   0.024  14.702  0.5607 -0.3673  0.1059
 4477TIP3    H134922   4.232   0.011  14.617 -0.9600 -2.5565 -0.3861
 4477TIP3    H234923   4.109   0.069  14.682  1.3858  1.5183  0.7667
 4478TIP3   OH234924   5.051   3.108   3.833 -0.2052  0.1354  0.5675
 4478TIP3    H134925   5.086   3.106   3.922 -0.1851  3.3768  0.7429
 4478TIP3    H234926   4.957   3.090   3.844  0.0067 -0.7629  1.0484
 4479TIP3   OH234927   4.955   6.587   5.990  0.2052 -0.0771  0.1090
 4479TIP3    H134928   4.903   6.651   5.941 -0.8433 -1.4281 -0.6236
 4479TIP3    H234929   5.042   6.593   5.952 -0.2578 -0.1369 -1.0064
 4480TIP3   OH234930   1.661   2.188  12.999 -0.2907 -0.3140  0.0768
 4480TIP3    H134931   1.599   2.169  12.929 -0.0466 -0.0988 -0.2018
 4480TIP3    H234932   1.746   2.195  12.954 -0.5565  3.0713 -0.0997
 4481TIP3   OH234933   6.183   5.102   3.719  0.3191  0.4266 -0.8889
 4481TIP3    H134934   6.255   5.162   3.700 -0.6235  1.2247 -2.1039
 4481TIP3    H234935   6.109   5.159   3.739 -0.5908 -0.3089 -2.0460
 4482TIP3   OH234936   3.745   3.309   5.569  0.3438 -0.1731  0.1778
 4482TIP3    H134937   3.775   3.237   5.513  0.0965  0.8018 -1.2496
 4482TIP3    H234938   3.651   3.293   5.580 -0.1221  0.9037 -1.7301
 4483TIP3   OH234939   4.491   6.366   0.604  0.0929 -0.2631 -0.6068
 4483TIP3    H134940   4.537   6.298   0.556  1.1045  0.4011 -0.6197
 4483TIP3    H234941   4.500   6.444   0.549 -0.5456  0.0220 -0.3192
 4484TIP3   OH234942   6.588   3.995   5.215 -0.8462 -0.4133 -0.3199
 4484TIP3    H134943   6.682   3.991   5.196 -0.7096 -0.9948  0.4163
 4484TIP3    H234944   6.581   4.058   5.287 -0.7464 -1.9361  1.0777
 4485TIP3   OH234945   5.450   2.703   6.915  0.0073  0.0373  0.0606
 4485TIP3    H134946   5.496   2.767   6.861 -0.0504 -0.0246 -0.0628
 4485TIP3    H234947   5.358   2.711   6.889 -0.1942  0.8411  0.9969
 4486TIP3   OH234948   1.053   3.932  12.536  0.2855 -0.1626 -0.0680
 4486TIP3    H134949   1.059   3.843  12.502 -1.0274 -0.0416 -0.6656
 4486TIP3    H234950   1.003   3.924  12.617 -0.7658  0.1340 -0.6625
 4487TIP3   OH234951   6.838   2.983  14.492  0.3148  0.6356 -1.0029
 4487TIP3    H134952   6.897   2.999  14.565 -1.1778 -1.9193  0.9108
 4487TIP3    H234953   6.866   2.900  14.454 -0.4267  0.7118 -1.7697
 4488TIP3   OH234954   0.653   0.058   3.560 -0.5297 -1.1338 -0.4109
 4488TIP3    H134955   0.653   0.062   3.465 -2.3760  0.4636 -0.3943
 4488TIP3    H234956   0.597   0.130   3.588  2.0983  0.1848  1.9997
 4489TIP3   OH234957   1.196   1.999  17.013  0.1939 -0.4715 -0.3030
 4489TIP3    H134958   1.216   1.906  17.003 -1.9311 -0.8917 -1.4478
 4489TIP3    H234959   1.112   2.001  17.059 -0.5606  0.7658 -1.6162
 4490TIP3   OH234960   5.431   0.278   1.343  0.2977 -0.0395  0.3666
 4490TIP3    H134961   5.449   0.356   1.291 -0.2531  0.2740  0.6488
 4490TIP3    H234962   5.476   0.293   1.426  0.2456 -0.0527  0.3973
 4491TIP3   OH234963   6.750   2.856   0.541  0.2755  0.4401  0.1817
 4491TIP3    H134964   6.742   2.815   0.628  0.4818  1.0060  0.4693
 4491TIP3    H234965   6.667   2.901   0.529  0.0264 -0.0980 -0.1605
 4492TIP3   OH234966   3.872   5.459   3.596  0.0487  0.2030 -0.0088
 4492TIP3    H134967   3.801   5.455   3.532 -1.2897  0.7488  1.3785
 4492TIP3    H234968   3.847   5.396   3.664 -0.1224  1.7459  1.4362
 4493TIP3   OH234969   2.503   0.136  14.558  0.3852 -0.1668 -0.2886
 4493TIP3    H134970   2.435   0.095  14.612  1.3864 -0.7647  0.5873
 4493TIP3    H234971   2.539   0.205  14.613 -0.5800  1.2374 -1.3671
 4494TIP3   OH234972   4.580   3.321  11.416  0.5136  0.6202 -0.5840
 4494TIP3    H134973   4.512   3.255  11.425  0.8003  0.5022  1.1751
 4494TIP3    H234974   4.632   3.293  11.341 -0.2207 -0.3500 -0.7434
 4495TIP3   OH234975   1.736   1.148   4.483  0.2601 -0.2593 -0.3161
 4495TIP3    H134976   1.733   1.169   4.390 -0.2686 -1.2097 -0.5249
 4495TIP3    H234977   1.807   1.202   4.518  1.3965 -0.9034 -1.5401
 4496TIP3   OH234978   1.998   3.219   1.586 -0.2715 -0.2161 -0.3723
 4496TIP3    H134979   1.962   3.259   1.665 -0.1876 -0.4837 -0.1971
 4496TIP3    H234980   2.024   3.293   1.531 -1.5041 -0.0065 -0.6997
 4497TIP3   OH234981   3.365   3.540  16.327 -0.0205 -0.4642  0.5761
 4497TIP3    H134982   3.320   3.622  16.305  0.2267 -0.4100  0.2542
 4497TIP3    H234983   3.457   3.557  16.304  0.0801 -0.7387  0.7673
 4498TIP3   OH234984   0.412   1.748   5.977  0.1887  0.2775  0.1907
 4498TIP3    H134985   0.338   1.787   6.024 -0.4632  0.0504 -0.6249
 4498TIP3    H234986   0.450   1.821   5.927  1.0600  0.5828  1.2635
 4499TIP3   OH234987   3.782   6.548   1.397  0.2842  0.9183 -0.3703
 4499TIP3    H134988   3.826   6.484   1.340  0.9578  0.3309  0.7850
 4499TIP3    H234989   3.835   6.550   1.477 -0.6189  1.7643  0.2270
 4500TIP3   OH234990   2.728   2.637  16.116  0.1880  0.1966  0.4301
 4500TIP3    H134991   2.812   2.637  16.162  0.8799 -1.5851 -0.7452
 4500TIP3    H234992   2.713   2.546  16.091 -1.7918  0.5657  0.0224
 4501TIP3   OH234993   3.090   2.782   2.097 -0.2303  0.4539  0.1819
 4501TIP3    H134994   3.172   2.747   2.063 -1.0872  0.4309 -2.0958
 4501TIP3    H234995   3.038   2.800   2.018 -2.7270 -0.3210  1.5334
 4502TIP3   OH234996   1.688   4.507   3.281  0.5723  0.8843 -0.7242
 4502TIP3    H134997   1.608   4.529   3.232  0.1831 -1.6100 -1.3624
 4502TIP3    H234998   1.748   4.475   3.214  0.3247 -1.8373  0.2372
 4503TIP3   OH234999   2.005   5.263   4.528 -0.2150 -0.2400  0.3332
 4503TIP3    H135000   2.072   5.238   4.592 -0.1377 -0.2312  0.2572
 4503TIP3    H235001   2.024   5.354   4.508  0.5818 -0.6039 -0.6822
 4504TIP3   OH235002   4.804   1.610   5.144  0.0181  0.2283 -0.4040
 4504TIP3    H135003   4.889   1.567   5.148 -1.1703 -2.2415  0.2323
 4504TIP3    H235004   4.750   1.562   5.207 -1.6972  2.1142 -0.3350
 4505TIP3   OH235005   2.397   0.998  16.135  0.0881  0.5505  0.3001
 4505TIP3    H135006   2.355   1.082  16.152  1.3776  1.8498 -2.4107
 4505TIP3    H235007   2.486   1.020  16.108  0.0551 -1.5583 -1.8179
 4506TIP3   OH235008   1.519   6.527   5.174  0.8547  0.4654  0.2541
 4506TIP3    H135009   1.426   6.536   5.156  0.5091  2.6609  2.4861
 4506TIP3    H235010   1.523   6.485   5.260  2.1781 -3.8521 -1.6433
 4507TIP3   OH235011   6.783   6.631   3.144 -0.2796 -0.3469 -0.6611
 4507TIP3    H135012   6.846   6.642   3.216 -0.6088  0.4100 -0.4781
 4507TIP3    H235013   6.737   6.714   3.140 -0.5128 -0.5102 -1.5251
 4508TIP3   OH235014   4.795   0.086  10.356 -0.1286 -0.0325  0.3340
 4508TIP3    H135015   4.761   0.132  10.279 -0.9919 -1.9637 -0.5214
 4508TIP3    H235016   4.886   0.068  10.335 -0.3184 -0.4094 -0.2014
 4509TIP3   OH235017   4.974   0.514   1.873 -0.1483  0.1584  0.4262
 4509TIP3    H135018   4.978   0.579   1.803  0.7701 -0.1508  0.1849
 4509TIP3    H235019   5.012   0.435   1.836 -1.3415 -0.5706  0.6933
 4510TIP3   OH235020   0.645   1.226   0.439 -0.2157  0.4784  0.2340
 4510TIP3    H135021   0.654   1.251   0.347 -1.9054  0.4188  0.0233
 4510TIP3    H235022   0.715   1.161   0.453  0.1428  0.5774 -0.9640
 4511TIP3   OH235023   4.114   6.812   6.315 -0.5502  0.5937  0.3357
 4511TIP3    H135024   4.036   6.863   6.340 -0.6147  1.4609 -1.4590
 4511TIP3    H235025   4.088   6.767   6.234  0.6387  0.4715  0.0034
 4512TIP3   OH235026   4.938   6.075  15.077 -0.0696  0.5659 -0.0119
 4512TIP3    H135027   4.851   6.097  15.042 -0.2003  2.6792  1.4474
 4512TIP3    H235028   4.930   5.985  15.106 -2.8968  1.6064  3.0525
 4513TIP3   OH235029   5.122   5.649   3.204  0.1109 -0.4195  0.0986
 4513TIP3    H135030   5.058   5.721   3.203  0.1293 -0.3687  1.2203
 4513TIP3    H235031   5.081   5.582   3.150 -0.2656  0.1366 -0.3306
 4514TIP3   OH235032   0.639   5.434  11.040 -0.4766  0.0362  0.0374
 4514TIP3    H135033   0.640   5.516  10.990  2.2181  0.1818  0.1588
 4514TIP3    H235034   0.672   5.368  10.979  0.3190 -0.3135  0.8161
 4515TIP3   OH235035   5.292   5.325  13.782  0.3636 -0.1095 -0.0776
 4515TIP3    H135036   5.225   5.260  13.759  0.4401 -0.4057  0.4923
 4515TIP3    H235037   5.306   5.311  13.876  1.7598 -0.5569 -0.3292
 4516TIP3   OH235038   2.495   4.017  16.141  0.6701  0.0072 -0.0960
 4516TIP3    H135039   2.518   3.926  16.161 -0.8569 -0.3770  0.0063
 4516TIP3    H235040   2.438   4.044  16.213  0.0715  0.6136 -0.7813
 4517TIP3   OH235041   0.807   4.411   4.388 -0.3947 -0.2622 -0.3109
 4517TIP3    H135042   0.812   4.316   4.379 -0.4566 -0.1744 -1.4568
 4517TIP3    H235043   0.882   4.444   4.338 -0.5656  0.3027 -0.2028
 4518TIP3   OH235044   5.197   2.108  15.026  0.1858 -0.5478  0.0830
 4518TIP3    H135045   5.212   2.147  14.939  0.4673 -0.0862  0.3321
 4518TIP3    H235046   5.110   2.069  15.020  0.6465 -1.4899 -0.7544
 4519TIP3   OH235047   3.448   5.301   1.268  0.0186  0.4457 -0.1179
 4519TIP3    H135048   3.518   5.279   1.330 -0.7897 -4.4188 -0.5621
 4519TIP3    H235049   3.367   5.287   1.316 -0.7438  2.5592 -0.6547
 4520TIP3   OH235050   3.187   3.988   3.944  0.5071 -0.1251  0.2817
 4520TIP3    H135051   3.160   4.054   3.881 -0.0936 -0.0547  0.5978
 4520TIP3    H235052   3.114   3.983   4.006  0.3722 -1.3532  0.0566
 4521TIP3   OH235053   0.507   6.384  12.587 -0.1076 -0.3913  0.0264
 4521TIP3    H135054   0.519   6.359  12.679 -3.9678  0.5508  0.9601
 4521TIP3    H235055   0.431   6.333  12.559 -0.1823  0.7902 -2.0493
 4522TIP3   OH235056   5.707   4.927   5.284 -0.3653 -0.1204 -0.1961
 4522TIP3    H135057   5.784   4.976   5.256 -0.3411 -0.5019 -0.8188
 4522TIP3    H235058   5.739   4.839   5.303 -0.4600  0.0147  0.6308
 4523TIP3   OH235059   6.446   5.346   3.412 -0.3886  0.5140  0.6482
 4523TIP3    H135060   6.538   5.343   3.437 -0.5051  2.8135  1.5812
 4523TIP3    H235061   6.405   5.277   3.465  0.9911 -1.8952 -1.1931
 4524TIP3   OH235062   2.460   3.466   4.828 -0.0129  0.2666  0.4548
 4524TIP3    H135063   2.547   3.495   4.857 -0.0174  1.8205 -0.9398
 4524TIP3    H235064   2.401   3.498   4.896  0.2649  1.3939  0.1893
 4525TIP3   OH235065   5.904   1.383   2.002  0.1248  0.4827 -0.1680
 4525TIP3    H135066   5.875   1.474   1.996 -0.1267  0.5190  1.3435
 4525TIP3    H235067   5.915   1.367   2.095  1.1776 -0.7355 -0.4694
 4526TIP3   OH235068   6.200   3.082  14.455  0.0422  0.7324 -0.2603
 4526TIP3    H135069   6.204   3.065  14.549  2.3256  0.6872 -0.2962
 4526TIP3    H235070   6.216   3.176  14.447  1.3738  0.5069 -0.6139
 4527TIP3   OH235071   3.663   2.113  16.258  0.2284  0.2083 -0.5138
 4527TIP3    H135072   3.635   2.028  16.291 -0.1518  0.6173  0.2328
 4527TIP3    H235073   3.645   2.109  16.164 -0.2271 -0.3614 -0.4068
 4528TIP3   OH235074   1.705   1.728   5.584 -0.5888  0.5155 -0.3456
 4528TIP3    H135075   1.629   1.681   5.549 -0.8092  1.0314 -0.5708
 4528TIP3    H235076   1.719   1.690   5.671 -1.5625  0.9156 -0.0002
 4529TIP3   OH235077   2.733   0.178  15.953  0.1969 -0.2384  0.0722
 4529TIP3    H135078   2.806   0.207  16.007  0.7075  0.1217 -0.8071
 4529TIP3    H235079   2.769   0.108  15.899 -0.7204 -1.7581  1.3132
 4530TIP3   OH235080   5.760   5.776  12.464  0.0067 -0.0690 -0.0490
 4530TIP3    H135081   5.788   5.860  12.500  0.8791  0.1008 -1.0814
 4530TIP3    H235082   5.694   5.744  12.526 -1.9360  2.3604 -0.6941
 4531TIP3   OH235083   2.231   3.486   2.326 -0.4168 -0.2526 -0.2121
 4531TIP3    H135084   2.164   3.552   2.308 -2.4708 -2.5217 -1.4526
 4531TIP3    H235085   2.213   3.415   2.264  1.7812 -1.9492  0.9195
 4532TIP3   OH235086   2.544   5.030   4.162  0.1400  0.5365  0.5085
 4532TIP3    H135087   2.612   4.971   4.194  0.4427  1.7984  2.3898
 4532TIP3    H235088   2.462   4.988   4.186  0.0533 -1.6266 -2.9029
 4533TIP3   OH235089   2.657   3.457  11.526  0.2340 -0.5924 -0.2781
 4533TIP3    H135090   2.723   3.471  11.458  2.1821 -2.3530  1.1251
 4533TIP3    H235091   2.610   3.379  11.497 -1.3070  0.6215 -1.2424
 4534TIP3   OH235092   4.177   4.175  15.205  0.0364 -0.5371  0.2597
 4534TIP3    H135093   4.236   4.204  15.136 -1.4540 -0.0445 -0.8664
 4534TIP3    H235094   4.159   4.254  15.256 -0.5168 -0.4444 -0.0778
 4535TIP3   OH235095   3.824   5.174  12.055  0.4028  0.3790  0.6572
 4535TIP3    H135096   3.728   5.167  12.049  0.4575 -0.6339  0.8438
 4535TIP3    H235097   3.838   5.237  12.126 -0.1197  0.4266  0.7268
 4536TIP3   OH235098   0.269   4.633  12.420  0.3427 -0.2527  0.4893
 4536TIP3    H135099   0.304   4.598  12.502  0.1660 -0.0319  0.6629
 4536TIP3    H235100   0.345   4.665  12.373  0.6460 -1.9321 -0.2005
 4537TIP3   OH235101   2.601   0.997   2.724  0.2781  0.0910 -0.3792
 4537TIP3    H135102   2.659   1.069   2.700  0.2901  0.7404  1.4216
 4537TIP3    H235103   2.646   0.918   2.694  1.4162  0.6772 -0.2528
 4538TIP3   OH235104   6.520   2.423   1.733 -0.0167  0.1798 -0.5343
 4538TIP3    H135105   6.549   2.474   1.657  0.5171 -0.7832 -0.9936
 4538TIP3    H235106   6.537   2.480   1.808  1.4211  0.3362 -0.9508
 4539TIP3   OH235107   2.992   5.535   0.615 -0.4521 -0.4215  0.2787
 4539TIP3    H135108   2.940   5.506   0.689  0.3457 -0.6902  0.7542
 4539TIP3    H235109   3.083   5.519   0.642 -0.0737  0.8247 -0.1765
 4540TIP3   OH235110   1.101   5.207   0.673  0.5328  0.2089 -0.2999
 4540TIP3    H135111   1.111   5.126   0.722 -0.1579  0.7751  0.7930
 4540TIP3    H235112   1.177   5.259   0.697  1.5109 -0.4558 -1.7573
 4541TIP3   OH235113   2.586   0.004  14.906 -0.2844 -0.0944 -0.2558
 4541TIP3    H135114   2.653   0.063  14.940 -0.2141  0.0559 -0.6411
 4541TIP3    H235115   2.632  -0.079  14.891 -0.3142 -0.1570  0.0107
 4542TIP3   OH235116   2.859   2.244  12.663 -0.1318 -0.3067  0.1090
 4542TIP3    H135117   2.850   2.322  12.608 -1.7778  0.7149  1.7186
 4542TIP3    H235118   2.943   2.256  12.708  0.0548  0.0648 -0.3242
 4543TIP3   OH235119   6.552   6.731  15.883 -0.1236  0.0777 -0.5073
 4543TIP3    H135120   6.546   6.636  15.869  1.2678  0.0923 -1.4371
 4543TIP3    H235121   6.634   6.743  15.930 -0.4939  0.7955 -0.0296
 4544TIP3   OH235122   3.288   0.498  11.756 -0.0199  0.3261 -0.6873
 4544TIP3    H135123   3.195   0.511  11.773  0.2661  1.9858 -0.2140
 4544TIP3    H235124   3.320   0.584  11.727  1.6717  0.2354  0.7023
 4545TIP3   OH235125   4.056   6.330  14.691 -0.5098 -0.1923  0.2937
 4545TIP3    H135126   3.969   6.336  14.732  0.1641  2.6302  1.5788
 4545TIP3    H235127   4.116   6.311  14.763  0.4488  2.8859  0.4772
 4546TIP3   OH235128   0.450   0.220  13.282 -0.7639  0.8625 -0.2232
 4546TIP3    H135129   0.481   0.301  13.321 -0.7977  0.9132 -0.3002
 4546TIP3    H235130   0.356   0.220  13.299 -0.6950  0.6113  0.1867
 4547TIP3   OH235131   5.154   2.784  16.759  0.0725  0.0127 -0.1797
 4547TIP3    H135132   5.205   2.822  16.831 -2.8689 -1.3546  2.9325
 4547TIP3    H235133   5.107   2.858  16.721 -1.7212  0.3608  2.4271
 4548TIP3   OH235134   1.385   2.315  13.284 -0.9223 -0.8703  0.4289
 4548TIP3    H135135   1.399   2.320  13.378 -2.5932  0.3282  0.6637
 4548TIP3    H235136   1.458   2.366  13.246 -0.7727 -0.5500  1.1290
 4549TIP3   OH235137   2.318   2.619  15.363  0.2855  0.4259  1.0498
 4549TIP3    H135138   2.370   2.553  15.318 -0.5984 -0.3429  1.1324
 4549TIP3    H235139   2.310   2.690  15.299  1.9257  0.8347  1.2558
 4550TIP3   OH235140   0.110   5.411  13.667  0.4188 -0.2768 -0.4092
 4550TIP3    H135141   0.162   5.483  13.632 -1.9936  0.7044 -2.2142
 4550TIP3    H235142   0.140   5.334  13.617 -0.7738  0.5386 -2.4902
 4551TIP3   OH235143   0.900   1.053   3.438 -0.5888  0.1863  0.4527
 4551TIP3    H135144   0.945   1.032   3.356 -0.9788  0.5450  0.1370
 4551TIP3    H235145   0.865   1.142   3.424  0.9168  1.0246  1.6940
 4552TIP3   OH235146   1.020   0.441  10.678  0.8760 -0.4027  0.1543
 4552TIP3    H135147   0.956   0.504  10.713 -0.5596 -1.3987 -0.5940
 4552TIP3    H235148   1.097   0.494  10.660 -0.2234  1.1345 -0.2684
 4553TIP3   OH235149   2.460   3.791  12.908 -0.2585  0.3800 -0.0519
 4553TIP3    H135150   2.404   3.799  12.831  1.1025 -0.2314 -1.1524
 4553TIP3    H235151   2.454   3.876  12.951  1.6685  2.0553 -2.7911
 4554TIP3   OH235152   0.257   0.035   5.196 -0.0260 -0.1946 -0.7633
 4554TIP3    H135153   0.210   0.095   5.254 -0.4084  1.1805 -2.4159
 4554TIP3    H235154   0.349   0.061   5.203  0.0673 -0.6551 -0.1088
 4555TIP3   OH235155   6.438   0.996   0.406  0.3442 -0.0146  0.5104
 4555TIP3    H135156   6.524   1.005   0.448  1.8658 -0.2280 -2.3074
 4555TIP3    H235157   6.437   0.905   0.375 -0.2304  0.4230 -0.7874
 4556TIP3   OH235158   0.618   3.553   4.945 -1.0290 -0.3464  0.1984
 4556TIP3    H135159   0.624   3.537   4.851  3.5580  0.2296  0.1544
 4556TIP3    H235160   0.549   3.619   4.954 -1.3336 -0.1305 -2.8152
 4557TIP3   OH235161   0.377   0.958  16.549 -0.6597  0.3424  0.0250
 4557TIP3    H135162   0.434   0.997  16.482  0.1323  0.2876  0.6586
 4557TIP3    H235163   0.436   0.905  16.603 -1.0441  1.4184  1.5605
 4558TIP3   OH235164   0.518   5.579  11.310 -0.1297 -0.3965  0.0180
 4558TIP3    H135165   0.533   5.659  11.260  0.6791  0.4948  1.6012
 4558TIP3    H235166   0.439   5.597  11.360  2.0949  1.1453  3.4008
 4559TIP3   OH235167   0.314   3.255   4.756  0.0350  0.5102  0.3056
 4559TIP3    H135168   0.370   3.244   4.833  0.2780 -3.6931 -0.2604
 4559TIP3    H235169   0.225   3.250   4.790  0.1195  0.2221  0.4903
 4560TIP3   OH235170   2.653   0.138  13.164  0.2066  0.1143 -0.2066
 4560TIP3    H135171   2.603   0.147  13.245  0.2690  0.8510 -0.2381
 4560TIP3    H235172   2.599   0.082  13.108  0.2537 -0.5572  0.4066
 4561TIP3   OH235173   5.326   4.277   3.740  0.3702  0.2125 -0.3300
 4561TIP3    H135174   5.241   4.264   3.698  0.5320 -0.7479 -0.3874
 4561TIP3    H235175   5.390   4.264   3.670  0.5687  0.8693 -0.2732
 4562TIP3   OH235176   1.366   3.779  11.860 -0.6133 -0.6777  0.5863
 4562TIP3    H135177   1.330   3.855  11.906 -3.3254 -1.4925 -0.0344
 4562TIP3    H235178   1.370   3.806  11.768 -0.9587 -1.0667  0.4568
 4563TIP3   OH235179   5.725   2.083   1.602  0.2048  0.1257  0.0764
 4563TIP3    H135180   5.807   2.065   1.555  0.3841 -0.5145  0.6197
 4563TIP3    H235181   5.681   2.149   1.549 -0.0520 -1.2622 -1.5347
 4564TIP3   OH235182   4.554   5.245  11.794  0.0814 -0.0862 -0.0151
 4564TIP3    H135183   4.551   5.308  11.866 -0.5155 -1.3004  1.0615
 4564TIP3    H235184   4.508   5.168  11.828 -1.4165 -0.2013 -2.1919
 4565TIP3   OH235185   0.586   1.984  10.895 -0.1873  0.5973  0.3852
 4565TIP3    H135186   0.610   1.899  10.856  1.0170  0.7398  0.7852
 4565TIP3    H235187   0.535   2.027  10.826  0.9029  0.3619 -0.6117
 4566TIP3   OH235188   2.248   5.348   5.424 -0.2114  0.0326  0.4447
 4566TIP3    H135189   2.328   5.354   5.372 -0.9823  0.0545 -0.7764
 4566TIP3    H235190   2.253   5.423   5.484  0.2608  0.5500 -0.2250
 4567TIP3   OH235191   5.544   1.625  10.782 -0.1415 -0.3437  0.3195
 4567TIP3    H135192   5.597   1.666  10.851  0.0877 -0.2019  0.0603
 4567TIP3    H235193   5.609   1.582  10.725 -0.2913  0.0192 -0.1260
 4568TIP3   OH235194   2.466   5.775   1.328  0.0193 -0.1339  0.1639
 4568TIP3    H135195   2.409   5.771   1.405 -0.5927 -1.0839 -0.3235
 4568TIP3    H235196   2.470   5.868   1.306 -0.5686  0.0401  0.7774
 4569TIP3   OH235197   4.245   5.542  14.818  0.3960  0.6968  0.1616
 4569TIP3    H135198   4.223   5.462  14.770  0.1571  1.3890 -0.9395
 4569TIP3    H235199   4.167   5.597  14.809  1.2742  1.8398 -0.8737
 4570TIP3   OH235200   3.437   6.795  13.724  0.1980 -0.2821  0.9249
 4570TIP3    H135201   3.456   6.795  13.817 -3.0183 -3.6736  1.8324
 4570TIP3    H235202   3.344   6.818  13.717  0.1344 -0.8919 -1.2992
 4571TIP3   OH235203   6.030   1.094   3.204 -0.7899 -0.3642 -0.2401
 4571TIP3    H135204   5.964   1.093   3.272 -0.6616 -2.0218 -0.1087
 4571TIP3    H235205   6.057   1.003   3.195  1.2330  0.2124 -0.5194
 4572TIP3   OH235206   3.636   1.006  13.726 -0.0440  0.1464  0.4780
 4572TIP3    H135207   3.719   1.000  13.772  0.5206  0.2428 -0.5174
 4572TIP3    H235208   3.654   0.974  13.638 -0.7100  1.4712 -0.1752
 4573TIP3   OH235209   3.701   2.868  11.470  0.4269 -0.2283 -0.3905
 4573TIP3    H135210   3.706   2.850  11.376 -0.5122  0.2684 -0.5378
 4573TIP3    H235211   3.659   2.790  11.507 -0.4213  0.1346 -0.5673
 4574TIP3   OH235212   6.594   5.297  10.739  0.0818  0.0255 -0.2849
 4574TIP3    H135213   6.499   5.302  10.743  0.0331  0.9399 -1.6862
 4574TIP3    H235214   6.624   5.387  10.750  0.8244 -0.3247  0.6776
 4575TIP3   OH235215   1.741   6.209  14.734  0.1663  0.1012 -0.8929
 4575TIP3    H135216   1.750   6.140  14.800  0.2138  1.5530  0.6845
 4575TIP3    H235217   1.755   6.164  14.651 -0.7453 -1.9730 -0.0139
 4576TIP3   OH235218   5.035   5.217   3.800  0.0167 -0.4917 -0.5271
 4576TIP3    H135219   5.126   5.240   3.817 -0.6444  0.9927  1.1910
 4576TIP3    H235220   5.039   5.166   3.718  2.5765 -2.1348  0.4975
 4577TIP3   OH235221   4.597   2.940  13.687  0.3122  0.0289 -0.6092
 4577TIP3    H135222   4.652   2.888  13.746  0.3459 -0.1591 -0.8049
 4577TIP3    H235223   4.535   2.877  13.651  1.3314 -0.2083 -2.0345
 4578TIP3   OH235224   2.898   1.836  16.967  0.1596  0.2337 -0.2104
 4578TIP3    H135225   2.805   1.846  16.988  0.6961  2.6891  1.4522
 4578TIP3    H235226   2.913   1.742  16.969 -2.1002 -0.1815  0.3793
 4579TIP3   OH235227   5.595   3.661   3.697  0.1192 -0.6175 -0.0017
 4579TIP3    H135228   5.652   3.663   3.621 -0.7313 -2.3079 -0.7296
 4579TIP3    H235229   5.655   3.658   3.772  0.9981 -1.5821 -0.7165
 4580TIP3   OH235230   5.602   4.286  17.009  0.5204  0.1512  0.0209
 4580TIP3    H135231   5.569   4.264  16.922  0.9818  0.6116 -0.2818
 4580TIP3    H235232   5.582   4.210  17.063 -0.6731  0.2586 -0.2407
 4581TIP3   OH235233   6.100   3.090  13.884  0.2561 -0.5456  0.1039
 4581TIP3    H135234   6.021   3.121  13.841  0.7584  1.8906  0.8076
 4581TIP3    H235235   6.163   3.078  13.813 -0.5085 -1.9027 -0.3864
 4582TIP3   OH235236   0.372   5.360  14.148  0.4080  0.1211  0.1113
 4582TIP3    H135237   0.379   5.265  14.155 -1.1430  0.0461  1.1041
 4582TIP3    H235238   0.280   5.379  14.166  0.1023  1.6174 -2.5659
 4583TIP3   OH235239   1.242   3.536  11.893  0.3668 -0.5998 -0.1177
 4583TIP3    H135240   1.291   3.612  11.861  0.0552 -0.2239  0.2890
 4583TIP3    H235241   1.284   3.513  11.976  0.0994 -0.5118  0.0441
 4584TIP3   OH235242   4.603   1.545  16.819  0.7473 -0.0922  0.2034
 4584TIP3    H135243   4.519   1.568  16.779  0.3559 -0.1289  0.9859
 4584TIP3    H235244   4.665   1.544  16.746  0.3274  1.1813 -0.2083
 4585TIP3   OH235245   6.500   5.702  15.940  0.4210  0.1029 -0.0171
 4585TIP3    H135246   6.550   5.649  15.878 -0.6346 -0.7347 -0.1878
 4585TIP3    H235247   6.546   5.692  16.023  0.0413 -1.4397  0.0458
 4586TIP3   OH235248   2.609   1.424   4.277 -0.1179  0.2000 -0.3195
 4586TIP3    H135249   2.573   1.430   4.365  1.6910  1.0637  0.4094
 4586TIP3    H235250   2.704   1.431   4.289  0.1113  1.4606 -2.4101
 4587TIP3   OH235251   6.008   6.625  11.880 -0.6727 -0.5567  0.1426
 4587TIP3    H135252   5.992   6.580  11.963  0.3561 -0.9071  0.1670
 4587TIP3    H235253   6.005   6.555  11.814 -0.4468 -0.4485  0.0146
 4588TIP3   OH235254   4.089   1.434  16.598  0.5941 -0.7176  0.1767
 4588TIP3    H135255   4.027   1.362  16.581  1.0847 -0.6648 -2.0073
 4588TIP3    H235256   4.035   1.503  16.636 -0.4391 -1.1792 -0.4152
 4589TIP3   OH235257   2.205   5.833  14.558  0.1023 -0.4723 -0.1292
 4589TIP3    H135258   2.178   5.907  14.503  0.1086 -0.7710 -0.5377
 4589TIP3    H235259   2.125   5.783  14.571  0.0057 -0.1595  0.5168
 4590TIP3   OH235260   4.391   4.636  10.603  0.1711 -0.0537  0.3066
 4590TIP3    H135261   4.303   4.634  10.639 -0.0805  0.1092 -0.2961
 4590TIP3    H235262   4.438   4.566  10.649 -0.6860 -1.1486 -0.4465
 4591TIP3   OH235263   1.063   5.820   3.140 -0.4099  0.5467  0.2437
 4591TIP3    H135264   1.146   5.867   3.145 -0.2608  0.1667  3.2512
 4591TIP3    H235265   1.048   5.807   3.047  2.3292  1.6208 -0.4356
 4592TIP3   OH235266   3.604   5.067  15.906  0.1483 -0.3368  0.3501
 4592TIP3    H135267   3.691   5.076  15.867 -0.6334  0.6090 -1.2502
 4592TIP3    H235268   3.562   5.151  15.891 -1.4256 -1.1197  0.1300
 4593TIP3   OH235269   1.889   3.092   4.699  0.3759  0.3720 -0.2441
 4593TIP3    H135270   1.827   3.100   4.771  1.4810 -0.7990  0.8963
 4593TIP3    H235271   1.856   3.018   4.647  0.1349  0.5687 -0.3744
 4594TIP3   OH235272   2.801   1.103  12.443  0.4029 -0.5619  0.4098
 4594TIP3    H135273   2.886   1.149  12.441 -0.1064  0.3907 -0.0363
 4594TIP3    H235274   2.822   1.014  12.415  0.8331  0.4164 -2.7095
 4595TIP3   OH235275   1.410   5.831  12.526 -0.1478 -0.1742  1.1155
 4595TIP3    H135276   1.345   5.815  12.595  0.1642 -0.4758  1.3411
 4595TIP3    H235277   1.362   5.816  12.444 -0.2230 -0.9392  1.2928
 4596TIP3   OH235278   1.182   0.039  16.263 -0.0739  0.0182 -0.5100
 4596TIP3    H135279   1.237   0.118  16.268  0.0193 -0.0233 -0.8569
 4596TIP3    H235280   1.194  -0.004  16.348  0.7927 -0.2252 -0.7472
 4597TIP3   OH235281   4.769   5.983  12.487  0.2456  0.2057 -0.0961
 4597TIP3    H135282   4.729   6.020  12.566  0.5671  0.3850 -0.0160
 4597TIP3    H235283   4.735   6.036  12.416 -2.8666 -2.0997 -0.5321
 4598TIP3   OH235284   4.045   0.035   5.657 -0.3144  0.3066 -0.0637
 4598TIP3    H135285   4.044  -0.050   5.613  0.2879  0.6254 -0.7199
 4598TIP3    H235286   4.069   0.097   5.588 -2.1000  1.2236  0.0577
 4599TIP3   OH235287   2.441   0.492  16.632 -0.3068  0.5162  0.0861
 4599TIP3    H135288   2.468   0.431  16.564  0.6496  1.1944 -0.1527
 4599TIP3    H235289   2.435   0.577  16.588  0.7357  1.0471  0.9264
 4600TIP3   OH235290   6.039   2.533  11.050 -0.4002 -0.1559 -0.1936
 4600TIP3    H135291   5.943   2.528  11.052 -0.3807 -0.3536  1.3961
 4600TIP3    H235292   6.068   2.462  11.106  0.7138 -0.5112 -1.1968
 4601TIP3   OH235293   4.406   6.187  16.320  0.5149  0.6633  0.9699
 4601TIP3    H135294   4.484   6.139  16.291  0.5591  0.3887  1.5388
 4601TIP3    H235295   4.362   6.127  16.380  1.5740  1.9977  3.2245
 4602TIP3   OH235296   0.961   2.381  12.115 -0.4238  0.3733 -1.2684
 4602TIP3    H135297   0.880   2.340  12.084 -0.1292 -2.1194  0.9153
 4602TIP3    H235298   0.938   2.417  12.200  1.1646 -2.4119  0.4770
 4603TIP3   OH235299   1.364   3.963  14.307  0.1339  0.1146 -0.3308
 4603TIP3    H135300   1.364   3.957  14.402  3.5892  1.9831 -0.0467
 4603TIP3    H235301   1.348   4.056  14.289  0.1634 -0.1001 -1.5495
 4604TIP3   OH235302   5.493   0.077  11.577 -0.2334  0.0178  0.2826
 4604TIP3    H135303   5.440   0.154  11.598 -0.0692  0.6532 -1.4178
 4604TIP3    H235304   5.580   0.098  11.612 -0.0378  0.9102 -0.6704
 4605TIP3   OH235305   3.788   6.428  12.488  0.0812  0.3757  0.2144
 4605TIP3    H135306   3.724   6.461  12.551 -0.0586  2.5002 -0.9596
 4605TIP3    H235307   3.751   6.347  12.455 -0.2397 -0.3428  2.2045
 4606TIP3   OH235308   4.636   3.962   1.970  0.0237  0.0271 -0.1344
 4606TIP3    H135309   4.651   3.868   1.979  0.4967  0.1788  0.8280
 4606TIP3    H235310   4.666   3.999   2.053 -1.6201  0.8673  0.1318
 4607TIP3   OH235311   4.076   5.894  12.642  0.3109 -0.3480  0.4423
 4607TIP3    H135312   3.995   5.878  12.594  0.0458 -1.4629  1.2298
 4607TIP3    H235313   4.117   5.967  12.595 -0.0318 -1.2277 -1.3415
 4608TIP3   OH235314   0.151   1.116  16.373  0.3660 -0.1557  0.0076
 4608TIP3    H135315   0.158   1.062  16.451 -1.0330  0.3185  0.4885
 4608TIP3    H235316   0.149   1.053  16.300 -2.6908 -0.9233  0.6334
 4609TIP3   OH235317   4.455   5.865   5.408  0.1525  0.6358 -0.1126
 4609TIP3    H135318   4.522   5.933   5.411  1.0295 -0.1860 -0.3669
 4609TIP3    H235319   4.383   5.899   5.461  0.4558  1.8640 -0.4507
 4610TIP3   OH235320   5.466   0.506   3.354  0.4760 -0.1326  0.1481
 4610TIP3    H135321   5.417   0.434   3.394 -1.5360  1.2747  0.3405
 4610TIP3    H235322   5.401   0.557   3.307  1.6927  2.0389  0.6860
 4611TIP3   OH235323   4.808   2.815   5.921  0.8752  1.0285 -0.3438
 4611TIP3    H135324   4.829   2.724   5.903 -1.6254  1.0366 -4.6650
 4611TIP3    H235325   4.735   2.811   5.983  0.8215  0.0858 -0.4509
 4612TIP3   OH235326   0.373   4.400   5.063  0.3523  0.3123 -0.2324
 4612TIP3    H135327   0.311   4.450   5.115  0.9291  0.6088  0.1815
 4612TIP3    H235328   0.333   4.313   5.054  0.3503  0.1844  0.9054
 4613TIP3   OH235329   6.270   0.731   0.830 -0.8492 -0.3687 -0.2891
 4613TIP3    H135330   6.296   0.823   0.837  0.5871 -0.6600 -1.4769
 4613TIP3    H235331   6.274   0.698   0.920  1.4565  0.0150 -0.1925
 4614TIP3   OH235332   1.255   2.388  12.176  0.5551  0.5021 -0.3552
 4614TIP3    H135333   1.165   2.378  12.145  1.0687 -1.7549 -1.3452
 4614TIP3    H235334   1.256   2.474  12.218 -1.8566  0.9186 -0.9526
 4615TIP3   OH235335   5.304   3.632   5.348  0.2929 -0.6432  0.4099
 4615TIP3    H135336   5.211   3.655   5.349  0.9435  2.3411  0.9779
 4615TIP3    H235337   5.318   3.593   5.261 -1.1928  0.2046 -0.2476
 4616TIP3   OH235338   6.476   3.252   0.063 -0.6286 -0.5125 -0.3820
 4616TIP3    H135339   6.481   3.347   0.051  0.3443 -0.5298 -0.2081
 4616TIP3    H235340   6.525   3.236   0.144 -1.3876 -1.0976 -0.0191
 4617TIP3   OH235341   6.695   1.475   0.677  0.6258 -0.1600 -0.8176
 4617TIP3    H135342   6.665   1.456   0.765  0.7858  0.9614 -0.5051
 4617TIP3    H235343   6.757   1.405   0.657  1.9817  0.5373  0.6888
 4618TIP3   OH235344   6.708   4.688   4.124  0.1859 -0.2469 -0.2236
 4618TIP3    H135345   6.765   4.656   4.194  0.4502 -0.2512 -0.4392
 4618TIP3    H235346   6.719   4.783   4.127 -0.4927 -0.1752  0.3256
 4619TIP3   OH235347   3.771   4.584  11.583 -0.3411  0.0475 -0.2966
 4619TIP3    H135348   3.776   4.538  11.666 -0.9255  0.0919 -0.2327
 4619TIP3    H235349   3.799   4.673  11.603 -1.7761  0.4195  0.1478
 4620TIP3   OH235350   5.863   1.047   1.375  0.2128 -0.1475  0.3022
 4620TIP3    H135351   5.788   1.049   1.315  0.9129  0.8680 -0.5824
 4620TIP3    H235352   5.933   1.006   1.325  0.8426  0.8204  0.3579
 4621TIP3   OH235353   5.185   1.368  11.118  0.5692 -0.5555  0.9609
 4621TIP3    H135354   5.246   1.295  11.117  1.8234  0.4433 -0.7807
 4621TIP3    H235355   5.214   1.423  11.190  0.9365 -0.7245  0.9423
 4622TIP3   OH235356   1.231   6.523   0.899  0.9780  0.1830 -0.4187
 4622TIP3    H135357   1.187   6.509   0.816  1.4996 -1.2245 -0.4770
 4622TIP3    H235358   1.161   6.517   0.964  0.7744 -0.0431 -0.6556
 4623TIP3   OH235359   1.063   3.968   4.458  0.3296  0.0012  0.8276
 4623TIP3    H135360   1.016   3.885   4.459 -0.8695  0.6540  2.1186
 4623TIP3    H235361   1.127   3.961   4.528  0.7691 -0.1146  0.4197
 4624TIP3   OH235362   2.073   5.699   3.669  0.2095  0.5959  0.4230
 4624TIP3    H135363   1.991   5.743   3.689  0.8349  2.5239 -0.8922
 4624TIP3    H235364   2.141   5.761   3.696  1.2197 -0.6705  0.8753
 4625TIP3   OH235365   1.222   4.858  14.252  0.1789  0.1886  0.5502
 4625TIP3    H135366   1.235   4.793  14.183 -0.8936  1.9131 -1.3887
 4625TIP3    H235367   1.288   4.925  14.234  0.0126  0.5666  1.3151
 4626TIP3   OH235368   5.143   2.851   4.610  0.2042  0.3340 -0.6219
 4626TIP3    H135369   5.093   2.814   4.537  1.3468 -0.3429 -1.0966
 4626TIP3    H235370   5.226   2.879   4.570  0.4822  0.8029  0.2540
 4627TIP3   OH235371   1.938   6.205   0.708 -0.1006  0.9898  0.4980
 4627TIP3    H135372   1.849   6.201   0.742  0.6504 -0.1096  2.5112
 4627TIP3    H235373   1.939   6.143   0.635 -0.9355  0.8539  0.5918
 4628TIP3   OH235374   4.251   4.855   3.550  0.3143  0.1611  0.3049
 4628TIP3    H135375   4.247   4.871   3.456  0.4990 -1.7676 -0.0619
 4628TIP3    H235376   4.230   4.940   3.589 -0.4710  0.8339 -1.4625
 4629TIP3   OH235377   2.784   2.532  14.190 -0.1415  0.6875  0.2624
 4629TIP3    H135378   2.702   2.516  14.236 -0.6532 -0.5815 -1.0333
 4629TIP3    H235379   2.831   2.449  14.193 -0.3115  0.4764 -1.6987
 4630TIP3   OH235380   3.675   3.349  15.363 -0.0699 -0.2096 -0.0539
 4630TIP3    H135381   3.749   3.384  15.313  1.7974 -1.8441  1.4101
 4630TIP3    H235382   3.618   3.310  15.296  0.6279  0.6128 -1.1796
 4631TIP3   OH235383   5.135   3.829   3.074  0.2845  0.0616 -0.3335
 4631TIP3    H135384   5.072   3.830   3.003 -1.1510  2.5309  0.8156
 4631TIP3    H235385   5.151   3.737   3.092 -2.0764 -0.6403 -1.5049
 4632TIP3   OH235386   1.481   1.399  15.062  0.1763 -0.9315 -0.4749
 4632TIP3    H135387   1.403   1.352  15.035  0.8195 -1.4869 -1.4160
 4632TIP3    H235388   1.529   1.338  15.117 -0.2983 -0.3981  0.5658
 4633TIP3   OH235389   5.114   1.202   5.601 -0.2143  0.6421 -0.4884
 4633TIP3    H135390   5.077   1.289   5.617 -2.3182 -0.2028 -0.3378
 4633TIP3    H235391   5.159   1.210   5.517  1.8076  2.4522  0.6545
 4634TIP3   OH235392   0.504   2.305   3.298  0.3055  0.0684  0.0444
 4634TIP3    H135393   0.496   2.387   3.348 -1.0479  0.3235 -0.5492
 4634TIP3    H235394   0.488   2.331   3.207  0.9485 -0.6941 -0.3013
 4635TIP3   OH235395   3.013   0.339   2.921 -0.1475  0.2479  0.3420
 4635TIP3    H135396   2.954   0.383   2.982 -0.8563 -0.1850 -0.0244
 4635TIP3    H235397   3.022   0.250   2.956 -0.1544  0.1466  0.0848
 4636TIP3   OH235398   1.419   4.166   4.207  0.1702 -0.4316 -0.0774
 4636TIP3    H135399   1.375   4.084   4.231  2.3933 -1.3763  1.0493
 4636TIP3    H235400   1.462   4.147   4.124  0.3708 -0.2842 -0.0072
 4637TIP3   OH235401   1.228   1.077   4.667  0.4124  0.2084 -0.4264
 4637TIP3    H135402   1.139   1.113   4.657  1.1314  1.5651 -2.7103
 4637TIP3    H235403   1.259   1.064   4.577  2.3636 -0.7249  0.3220
 4638TIP3   OH235404   5.563   1.855  16.130  0.0288 -0.0517  0.2990
 4638TIP3    H135405   5.496   1.795  16.164  0.6674  0.2820  2.2762
 4638TIP3    H235406   5.644   1.805  16.134  0.2200  0.2095 -0.2024
 4639TIP3   OH235407   0.074   5.415  13.286  0.4692 -0.2422  0.3280
 4639TIP3    H135408   0.021   5.339  13.265  0.6000 -0.1135 -0.4801
 4639TIP3    H235409   0.011   5.479  13.319  0.4037 -0.8040  1.3431
 4640TIP3   OH235410   3.771   5.645  15.796 -0.1658  0.2224 -0.4361
 4640TIP3    H135411   3.689   5.626  15.750 -1.2549  1.5517  0.8296
 4640TIP3    H235412   3.747   5.714  15.859  2.2329  1.6598 -0.9606
 4641TIP3   OH235413   6.695   3.239  14.977  0.1641 -0.0916  0.8582
 4641TIP3    H135414   6.716   3.332  14.968  0.7824 -0.3826 -1.1294
 4641TIP3    H235415   6.605   3.232  14.946  0.4460 -0.2829  0.0597
 4642TIP3   OH235416   3.898   1.803   0.215  0.7787  0.0303 -0.6606
 4642TIP3    H135417   3.934   1.809   0.303  0.6649  0.0765 -0.6160
 4642TIP3    H235418   3.808   1.836   0.224  1.2455  1.4734 -1.0893
 4643TIP3   OH235419   2.027   4.808   5.321 -0.0950 -0.4160 -0.0566
 4643TIP3    H135420   2.112   4.851   5.313  0.8005 -2.1348 -0.1309
 4643TIP3    H235421   2.037   4.724   5.276 -1.2555 -1.4451  1.4586
 4644TIP3   OH235422   0.060   2.228  12.311 -0.1580 -0.3748 -0.2305
 4644TIP3    H135423   0.117   2.203  12.239 -0.6929  1.1415 -1.2501
 4644TIP3    H235424   0.119   2.252  12.382  0.5204  1.2172 -1.2803
 4645TIP3   OH235425   6.875   4.726  14.641 -0.6828  0.4247 -0.6010
 4645TIP3    H135426   6.857   4.635  14.663 -0.9826  0.3874 -0.9921
 4645TIP3    H235427   6.803   4.752  14.583 -0.4173  0.8028 -0.7694
 4646TIP3   OH235428   6.764   1.992  10.452  0.5036  0.5615  0.2442
 4646TIP3    H135429   6.829   2.060  10.468  0.5014  0.3334  1.3249
 4646TIP3    H235430   6.729   1.972  10.539 -0.1240 -0.1962 -0.1712
 4647TIP3   OH235431   6.279   5.113  16.229  1.1354  0.1604  0.4285
 4647TIP3    H135432   6.245   5.194  16.268  0.4355  0.0145  0.1371
 4647TIP3    H235433   6.205   5.077  16.181  2.0724  0.5333 -1.3716
 4648TIP3   OH235434   6.261   4.975  13.318  0.3102 -0.0929  0.3752
 4648TIP3    H135435   6.322   4.914  13.360 -1.0901 -0.5857  1.8042
 4648TIP3    H235436   6.201   4.919  13.268 -0.7463  0.0977  1.3816
 4649TIP3   OH235437   6.572   1.381   6.546  0.0227  0.3003  0.6713
 4649TIP3    H135438   6.640   1.448   6.551 -1.3311  1.7310  0.6485
 4649TIP3    H235439   6.620   1.298   6.542  1.7781  1.3018 -0.3146
 4650TIP3   OH235440   3.156   6.183   5.743 -0.3452  0.1549  0.3081
 4650TIP3    H135441   3.120   6.201   5.656  0.8131  1.8052  0.1105
 4650TIP3    H235442   3.113   6.245   5.801 -0.3821 -0.2564  0.7289
 4651TIP3   OH235443   4.371   0.544  12.511  0.0497  0.3668  0.0889
 4651TIP3    H135444   4.393   0.617  12.454 -0.5441  0.2452 -0.3070
 4651TIP3    H235445   4.413   0.565  12.595 -1.1304  1.7814  0.3696
 4652TIP3   OH235446   1.718   2.620  11.324  0.3516  0.2599 -0.5012
 4652TIP3    H135447   1.711   2.572  11.406 -0.4854 -1.6592 -1.6287
 4652TIP3    H235448   1.766   2.700  11.347 -0.0803 -0.0871  1.8714
 4653TIP3   OH235449   4.446   1.854   2.285 -0.7333  0.2614  0.3854
 4653TIP3    H135450   4.428   1.948   2.282  0.3510  0.4957  0.8219
 4653TIP3    H235451   4.421   1.827   2.373  0.8868  0.5741  0.9699
 4654TIP3   OH235452   1.154   6.044  14.562  0.5706 -0.4341  0.4072
 4654TIP3    H135453   1.247   6.030  14.578  1.3497  0.9569 -2.2927
 4654TIP3    H235454   1.149   6.129  14.518 -2.2445  0.5433  2.2792
 4655TIP3   OH235455   1.167   4.604  15.755  0.1968  0.0828  0.3388
 4655TIP3    H135456   1.239   4.594  15.693 -0.0259  0.0085  0.0926
 4655TIP3    H235457   1.204   4.659  15.825  0.6211 -0.3036  0.4277
 4656TIP3   OH235458   2.941   1.105  15.880  0.6230  0.4071  0.2226
 4656TIP3    H135459   2.853   1.107  15.842 -0.1099 -0.3083  1.7729
 4656TIP3    H235460   2.993   1.054  15.819 -0.4614 -0.5466  0.0694
 4657TIP3   OH235461   2.612   6.464  12.251 -0.6474 -0.2534  0.3176
 4657TIP3    H135462   2.532   6.485  12.299 -1.4436 -1.7681 -0.2735
 4657TIP3    H235463   2.631   6.373  12.274 -1.0232 -1.0206 -2.1110
 4658TIP3   OH235464   4.501   2.268  15.278  0.2326 -0.5442 -0.1757
 4658TIP3    H135465   4.430   2.321  15.314  1.8842  1.6110  0.1070
 4658TIP3    H235466   4.565   2.263  15.349  1.0836 -1.0477 -0.9636
 4659TIP3   OH235467   0.498   6.365   0.499 -0.1009 -0.0075  0.1444
 4659TIP3    H135468   0.469   6.288   0.449 -3.8996 -0.0575  2.0246
 4659TIP3    H235469   0.446   6.437   0.462  0.9642  1.0202  0.5932
 4660TIP3   OH235470   2.528   4.123  14.822  0.7595  0.3952 -0.0444
 4660TIP3    H135471   2.595   4.114  14.889  0.2073 -0.4091  0.4175
 4660TIP3    H235472   2.508   4.033  14.795  0.0264  0.6293 -0.3228
 4661TIP3   OH235473   5.167   2.739  12.078  0.3468  0.4081 -0.1757
 4661TIP3    H135474   5.106   2.777  12.014 -0.1571  1.1824  0.7358
 4661TIP3    H235475   5.195   2.657  12.038 -1.5369 -0.1346 -0.4957
 4662TIP3   OH235476   2.015   0.299  13.644  0.3129  0.6695 -0.1670
 4662TIP3    H135477   1.954   0.326  13.712  0.9490  1.0673  0.2554
 4662TIP3    H235478   1.992   0.208  13.626 -0.7070  0.9517 -0.3568
 4663TIP3   OH235479   0.241   4.903   3.925  0.2288 -0.0772  0.2602
 4663TIP3    H135480   0.292   4.912   3.844  0.8184  1.3792  0.7504
 4663TIP3    H235481   0.150   4.902   3.896  0.4208  0.6475 -0.4187
 4664TIP3   OH235482   2.720   5.086  16.883 -0.1339  0.8639  0.3412
 4664TIP3    H135483   2.671   5.020  16.835  1.3455  0.7692 -1.1534
 4664TIP3    H235484   2.774   5.037  16.944  2.8752  0.3063 -2.4983
 4665TIP3   OH235485   2.665   2.502   6.167 -0.1691 -0.7958  0.5760
 4665TIP3    H135486   2.739   2.542   6.212 -0.1124 -1.0340  0.6905
 4665TIP3    H235487   2.676   2.408   6.179  0.1232 -0.8922 -0.3653
 4666TIP3   OH235488   2.164   3.997   3.177 -0.1400 -0.6563 -0.5959
 4666TIP3    H135489   2.154   3.912   3.221  0.4967  0.6908  2.3917
 4666TIP3    H235490   2.237   4.039   3.222 -1.3469  2.0469 -0.9758
 4667TIP3   OH235491   0.875   2.492  11.663 -0.6182  0.1690  0.0861
 4667TIP3    H135492   0.956   2.479  11.713  0.5767 -0.4553 -1.8657
 4667TIP3    H235493   0.902   2.546  11.589 -1.8265 -0.6258 -0.9772
 4668TIP3   OH235494   3.014   0.589  11.827 -0.5565 -0.0154  0.0360
 4668TIP3    H135495   3.002   0.561  11.917 -0.1620  0.1083  0.1271
 4668TIP3    H235496   2.976   0.677  11.824  0.9226  0.6819  0.5096
 4669TIP3   OH235497   4.955   0.726  16.765  0.0723  0.1399  0.2935
 4669TIP3    H135498   4.953   0.645  16.713 -1.7211  0.9960 -1.1025
 4669TIP3    H235499   4.948   0.696  16.855 -0.4985 -1.2932 -0.1812
 4670TIP3   OH235500   6.315   6.513   4.403  0.3960 -0.2826 -0.5241
 4670TIP3    H135501   6.326   6.434   4.456  0.7881 -0.8347 -1.4076
 4670TIP3    H235502   6.229   6.547   4.429  0.7254 -0.3533  0.6956
 4671TIP3   OH235503   5.837   0.975  14.829 -0.0914 -0.2787 -0.4629
 4671TIP3    H135504   5.930   0.969  14.811 -0.3215 -1.5422 -1.3171
 4671TIP3    H235505   5.817   1.069  14.825  0.6187 -0.1859 -2.9995
 4672TIP3   OH235506   3.707   4.849  15.674  0.5427 -0.1080 -0.7045
 4672TIP3    H135507   3.740   4.925  15.721  0.0908 -1.2748  1.6722
 4672TIP3    H235508   3.769   4.835  15.603  2.3436  0.6564  0.6518
 4673TIP3   OH235509   1.066   5.791   3.559  0.0784 -0.2994 -0.8107
 4673TIP3    H135510   0.996   5.728   3.541 -0.9026 -0.0010  1.5095
 4673TIP3    H235511   1.025   5.855   3.617  2.1728  0.0978  0.3115
 4674TIP3   OH235512   5.680   2.618  16.009  0.3036  0.0154  0.5739
 4674TIP3    H135513   5.720   2.535  16.034 -1.0364 -0.9284 -0.2124
 4674TIP3    H235514   5.667   2.610  15.914  1.9472  1.9694  0.1280
 4675TIP3   OH235515   5.172   4.537  16.836 -0.1266  0.2809  0.1739
 4675TIP3    H135516   5.255   4.577  16.863 -0.6546  0.8877  0.9519
 4675TIP3    H235517   5.119   4.534  16.916 -0.1283 -1.9843  0.1646
 4676TIP3   OH235518   2.460   3.849  14.239 -0.0034  0.5249 -0.2139
 4676TIP3    H135519   2.432   3.873  14.328 -0.9405  0.8145 -0.5760
 4676TIP3    H235520   2.385   3.871  14.184 -0.0884 -1.1971 -0.8592
 4677TIP3   OH235521   3.243   2.263  15.961 -0.0574 -0.1388 -0.1881
 4677TIP3    H135522   3.247   2.181  16.011 -0.9620  0.2764  0.6035
 4677TIP3    H235523   3.290   2.326  16.016 -0.6497  0.2115 -0.0779
 4678TIP3   OH235524   5.456   0.123   3.639 -0.1303  0.0425  0.5374
 4678TIP3    H135525   5.364   0.104   3.619 -0.2753 -1.9061  2.6863
 4678TIP3    H235526   5.506   0.071   3.576 -0.4964  0.2093  0.1043
 4679TIP3   OH235527   4.808   5.779   2.412  0.5277 -0.0117  0.1337
 4679TIP3    H135528   4.722   5.758   2.448  1.1500 -0.6952  1.2779
 4679TIP3    H235529   4.807   5.739   2.324 -0.1207 -0.4987  0.3546
 4680TIP3   OH235530   5.056   2.480   4.509 -0.1308  0.3100  0.1915
 4680TIP3    H135531   4.992   2.425   4.464 -0.2018  1.2696 -0.9273
 4680TIP3    H235532   5.046   2.566   4.469  1.4685  0.6235  0.3873
 4681TIP3   OH235533   2.953   5.618  14.655 -0.0462 -0.3230  0.1063
 4681TIP3    H135534   3.024   5.562  14.685 -0.7424 -0.7020  1.0692
 4681TIP3    H235535   2.898   5.560  14.602  1.2558  0.3717 -2.1484
 4682TIP3   OH235536   2.694   5.040   0.208 -0.5373 -0.2780  0.2844
 4682TIP3    H135537   2.658   4.958   0.173 -0.4901 -0.7944  1.3867
 4682TIP3    H235538   2.776   5.013   0.250 -0.5539  0.3205  0.7078
 4683TIP3   OH235539   2.248   0.484   0.185 -0.4910  0.2732  0.4436
 4683TIP3    H135540   2.179   0.548   0.166  0.2827  0.9215 -0.2505
 4683TIP3    H235541   2.240   0.420   0.115 -0.3956  0.3413  0.3705
 4684TIP3   OH235542   3.285   5.360  12.258  0.3996 -0.0042 -0.1181
 4684TIP3    H135543   3.275   5.265  12.258  0.0562  0.0172  1.0815
 4684TIP3    H235544   3.348   5.379  12.327 -0.1139  0.6791  0.1852
 4685TIP3   OH235545   0.249   0.140  16.745 -0.2690  0.8153  0.0302
 4685TIP3    H135546   0.167   0.188  16.731 -0.0597  1.2768  0.3814
 4685TIP3    H235547   0.221   0.059  16.789 -0.6585  0.4518 -0.8585
 4686TIP3   OH235548   0.932   6.187  11.208  0.2197 -0.4825  0.2886
 4686TIP3    H135549   0.945   6.224  11.120 -0.3236 -1.2548 -0.1347
 4686TIP3    H235550   0.846   6.146  11.204 -0.9218  1.5917  1.9811
 4687TIP3   OH235551   2.539   5.650   5.412 -0.4917 -0.2420 -0.1838
 4687TIP3    H135552   2.629   5.675   5.393 -0.1115 -1.3126  0.1575
 4687TIP3    H235553   2.536   5.637   5.506 -0.9844 -0.3157 -0.2024
 4688TIP3   OH235554   4.322   2.668   1.718 -0.3882  0.1625 -0.2077
 4688TIP3    H135555   4.403   2.622   1.699 -1.1720 -1.0895 -0.6487
 4688TIP3    H235556   4.292   2.701   1.634 -0.7867 -0.1706 -0.2039
 4689TIP3   OH235557   0.883   5.811   2.214 -0.0447  0.5839 -0.5819
 4689TIP3    H135558   0.865   5.897   2.252  3.9417  0.2649  2.6887
 4689TIP3    H235559   0.967   5.822   2.169  0.3847 -1.5104 -0.3836
 4690TIP3   OH235560   4.279   3.558  13.590  0.5675 -0.0602  0.4364
 4690TIP3    H135561   4.296   3.652  13.578  0.0808 -0.1520 -1.3649
 4690TIP3    H235562   4.188   3.547  13.564  0.7956 -1.1169  0.0314
 4691TIP3   OH235563   4.656   5.284   4.059  0.2553  0.2396  0.2237
 4691TIP3    H135564   4.717   5.214   4.084 -0.5724 -0.2032  1.0877
 4691TIP3    H235565   4.595   5.242   3.999  1.7488  1.1022 -2.0386
 4692TIP3   OH235566   2.349   4.532   2.195 -0.2053  0.2823  0.0523
 4692TIP3    H135567   2.400   4.612   2.182 -0.5946  0.4730 -0.3182
 4692TIP3    H235568   2.332   4.500   2.107  2.7177 -2.0154  0.1775
 4693TIP3   OH235569   5.181   4.074   0.755 -0.2906  0.4802 -0.0594
 4693TIP3    H135570   5.108   4.128   0.786  1.3315  0.5927  4.3140
 4693TIP3    H235571   5.156   3.984   0.778  0.1977  0.3356 -0.0689
 4694TIP3   OH235572   2.349   1.723  12.581  0.1418  0.3019  0.3870
 4694TIP3    H135573   2.422   1.668  12.608  0.0977  0.3893  0.6878
 4694TIP3    H235574   2.386   1.811  12.575  0.6867 -0.0128 -1.9336
 4695TIP3   OH235575   6.858   2.177  13.177 -0.1226 -0.1098  0.2789
 4695TIP3    H135576   6.867   2.081  13.176 -1.3089 -0.2361  0.3759
 4695TIP3    H235577   6.779   2.194  13.127  0.6229  0.9150 -0.5958
 4696TIP3   OH235578   6.881   3.497   3.708  0.1525 -0.0346 -0.3104
 4696TIP3    H135579   6.909   3.447   3.632  0.0968  0.1750 -0.4722
 4696TIP3    H235580   6.859   3.431   3.774 -1.0337 -0.2782 -0.9089
 4697TIP3   OH235581   2.438   2.328   5.634  0.3967  0.3192  0.2895
 4697TIP3    H135582   2.453   2.402   5.694  0.7216  1.1596 -0.7958
 4697TIP3    H235583   2.490   2.348   5.557  0.0369 -0.7756 -0.2638
 4698TIP3   OH235584   2.001   4.856   3.294  0.7893  0.3041  0.0336
 4698TIP3    H135585   1.942   4.850   3.219  0.6896  3.8689 -0.3395
 4698TIP3    H235586   2.086   4.875   3.255  0.8430  1.6270  0.7466
 4699TIP3   OH235587   5.436   2.672  14.740 -0.1413 -0.5087 -0.4055
 4699TIP3    H135588   5.472   2.591  14.707  0.4785 -0.6981  0.6800
 4699TIP3    H235589   5.341   2.660  14.735 -0.0774 -0.5223 -2.0487
 4700TIP3   OH235590   3.972   0.813   1.124 -0.5428  0.2160  0.3346
 4700TIP3    H135591   4.034   0.886   1.114 -2.0788  1.4435 -0.6377
 4700TIP3    H235592   4.009   0.760   1.195  3.2710 -0.8731 -2.1700
 4701TIP3   OH235593   2.233   2.147  16.652  0.6033  0.9068 -0.0023
 4701TIP3    H135594   2.151   2.160  16.605  0.1322 -0.5793  0.3356
 4701TIP3    H235595   2.219   2.186  16.738 -0.8575 -1.7120  1.0899
 4702TIP3   OH235596   6.724   0.329   1.093 -0.3998  0.0017 -0.8671
 4702TIP3    H135597   6.645   0.279   1.110  1.4337 -2.0654  2.9127
 4702TIP3    H235598   6.766   0.283   1.021 -1.9847  0.4047 -2.0991
 4703TIP3   OH235599   6.192   3.658   2.018 -0.3771  0.0579  0.2559
 4703TIP3    H135600   6.219   3.728   2.076  0.1361  0.8589 -0.9139
 4703TIP3    H235601   6.272   3.607   2.002 -0.4069  0.1365 -0.1447
 4704TIP3   OH235602   0.216   2.584  16.496  0.7245  0.0436  0.8307
 4704TIP3    H135603   0.284   2.641  16.459 -1.4505  1.4968 -1.2810
 4704TIP3    H235604   0.208   2.513  16.433  0.6472 -0.4139  1.3555
 4705TIP3   OH235605   6.566   2.295   3.850  0.2778 -0.4866  0.4118
 4705TIP3    H135606   6.596   2.386   3.838  2.0286 -1.4037 -3.7536
 4705TIP3    H235607   6.546   2.290   3.944  0.3649  4.0619  0.9410
 4706TIP3   OH235608   6.274   0.716   2.875  0.8057 -0.6134 -0.1265
 4706TIP3    H135609   6.363   0.722   2.840  0.0084 -1.9300 -2.6521
 4706TIP3    H235610   6.220   0.691   2.800 -1.8109  0.5919  1.1873
 4707TIP3   OH235611   6.650   3.739  14.308 -0.0975  0.2469 -0.4055
 4707TIP3    H135612   6.661   3.759  14.401 -0.7618  0.8684 -0.4450
 4707TIP3    H235613   6.651   3.644  14.303 -0.0569  0.2097  0.2458
 4708TIP3   OH235614   4.163   3.247  13.916  0.3064  0.6164  0.0951
 4708TIP3    H135615   4.087   3.223  13.863  0.1634 -0.8700  0.9232
 4708TIP3    H235616   4.222   3.171  13.908  0.7114  0.8010  1.2600
 4709TIP3   OH235617   0.045   5.293  11.107 -0.0051 -1.1218 -0.1490
 4709TIP3    H135618   0.101   5.225  11.143 -0.8348 -1.6642  0.1629
 4709TIP3    H235619   0.005   5.335  11.183  0.0997 -0.6310 -0.3598
 4710TIP3   OH235620   3.472   6.217   2.495 -0.2329  0.2359  0.2026
 4710TIP3    H135621   3.480   6.134   2.542 -2.7228 -0.1850  0.0344
 4710TIP3    H235622   3.496   6.196   2.405  0.7245  0.1127  0.4748
 4711TIP3   OH235623   6.212   2.269  16.649  0.8088 -0.4996 -0.1074
 4711TIP3    H135624   6.219   2.184  16.693  2.1023 -1.1579 -1.4810
 4711TIP3    H235625   6.188   2.247  16.559 -3.7806  0.9130  0.5397
 4712TIP3   OH235626   2.416   2.086  15.067 -0.6923  0.0362  0.2513
 4712TIP3    H135627   2.496   2.117  15.109  0.1982 -0.9953 -0.6108
 4712TIP3    H235628   2.352   2.080  15.138 -0.1485  1.2704  0.8832
 4713TIP3   OH235629   2.365   2.616   3.482  0.0413  0.0157  0.6155
 4713TIP3    H135630   2.281   2.600   3.525  0.0604 -0.4853  0.4703
 4713TIP3    H235631   2.342   2.648   3.395  0.0013 -0.2158  0.5412
 4714TIP3   OH235632   0.735   5.101   0.562  0.2377  0.3472 -0.2875
 4714TIP3    H135633   0.671   5.069   0.498 -2.1147  0.9521  1.5882
 4714TIP3    H235634   0.777   5.022   0.595 -0.7291 -0.2440 -0.4126
 4715TIP3   OH235635   4.938   3.383  15.551 -0.0753  0.0045  0.0416
 4715TIP3    H135636   4.902   3.331  15.478 -1.5612  0.9984  0.0285
 4715TIP3    H235637   5.033   3.374  15.542 -0.2178 -3.1866  0.3927
 4716TIP3   OH235638   4.666   2.001  14.717 -0.2613 -0.4017  0.5705
 4716TIP3    H135639   4.695   2.092  14.710 -2.4075  0.2988 -0.0597
 4716TIP3    H235640   4.706   1.956  14.642 -0.5019  0.4178 -0.0574
 4717TIP3   OH235641   5.499   3.174   2.184 -0.4758 -0.5021  0.6571
 4717TIP3    H135642   5.418   3.199   2.228 -0.6717  0.8235 -0.4094
 4717TIP3    H235643   5.486   3.198   2.093  0.1911 -2.5651 -0.0297
 4718TIP3   OH235644   5.195   3.030  13.984  0.0482 -0.3672 -0.6126
 4718TIP3    H135645   5.218   2.954  14.037 -1.7501  0.4853  1.5922
 4718TIP3    H235646   5.115   3.004  13.938 -0.4361  0.0544 -0.0388
 4719TIP3   OH235647   3.886   1.419   5.675  0.2002 -0.2813  0.1720
 4719TIP3    H135648   3.858   1.477   5.746 -1.1471 -0.9358  0.2150
 4719TIP3    H235649   3.868   1.469   5.595  0.6105  0.0052  0.2598
 4720TIP3   OH235650   1.324   5.097  13.327  0.5928 -0.2171  0.7316
 4720TIP3    H135651   1.282   5.061  13.405 -0.4271  2.8778  1.7453
 4720TIP3    H235652   1.418   5.095  13.348  0.4351 -0.7262  1.4358
 4721TIP3   OH235653   1.164   2.956  13.177 -0.0778 -0.1958  0.1943
 4721TIP3    H135654   1.153   3.050  13.194 -0.2959 -0.3730  1.1181
 4721TIP3    H235655   1.195   2.921  13.261  0.2686 -0.9041 -0.2245
 4722TIP3   OH235656   4.866   1.047   2.889  0.3767  0.0483 -0.1178
 4722TIP3    H135657   4.916   1.113   2.843 -0.3832  1.1046  0.5304
 4722TIP3    H235658   4.924   1.015   2.958  0.8318 -0.1476 -0.5895
 4723TIP3   OH235659   1.904   1.423  10.450 -0.1624 -0.1603  0.2297
 4723TIP3    H135660   1.834   1.471  10.493  1.9558  2.3872  1.1338
 4723TIP3    H235661   1.917   1.467  10.366  1.2182  0.3597  0.6758
 4724TIP3   OH235662   6.015   3.468  13.946 -0.2248 -0.4578  0.4681
 4724TIP3    H135663   5.922   3.447  13.957 -0.6010  0.4085 -0.7779
 4724TIP3    H235664   6.015   3.563  13.932  0.8239 -0.5033  0.1512
 4725TIP3   OH235665   5.351   6.734  12.145 -0.2230 -0.0801  0.4317
 4725TIP3    H135666   5.394   6.817  12.125 -0.1338 -0.3618 -0.6343
 4725TIP3    H235667   5.348   6.730  12.240 -0.3542  1.2035  0.4909
 4726TIP3   OH235668   3.028   0.073  14.978 -0.3309 -0.1243 -0.4374
 4726TIP3    H135669   2.995  -0.016  14.962 -0.3594 -0.4815  1.3762
 4726TIP3    H235670   3.116   0.073  14.941  0.4220 -1.5675  1.2130
 4727TIP3   OH235671   6.697   1.309  16.782 -0.2686  0.0894  0.8173
 4727TIP3    H135672   6.755   1.319  16.707 -1.7000  0.9719 -0.2131
 4727TIP3    H235673   6.750   1.262  16.847  1.0995 -0.4405 -0.6145
 4728TIP3   OH235674   1.677   4.030  11.591  0.1872  0.3428 -0.6444
 4728TIP3    H135675   1.724   4.082  11.656  1.5877 -0.1720 -1.2156
 4728TIP3    H235676   1.611   4.090  11.556  0.7612  1.2588 -0.1946
 4729TIP3   OH235677   1.862   3.749  11.904 -0.3672  0.3640 -0.7655
 4729TIP3    H135678   1.857   3.729  11.998  0.8074  1.4313 -0.4476
 4729TIP3    H235679   1.872   3.844  11.901  1.1509  0.1867 -1.8992
 4730TIP3   OH235680   2.990   2.356  15.433  0.2254 -0.0998 -0.0065
 4730TIP3    H135681   2.897   2.376  15.440  0.3864  1.6473 -2.0980
 4730TIP3    H235682   3.023   2.365  15.523 -1.6722 -1.3592  0.8928
 4731TIP3   OH235683   5.888   4.356  16.576  0.5202 -0.8097 -0.0856
 4731TIP3    H135684   5.935   4.386  16.498 -0.3058  2.5599  0.5860
 4731TIP3    H235685   5.957   4.345  16.642  0.9419 -1.2454 -0.5844
 4732TIP3   OH235686   0.715   6.008  11.249  0.4940 -0.1197 -0.2487
 4732TIP3    H135687   0.701   5.991  11.342 -0.3805 -0.3723 -0.4210
 4732TIP3    H235688   0.651   5.952  11.204 -0.5988  1.6093 -0.9330
 4733TIP3   OH235689   6.816   0.818   4.880 -0.8108 -0.7922  0.3838
 4733TIP3    H135690   6.730   0.841   4.846 -0.6880 -0.4892  0.2754
 4733TIP3    H235691   6.866   0.789   4.803  0.0021  1.4825 -0.0058
 4734TIP3   OH235692   4.671   4.694  11.236  0.4321  1.0929  0.6730
 4734TIP3    H135693   4.623   4.752  11.178 -1.0381 -0.3784  0.3442
 4734TIP3    H235694   4.759   4.731  11.239 -0.2548  2.9151 -0.0557
 4735TIP3   OH235695   6.297   0.362  13.216 -0.4361  0.0677 -0.3285
 4735TIP3    H135696   6.356   0.437  13.221  1.1618 -0.9367 -2.5511
 4735TIP3    H235697   6.277   0.341  13.308 -0.0995  2.5156  0.3682
 4736TIP3   OH235698   3.993   6.483   2.628  0.0107 -0.4678  0.6111
 4736TIP3    H135699   3.916   6.524   2.587 -1.3833 -2.9991  0.4758
 4736TIP3    H235700   4.061   6.549   2.622 -1.1499  0.6405 -2.5433
 4737TIP3   OH235701   0.549   4.740   0.758 -0.2973  0.5264  0.1429
 4737TIP3    H135702   0.591   4.654   0.756  0.1892  0.7668 -0.1782
 4737TIP3    H235703   0.550   4.769   0.667  0.3085  1.2304  0.3611
 4738TIP3   OH235704   2.343   5.350  15.680  0.1521  0.4032 -0.0747
 4738TIP3    H135705   2.432   5.374  15.704  0.4421 -0.4740 -0.2321
 4738TIP3    H235706   2.293   5.359  15.761  0.9324 -1.6047  0.7084
 4739TIP3   OH235707   5.866   1.110   3.456 -0.3710 -0.2339 -0.0026
 4739TIP3    H135708   5.924   1.167   3.507 -0.4399 -0.5307  0.4133
 4739TIP3    H235709   5.778   1.142   3.475 -0.4470 -0.8290  0.6765
 4740TIP3   OH235710   4.937   6.443   1.770  0.0987 -0.0444 -0.0809
 4740TIP3    H135711   4.861   6.448   1.712  0.9318 -1.7488 -1.3901
 4740TIP3    H235712   4.967   6.534   1.776  0.1472  0.1906 -2.5958
 4741TIP3   OH235713   1.432   6.518   4.294  0.1316 -0.1610 -0.5239
 4741TIP3    H135714   1.410   6.435   4.251 -2.9833  0.3465 -0.1320
 4741TIP3    H235715   1.459   6.576   4.223  1.2620 -1.1357 -0.9330
 4742TIP3   OH235716   0.104   5.276  12.210  0.1984 -0.0183 -0.3066
 4742TIP3    H135717   0.087   5.207  12.274 -0.8135  0.4115 -0.0925
 4742TIP3    H235718   0.032   5.271  12.148 -0.8336  1.8760  0.6354
 4743TIP3   OH235719   2.908   2.785   4.524  0.3640 -0.3259  0.2512
 4743TIP3    H135720   2.838   2.746   4.574  1.1429 -0.2335  1.4543
 4743TIP3    H235721   2.864   2.834   4.454 -0.7048 -1.1080  0.3625
 4744TIP3   OH235722   0.269   2.222  16.801  0.6932 -0.1244  0.6409
 4744TIP3    H135723   0.248   2.314  16.783 -0.8141 -0.6542 -0.4851
 4744TIP3    H235724   0.318   2.193  16.725  0.3735 -0.4839  0.5671
 4745TIP3   OH235725   1.041   3.867  10.843 -0.4794  0.5041 -0.6157
 4745TIP3    H135726   1.015   3.941  10.898  2.0247  2.1476 -1.4780
 4745TIP3    H235727   1.109   3.822  10.894 -0.1983  0.3029 -1.1592
 4746TIP3   OH235728   3.854   2.307   1.280  0.5629  0.1357 -0.4476
 4746TIP3    H135729   3.860   2.363   1.203 -0.2689 -0.2148 -0.7879
 4746TIP3    H235730   3.879   2.220   1.248  0.8397  0.1156 -0.1733
 4747TIP3   OH235731   6.149   1.494   3.352 -0.0881  0.3297 -0.2806
 4747TIP3    H135732   6.237   1.517   3.383  0.0288 -0.5208  0.0618
 4747TIP3    H235733   6.101   1.576   3.351  0.0171  0.4640  1.8184
 4748TIP3   OH235734   5.482   5.473   3.744  0.3187 -0.1936 -0.3934
 4748TIP3    H135735   5.477   5.521   3.661  0.7853  1.4444  0.4650
 4748TIP3    H235736   5.574   5.447   3.751  0.0351 -1.3699 -0.9242
 4749TIP3   OH235737   3.776   0.470  16.350  0.0453  0.2868 -0.0093
 4749TIP3    H135738   3.814   0.518  16.276  0.1448  0.2920  0.0452
 4749TIP3    H235739   3.737   0.392  16.311 -0.5407  0.6535 -0.1584
 4750TIP3   OH235740   2.829   5.357   4.259  0.1780  0.2817  0.1669
 4750TIP3    H135741   2.796   5.274   4.293  0.1926  0.1174 -0.2175
 4750TIP3    H235742   2.876   5.396   4.333  1.9881 -1.0210 -0.2427
 4751TIP3   OH235743   6.880   3.205  15.217 -0.0889  0.8946 -0.1379
 4751TIP3    H135744   6.827   3.215  15.296 -0.4300  0.5123 -0.3121
 4751TIP3    H235745   6.817   3.182  15.149  0.2725  0.6493 -0.3939
 4752TIP3   OH235746   4.432   1.660  10.608  0.0173 -0.1476 -0.1327
 4752TIP3    H135747   4.495   1.589  10.622  1.4976  1.2134  0.3857
 4752TIP3    H235748   4.452   1.692  10.521  0.5355  0.7397  0.3016
 4753TIP3   OH235749   4.499   5.213   3.112 -0.7550  0.2990  0.4741
 4753TIP3    H135750   4.478   5.255   3.196 -1.1914  0.0750  0.4769
 4753TIP3    H235751   4.498   5.284   3.048 -1.0944  0.3578  0.5460
 4754TIP3   OH235752   1.897   4.127  16.420 -0.5316  0.3089 -0.0163
 4754TIP3    H135753   1.952   4.189  16.469 -0.6611 -0.4656  1.1552
 4754TIP3    H235754   1.841   4.087  16.486 -2.1821  0.7117 -1.1137
 4755TIP3   OH235755   6.419   5.134  15.266 -0.0035  0.1293 -0.1376
 4755TIP3    H135756   6.431   5.094  15.351  2.0817  0.6613 -0.1310
 4755TIP3    H235757   6.426   5.062  15.204  2.4541  0.1960 -0.0454
 4756TIP3   OH235758   4.910   6.027   2.314  0.0013  0.0985  0.3858
 4756TIP3    H135759   4.894   6.053   2.223  0.7425 -0.9198 -0.0525
 4756TIP3    H235760   4.889   5.934   2.316 -1.5031  0.4227  1.6456
 4757TIP3   OH235761   5.211   0.046  14.890 -0.2147  0.4012  0.1864
 4757TIP3    H135762   5.131   0.096  14.902  0.4529  1.7103 -0.6302
 4757TIP3    H235763   5.181  -0.043  14.872 -1.5453  1.1521 -1.5385
 4758TIP3   OH235764   1.214   5.328   4.282  0.1697 -0.3816 -0.3553
 4758TIP3    H135765   1.267   5.308   4.359 -1.2620 -0.3272  0.6753
 4758TIP3    H235766   1.170   5.246   4.260 -0.2667 -0.1304 -0.4418
 4759TIP3   OH235767   5.679   2.202  12.802 -0.0827  0.1452 -0.4393
 4759TIP3    H135768   5.614   2.210  12.872 -0.0670  0.0533 -0.4137
 4759TIP3    H235769   5.760   2.181  12.848  0.1127  0.9248 -0.4171
 4760TIP3   OH235770   2.896   3.420   0.245 -0.1112 -0.3389  0.1657
 4760TIP3    H135771   2.842   3.426   0.324  0.9827 -0.5541  0.9522
 4760TIP3    H235772   2.866   3.492   0.190 -0.4650  0.2159  1.0531
 4761TIP3   OH235773   5.337   3.586   3.815  0.0432 -0.4423  0.0330
 4761TIP3    H135774   5.414   3.642   3.801  0.2633 -0.9545 -0.8718
 4761TIP3    H235775   5.366   3.498   3.792 -0.8011 -0.6482 -0.3118
 4762TIP3   OH235776   3.848   5.222   3.209  0.7096  0.2255  0.1330
 4762TIP3    H135777   3.898   5.165   3.151  1.2004 -0.0167  0.7829
 4762TIP3    H235778   3.776   5.167   3.242  2.5451 -0.8701  2.6866
 4763TIP3   OH235779   4.315   4.460  15.713  0.1739 -0.1514  0.5452
 4763TIP3    H135780   4.278   4.547  15.731  0.3346  0.0929 -0.2791
 4763TIP3    H235781   4.347   4.430  15.798 -0.6608  0.2236  1.0025
 4764TIP3   OH235782   0.422   1.910   2.720 -0.1178 -0.1472  0.0079
 4764TIP3    H135783   0.364   1.877   2.651 -1.1645 -0.9601  1.2264
 4764TIP3    H235784   0.417   1.844   2.789  1.6821  0.1582  0.4689
 4765TIP3   OH235785   5.357   2.670   1.470 -0.1949  0.3423 -0.2379
 4765TIP3    H135786   5.370   2.738   1.404 -3.3128 -1.6859 -3.3085
 4765TIP3    H235787   5.395   2.591   1.432 -0.0678 -0.4809  1.4833
 4766TIP3   OH235788   6.241   3.869   3.376  0.1196  0.1589 -0.6812
 4766TIP3    H135789   6.285   3.950   3.351 -0.5521  1.1308  1.1374
 4766TIP3    H235790   6.243   3.815   3.297 -0.0385  2.2118 -2.1547
 4767TIP3   OH235791   6.718   5.328   4.526  0.2301 -0.2094 -0.2306
 4767TIP3    H135792   6.633   5.295   4.557  1.5530 -3.7498  0.1205
 4767TIP3    H235793   6.698   5.369   4.442 -1.9617  0.0866  0.3504
 4768TIP3   OH235794   3.412   2.409  14.270 -0.5658  0.2332  0.5828
 4768TIP3    H135795   3.430   2.455  14.189 -0.8555 -0.4820  0.1074
 4768TIP3    H235796   3.497   2.375  14.298 -0.6915 -0.7912 -0.2163
 4769TIP3   OH235797   6.170   2.004  12.726 -0.2697 -0.1636  0.0652
 4769TIP3    H135798   6.192   1.946  12.798  2.0400 -0.9409 -1.1466
 4769TIP3    H235799   6.095   1.962  12.683 -0.1194 -0.9841  0.5866
 4770TIP3   OH235800   3.178   3.782   4.886  0.3319 -0.3191  0.5908
 4770TIP3    H135801   3.273   3.787   4.897  0.4220 -2.6933  1.5384
 4770TIP3    H235802   3.142   3.833   4.959  0.6979  3.9925 -1.8952
 4771TIP3   OH235803   2.013   0.867   2.829 -0.6449  0.3510 -0.2495
 4771TIP3    H135804   1.942   0.808   2.855  1.5375 -1.7335  1.4235
 4771TIP3    H235805   2.004   0.875   2.734 -2.7110 -0.3387 -0.1613
 4772TIP3   OH235806   1.285   2.198  16.284  0.2639 -0.5396 -0.2752
 4772TIP3    H135807   1.245   2.123  16.328  1.0669  0.2655  1.9990
 4772TIP3    H235808   1.212   2.251  16.255 -0.3427 -0.7126  0.8699
 4773TIP3   OH235809   0.555   0.031   5.178  0.0620 -0.0699 -0.2315
 4773TIP3    H135810   0.625  -0.030   5.203 -0.9792 -1.8778 -1.4927
 4773TIP3    H235811   0.585   0.116   5.209  2.3861 -0.9412  0.1017
 4774TIP3   OH235812   5.182   3.904  15.564 -0.1105  0.1855  0.2927
 4774TIP3    H135813   5.125   3.960  15.617  0.4029 -0.4578  1.5638
 4774TIP3    H235814   5.212   3.961  15.493 -0.6102  1.1457  0.8294
 4775TIP3   OH235815   5.129   5.825   4.960  0.2418 -0.0858  0.0422
 4775TIP3    H135816   5.077   5.771   5.020 -2.8444  2.7988  0.2363
 4775TIP3    H235817   5.088   5.911   4.964  2.2641  1.2226 -3.4210
 4776TIP3   OH235818   5.391   3.240  14.442 -0.1404 -0.2706  0.4460
 4776TIP3    H135819   5.459   3.243  14.508  2.0717 -1.4618 -1.6202
 4776TIP3    H235820   5.436   3.258  14.359 -2.2936 -1.2132 -1.0428
 4777TIP3   OH235821   3.906   2.400   2.283 -0.5881 -0.0475 -0.1250
 4777TIP3    H135822   3.965   2.421   2.355 -1.5758 -0.0439  0.7142
 4777TIP3    H235823   3.819   2.412   2.320 -1.1563  2.0607 -1.9485
 4778TIP3   OH235824   2.501   1.595   0.926  0.3637 -0.8573 -0.1130
 4778TIP3    H135825   2.469   1.516   0.883 -0.9244 -0.7878  0.6405
 4778TIP3    H235826   2.430   1.619   0.986  0.9199  0.6202 -0.0113
 4779TIP3   OH235827   2.635   0.646   0.300 -0.7898 -0.7701  0.6290
 4779TIP3    H135828   2.730   0.648   0.289 -0.8875 -0.5292 -0.1854
 4779TIP3    H235829   2.604   0.726   0.258 -1.2612 -0.2767  1.8744
 4780TIP3   OH235830   4.358   1.083   3.087  0.1012 -0.2249  0.3865
 4780TIP3    H135831   4.325   1.151   3.147  0.6059  0.8542 -0.5172
 4780TIP3    H235832   4.452   1.081   3.104  0.0481 -0.9396  0.6258
 4781TIP3   OH235833   1.753   4.585   1.823  0.3314  0.0438  0.8987
 4781TIP3    H135834   1.729   4.631   1.743  0.5794  0.4341  1.0479
 4781TIP3    H235835   1.693   4.619   1.889 -0.3772 -0.8242  0.7245
 4782TIP3   OH235836   1.082   3.395   4.129  0.4732 -0.5092  0.0004
 4782TIP3    H135837   1.012   3.364   4.071  0.4891 -1.8753  0.6957
 4782TIP3    H235838   1.151   3.422   4.069 -0.6139  0.8919 -0.7030
 4783TIP3   OH235839   5.117   3.483  16.594 -0.6696  0.0999 -0.0639
 4783TIP3    H135840   5.119   3.522  16.681  1.2852  1.5561 -0.6812
 4783TIP3    H235841   5.187   3.418  16.595  0.2773  1.0586 -0.8883
 4784TIP3   OH235842   5.889   4.384  10.778  0.3562  0.8240  0.3138
 4784TIP3    H135843   5.826   4.441  10.735  0.0494  0.0100 -0.3404
 4784TIP3    H235844   5.974   4.410  10.742  0.0904  0.0780 -0.9019
 4785TIP3   OH235845   1.865   3.549  13.669  0.1068  0.0476  0.1660
 4785TIP3    H135846   1.883   3.510  13.755 -2.2479  1.8504  1.6018
 4785TIP3    H235847   1.814   3.482  13.623 -0.4493 -0.1265  1.0167
 4786TIP3   OH235848   2.482   1.162  15.692  0.2639  0.5262 -0.7653
 4786TIP3    H135849   2.519   1.129  15.773 -2.0428  1.9612  1.0133
 4786TIP3    H235850   2.543   1.231  15.664  0.1085  1.3932  0.9075
 4787TIP3   OH235851   5.456   1.828  14.252 -0.3624  0.1685  0.4325
 4787TIP3    H135852   5.417   1.856  14.169 -1.6344  0.2817  1.0449
 4787TIP3    H235853   5.424   1.892  14.316  0.5141  0.0187  1.0423
 4788TIP3   OH235854   4.272   4.271  13.912 -0.1140  0.4684  0.2832
 4788TIP3    H135855   4.278   4.347  13.853 -1.3092 -0.2056 -0.7507
 4788TIP3    H235856   4.255   4.310  13.998 -3.5022  1.4285 -0.6280
 4789TIP3   OH235857   4.645   3.766  14.573 -0.3666  0.0357 -0.3599
 4789TIP3    H135858   4.585   3.691  14.570 -0.4162 -0.0020  0.9401
 4789TIP3    H235859   4.601   3.833  14.521 -0.5674 -0.6538 -1.1082
 4790TIP3   OH235860   4.264   2.395   6.125  0.0021  0.2045 -0.3753
 4790TIP3    H135861   4.188   2.396   6.067 -0.5779  1.3645  0.3904
 4790TIP3    H235862   4.235   2.347   6.203 -0.5025  2.0096  0.6040
 4791TIP3   OH235863   3.147   1.607   4.466  0.2927 -0.3819 -0.4981
 4791TIP3    H135864   3.115   1.697   4.464  1.4844  0.0700  0.0793
 4791TIP3    H235865   3.167   1.590   4.558  2.1707 -0.4430 -0.8621
 4792TIP3   OH235866   1.769   5.803  12.215 -0.1821  0.3433 -0.1037
 4792TIP3    H135867   1.818   5.757  12.147  0.5518 -0.0270  0.6591
 4792TIP3    H235868   1.712   5.863  12.167  0.5024  0.2704 -1.0300
 4793TIP3   OH235869   0.084   6.390  15.962 -0.3531  0.4832 -0.1277
 4793TIP3    H135870   0.006   6.349  15.925  0.3648 -2.0733  0.9445
 4793TIP3    H235871   0.119   6.442  15.890 -1.2072 -1.0406 -1.7611
 4794TIP3   OH235872   5.167   3.584   6.261  0.0169  0.1241  0.8290
 4794TIP3    H135873   5.147   3.566   6.353  0.5444 -0.7272  0.7845
 4794TIP3    H235874   5.202   3.502   6.228 -0.1921  0.4187 -0.1466
 4795TIP3   OH235875   6.408   3.556  12.602  0.0172  0.6470 -0.1514
 4795TIP3    H135876   6.402   3.528  12.693 -0.9511  1.0374 -0.0851
 4795TIP3    H235877   6.495   3.595  12.594  0.5151 -0.3273  0.3268
 4796TIP3   OH235878   5.536   6.653  16.481  0.1442 -0.5102 -0.0461
 4796TIP3    H135879   5.509   6.744  16.469  0.9453  0.1088  2.3974
 4796TIP3    H235880   5.464   6.602  16.445 -1.2763  1.0879  0.4047
 4797TIP3   OH235881   4.340   0.949   4.451 -0.4641 -0.3055 -0.4760
 4797TIP3    H135882   4.395   0.989   4.518 -0.6709 -1.1003  0.1693
 4797TIP3    H235883   4.337   0.856   4.473 -0.8015 -0.5276 -1.3970
 4798TIP3   OH235884   3.334   4.500  14.931 -0.0189 -0.1229 -0.0585
 4798TIP3    H135885   3.313   4.593  14.923  0.0433 -0.0202  0.8862
 4798TIP3    H235886   3.359   4.489  15.023 -1.1797 -1.3048  0.1453
 4799TIP3   OH235887   0.211   5.813  16.086  0.2748 -0.2477 -0.2165
 4799TIP3    H135888   0.153   5.885  16.063 -0.6720 -0.4767  1.3407
 4799TIP3    H235889   0.282   5.818  16.022  0.2205  2.0318 -0.1536
 4800TIP3   OH235890   0.972   6.578  12.748  0.2163 -0.1847 -1.0395
 4800TIP3    H135891   1.035   6.605  12.681  2.0829 -2.3005 -0.2680
 4800TIP3    H235892   0.960   6.484  12.734  0.1500 -0.5689  1.1580
 4801TIP3   OH235893   4.944   6.370   0.313 -0.2665  0.9283  0.0277
 4801TIP3    H135894   4.943   6.466   0.316 -0.5603  0.9359 -0.2589
 4801TIP3    H235895   4.969   6.343   0.401  0.2906  1.2776 -0.0168
 4802TIP3   OH235896   4.031   4.066   4.835 -0.1190  0.1767  0.0753
 4802TIP3    H135897   4.109   4.011   4.848 -0.7260 -0.7146  0.0318
 4802TIP3    H235898   3.959   4.003   4.825 -0.8997  0.9922  0.4614
 4803TIP3   OH235899   5.044   6.094   4.197  0.3501 -0.3653 -0.3107
 4803TIP3    H135900   5.055   6.004   4.168 -1.2720 -1.0503  1.0645
 4803TIP3    H235901   5.084   6.097   4.284  0.2617  0.2035 -0.2861
 4804TIP3   OH235902   6.064   4.326  16.769 -0.5213  0.2901  0.0543
 4804TIP3    H135903   6.048   4.404  16.822 -0.5600 -1.3219  2.5911
 4804TIP3    H235904   6.086   4.258  16.833  1.2909 -1.3640 -2.1736
 4805TIP3   OH235905   4.091   2.660   5.741  0.3179 -0.1542  0.5455
 4805TIP3    H135906   4.155   2.706   5.795  0.3423 -0.4435  0.7600
 4805TIP3    H235907   4.077   2.576   5.784  1.2987 -0.9294 -0.5893
 4806TIP3   OH235908   1.741   5.839   3.111  0.0461  0.4598 -0.1651
 4806TIP3    H135909   1.794   5.775   3.064 -1.3872  0.2667 -1.6235
 4806TIP3    H235910   1.714   5.794   3.191  0.4796 -0.1264 -0.3444
 4807TIP3   OH235911   2.231   3.990  16.960  0.5715 -0.2818  0.0353
 4807TIP3    H135912   2.145   4.031  16.960  0.5586 -0.2710 -1.2945
 4807TIP3    H235913   2.272   4.020  17.041 -0.4878  0.0953  0.4521
 4808TIP3   OH235914   6.111   5.883   4.078 -0.3089  0.8022  0.2610
 4808TIP3    H135915   6.106   5.889   4.174 -1.2541  1.2285  0.1980
 4808TIP3    H235916   6.199   5.851   4.061 -0.0642  0.8880  1.2710
 4809TIP3   OH235917   3.121   2.548   5.615 -0.7009 -0.0652  0.4767
 4809TIP3    H135918   3.084   2.569   5.529  2.0459  1.1121 -0.5453
 4809TIP3    H235919   3.097   2.457   5.630  1.0342 -1.2638 -2.9013
 4810TIP3   OH235920   0.046   5.856   2.072  0.0176 -0.2283 -0.5918
 4810TIP3    H135921   0.012   5.917   2.137  0.1854 -1.8065  1.0630
 4810TIP3    H235922   0.093   5.790   2.123  1.7836 -0.5286 -2.4667
 4811TIP3   OH235923   1.408   0.842   5.040  0.5331  0.3176  0.2295
 4811TIP3    H135924   1.396   0.911   5.105  0.9080  0.7978 -0.2033
 4811TIP3    H235925   1.331   0.848   4.984  0.6453  0.4920  0.0940
 4812TIP3   OH235926   3.861   6.580   3.481 -0.4845 -0.0168 -0.2097
 4812TIP3    H135927   3.930   6.639   3.510 -0.8665  0.3311  0.0014
 4812TIP3    H235928   3.831   6.537   3.561 -0.3644 -0.3312 -0.3311
 4813TIP3   OH235929   4.402   4.730   5.686 -0.1793  0.0668 -0.1965
 4813TIP3    H135930   4.307   4.722   5.697 -0.4033  2.0521 -0.4465
 4813TIP3    H235931   4.419   4.823   5.691  1.6959 -0.2066 -0.8217
 4814TIP3   OH235932   0.294   1.395   5.935  0.0771 -0.1223 -0.3349
 4814TIP3    H135933   0.271   1.478   5.977 -0.0928 -0.3477  0.0339
 4814TIP3    H235934   0.250   1.329   5.989 -0.9914 -0.3634 -1.4533
 4815TIP3   OH235935   0.618   3.051   4.472 -0.2551  0.0250  0.7726
 4815TIP3    H135936   0.648   3.047   4.563 -0.5254  0.1293  0.8690
 4815TIP3    H235937   0.538   3.104   4.476 -1.1061 -1.2186  0.7041
 4816TIP3   OH235938   2.303   1.724  14.416  0.7501  0.3480 -0.3026
 4816TIP3    H135939   2.335   1.744  14.328  0.6016  2.2098  0.0227
 4816TIP3    H235940   2.231   1.785  14.429 -1.4567 -2.1570 -0.1126
 4817TIP3   OH235941   3.155   3.493   1.127  0.5734 -0.5359 -0.3229
 4817TIP3    H135942   3.249   3.510   1.123  0.5001 -0.1454 -0.4203
 4817TIP3    H235943   3.120   3.566   1.178 -0.3319  2.1353 -4.3367
 4818TIP3   OH235944   0.884   0.573  11.360  0.1623  0.2963  0.1369
 4818TIP3    H135945   0.906   0.481  11.374  1.0667  0.6746  1.3964
 4818TIP3    H235946   0.962   0.621  11.387 -0.5349  1.4671  0.1570
 4819TIP3   OH235947   3.581   6.868   3.805 -0.0452 -0.0054 -0.6298
 4819TIP3    H135948   3.508   6.875   3.743 -0.5317 -0.8080 -0.1665
 4819TIP3    H235949   3.602   6.775   3.808  1.0004  0.2144 -0.7412
 4820TIP3   OH235950   6.447   5.988  16.981  0.0688  0.2633 -0.0358
 4820TIP3    H135951   6.421   6.056  16.919 -2.1730 -1.1225 -0.7149
 4820TIP3    H235952   6.390   6.002  17.057  0.9489  0.2845  0.6514
 4821TIP3   OH235953   2.038   1.325  13.025  0.5090  0.4141 -0.3389
 4821TIP3    H135954   2.019   1.335  13.119 -1.5605 -0.4904 -0.6098
 4821TIP3    H235955   2.132   1.339  13.019  0.4216  2.4814  1.5783
 4822TIP3   OH235956   4.827   1.120  13.809  0.6988  0.2221  0.2492
 4822TIP3    H135957   4.815   1.164  13.893  2.3262 -0.0126  0.6285
 4822TIP3    H235958   4.783   1.036  13.820 -0.6848  0.9007  0.2023
 4823TIP3   OH235959   2.549   2.986   5.560 -0.2586 -0.4878  0.0239
 4823TIP3    H135960   2.599   3.052   5.511  3.1671 -0.8372  2.6098
 4823TIP3    H235961   2.537   3.026   5.647  0.8606 -2.6909  1.2820
 4824TIP3   OH235962   6.518   0.729  15.818 -0.0248  0.5149  0.1034
 4824TIP3    H135963   6.556   0.641  15.817 -1.7303 -0.3253  1.9676
 4824TIP3    H235964   6.489   0.743  15.728  0.5995 -0.6691 -0.3055
 4825TIP3   OH235965   2.242   6.277   0.453 -0.3706  0.0707 -0.5046
 4825TIP3    H135966   2.218   6.321   0.371 -2.5013 -0.8548 -0.4544
 4825TIP3    H235967   2.195   6.326   0.520  0.3664  0.0624  0.0218
 4826TIP3   OH235968   5.520   3.163   1.285  0.0547 -0.4988  0.4253
 4826TIP3    H135969   5.530   3.135   1.194 -1.6297 -0.8451  0.3136
 4826TIP3    H235970   5.605   3.201   1.308  1.0802 -1.9744 -0.7320
 4827TIP3   OH235971   0.245   3.734  15.590  0.5188 -0.2858  0.2141
 4827TIP3    H135972   0.226   3.790  15.665  2.7024  1.0743 -0.1924
 4827TIP3    H235973   0.322   3.684  15.615 -0.2948 -1.8046 -0.1511
 4828TIP3   OH235974   4.338   3.873   5.345 -0.0799  0.2746 -0.0651
 4828TIP3    H135975   4.354   3.958   5.386 -0.8673  0.4257 -0.0731
 4828TIP3    H235976   4.256   3.884   5.297 -2.4154 -1.5931  3.1082
 4829TIP3   OH235977   3.300   2.568  15.217  0.3673 -0.0502 -0.1804
 4829TIP3    H135978   3.229   2.589  15.277 -0.0163 -0.9619 -0.3078
 4829TIP3    H235979   3.323   2.652  15.177 -0.1996  0.3543  0.3301
 4830TIP3   OH235980   6.502   5.459  16.676 -0.2346  0.4148  0.1046
 4830TIP3    H135981   6.451   5.533  16.710 -0.6016 -0.4678  1.5891
 4830TIP3    H235982   6.589   5.496  16.660 -1.0485  1.7345 -1.6123
 4831TIP3   OH235983   3.081   1.843   5.372  0.3678 -0.2552 -0.0597
 4831TIP3    H135984   3.123   1.883   5.448  0.3871  0.5344 -0.4795
 4831TIP3    H235985   2.994   1.820   5.403  0.2217  0.4631  0.0866
 4832TIP3   OH235986   1.023   1.811  16.853 -0.0523 -0.0661 -0.3762
 4832TIP3    H135987   1.064   1.881  16.802  0.0947 -0.1762 -0.4090
 4832TIP3    H235988   1.084   1.795  16.925 -0.7216  0.7788  0.4104
 4833TIP3   OH235989   5.561   3.379  12.542  0.1341 -0.0663 -0.1612
 4833TIP3    H135990   5.490   3.438  12.568 -0.4507 -0.5740 -0.5790
 4833TIP3    H235991   5.616   3.432  12.485 -0.7463 -0.1040 -1.0606
 4834TIP3   OH235992   6.339   4.513   1.839 -0.3862 -0.0450  0.3406
 4834TIP3    H135993   6.273   4.513   1.909  0.1018  3.0940  0.9583
 4834TIP3    H235994   6.290   4.487   1.761 -1.4740 -1.3980  1.4149
 4835TIP3   OH235995   6.023   6.412   1.626 -0.2942 -0.7216  0.2465
 4835TIP3    H135996   6.070   6.329   1.613  0.7919 -0.1951  0.6402
 4835TIP3    H235997   6.076   6.459   1.690 -0.9422  0.2510  0.0878
 4836TIP3   OH235998   2.512   1.615   4.805  0.4092  0.1170 -0.4791
 4836TIP3    H135999   2.522   1.533   4.854 -2.4207 -0.5164 -0.7519
 4836TIP3    H236000   2.537   1.684   4.866  0.6648 -0.8336  0.5158
 4837TIP3   OH236001   2.541   6.446   4.354  0.5420  0.1806  0.3318
 4837TIP3    H136002   2.468   6.468   4.412  0.1259  1.2358 -0.5637
 4837TIP3    H236003   2.524   6.495   4.274  1.8489 -0.1462 -0.1710
 4838TIP3   OH236004   0.438   1.636  10.726 -0.0544  0.3460 -0.5250
 4838TIP3    H136005   0.530   1.663  10.726 -0.1995  0.8527 -1.2998
 4838TIP3    H236006   0.398   1.685  10.655 -0.9102  0.0521 -0.2609
 4839TIP3   OH236007   5.027   3.763  16.047  0.2702  0.0779 -0.9196
 4839TIP3    H136008   4.994   3.745  15.959 -1.2804 -0.0270 -0.3415
 4839TIP3    H236009   5.092   3.694  16.062 -0.8285 -1.0805 -1.2669
 4840TIP3   OH236010   6.416   2.850   3.613 -1.2461 -0.0304 -0.3378
 4840TIP3    H136011   6.415   2.772   3.558  0.4844  0.0253 -0.5119
 4840TIP3    H236012   6.431   2.922   3.552 -1.7657  0.3175 -0.0590
 4841TIP3   OH236013   0.983   2.674   2.881  0.2067  0.6645 -0.1925
 4841TIP3    H136014   0.912   2.620   2.916 -0.2076  2.1120  1.3593
 4841TIP3    H236015   0.940   2.732   2.819  0.1276  1.1005  0.2614
 4842TIP3   OH236016   3.673   1.334   3.702 -0.2960 -0.1448 -0.2788
 4842TIP3    H136017   3.644   1.249   3.734 -0.8912 -0.0353 -0.5130
 4842TIP3    H236018   3.672   1.391   3.778 -0.6929 -0.1456 -0.2818
 4843TIP3   OH236019   6.246   4.939  12.201 -0.2327 -0.1237 -0.3909
 4843TIP3    H136020   6.292   4.862  12.237  0.9873  0.0292 -1.5486
 4843TIP3    H236021   6.229   4.994  12.277 -2.8701 -2.3190  0.8070
 4844TIP3   OH236022   5.958   0.849   1.861 -0.4021  0.4136 -0.0861
 4844TIP3    H136023   5.976   0.846   1.767  1.2656  0.7170  0.1845
 4844TIP3    H236024   5.884   0.789   1.873 -0.1241 -0.2549 -1.4838
 4845TIP3   OH236025   5.190   4.827   4.645  0.1075  0.3906  0.6849
 4845TIP3    H136026   5.146   4.742   4.642 -1.3918  1.1607 -0.0124
 4845TIP3    H236027   5.281   4.807   4.623 -0.3639 -0.9537 -0.1524
 4846TIP3   OH236028   1.572   6.671   4.564  0.6740 -0.1074  0.0900
 4846TIP3    H136029   1.510   6.743   4.566 -2.0293 -2.1198 -2.5850
 4846TIP3    H236030   1.637   6.697   4.498  1.4420  1.0522  1.2679
 4847TIP3   OH236031   5.730   1.212   4.063 -0.1987 -0.1857  0.2178
 4847TIP3    H136032   5.784   1.240   4.137  0.8451  3.4389 -1.6800
 4847TIP3    H236033   5.640   1.222   4.094  0.2191  0.5934  1.2487
 4848TIP3   OH236034   5.780   2.938  16.867 -0.1812  0.1037 -0.0030
 4848TIP3    H136035   5.812   2.888  16.792  1.2581  1.6849 -0.5183
 4848TIP3    H236036   5.821   2.897  16.942  0.8233  0.3368 -0.4029
 4849TIP3   OH236037   1.364   6.671  17.018  0.0622 -0.8631 -0.3007
 4849TIP3    H136038   1.377   6.612  17.092 -2.1610 -2.6275 -1.2174
 4849TIP3    H236039   1.452   6.684  16.983  1.0850 -0.5012  2.2026
 4850TIP3   OH236040   0.764   2.793   0.413  0.3649  0.1738 -0.0795
 4850TIP3    H136041   0.816   2.797   0.333 -0.1512 -1.7038 -0.5734
 4850TIP3    H236042   0.809   2.850   0.474  1.8700  0.1435 -1.1061
 4851TIP3   OH236043   1.787   5.027  12.345  0.1973  0.1479  0.2854
 4851TIP3    H136044   1.868   4.995  12.386  0.0815  0.0820  0.4640
 4851TIP3    H236045   1.780   4.977  12.264  0.5829  0.4881  0.0375
 4852TIP3   OH236046   5.711   2.359  10.794 -0.3199 -0.4245 -0.0883
 4852TIP3    H136047   5.798   2.346  10.757 -0.3851  1.3462 -0.9449
 4852TIP3    H236048   5.726   2.403  10.878 -0.4096  2.9279 -1.6785
 4853TIP3   OH236049   1.165   3.115  15.605 -0.0703  0.5496 -0.0012
 4853TIP3    H136050   1.237   3.129  15.667 -0.4557  0.7584  0.4014
 4853TIP3    H236051   1.199   3.050  15.544  0.8794  1.4453 -0.4732
 4854TIP3   OH236052   3.958   5.790  15.617  0.2106 -0.2406 -0.3520
 4854TIP3    H136053   4.010   5.860  15.655 -0.4738  0.5623 -0.8488
 4854TIP3    H236054   3.886   5.777  15.679  0.1158 -0.2167 -0.4554
 4855TIP3   OH236055   5.809   2.833   0.659  0.1408 -0.0093 -0.4068
 4855TIP3    H136056   5.830   2.798   0.745 -0.3497 -0.0190 -0.2895
 4855TIP3    H236057   5.804   2.756   0.602 -0.9990 -0.1404 -0.1361
 4856TIP3   OH236058   3.799   0.638  14.658  0.1415  0.4051 -0.2418
 4856TIP3    H136059   3.791   0.705  14.726  1.7249  0.9848 -0.5936
 4856TIP3    H236060   3.893   0.624  14.648 -0.0071  0.6680 -2.6085
 4857TIP3   OH236061   0.722   2.680  15.984  0.4220  0.0203 -0.0079
 4857TIP3    H136062   0.755   2.646  15.900 -1.2115  0.8736 -1.0640
 4857TIP3    H236063   0.701   2.772  15.966  0.7759  0.4418  1.5805
 4858TIP3   OH236064   3.745   5.338   2.566 -0.0152  0.3292  0.6027
 4858TIP3    H136065   3.746   5.374   2.478  0.5762 -0.3813  0.3104
 4858TIP3    H236066   3.684   5.264   2.562 -0.2194  0.4770  0.8732
 4859TIP3   OH236067   5.051   2.755   1.348 -0.3296 -0.0778  0.1009
 4859TIP3    H136068   5.000   2.674   1.357  0.4554 -0.7466 -1.0814
 4859TIP3    H236069   5.125   2.730   1.293  0.5123  1.2067  0.5962
 4860TIP3   OH236070   5.132   2.399  11.918 -0.0500 -0.4147 -0.1243
 4860TIP3    H136071   5.226   2.391  11.903 -0.1939  0.2081 -1.4951
 4860TIP3    H236072   5.097   2.312  11.899  0.1776 -0.4806 -0.2424
 4861TIP3   OH236073   3.619   6.025   6.310 -0.0924  0.0906 -0.1797
 4861TIP3    H136074   3.670   6.071   6.243  1.4316 -1.3534 -0.0837
 4861TIP3    H236075   3.529   6.053   6.295  0.7865  3.7948  0.4729
 4862TIP3   OH236076   3.911   0.788  12.325  0.4616  0.5195 -0.4480
 4862TIP3    H136077   3.975   0.717  12.327 -1.0303 -0.8667 -0.2481
 4862TIP3    H236078   3.913   0.818  12.234  3.2827  2.3759  0.0826
 4863TIP3   OH236079   0.856   5.592   1.945 -0.1759 -0.1765  0.0681
 4863TIP3    H136080   0.812   5.646   2.012  1.1191  0.4688  0.4333
 4863TIP3    H236081   0.883   5.513   1.992  0.0171 -0.0844  0.1134
 4864TIP3   OH236082   5.277   5.073   6.662 -0.6408  0.2988  1.0049
 4864TIP3    H136083   5.182   5.078   6.648 -0.5673  0.5016  0.5671
 4864TIP3    H236084   5.299   4.982   6.640 -0.3124  0.9438 -1.6609
 4865TIP3   OH236085   4.490   4.101   0.488  0.3420 -0.1787 -0.2014
 4865TIP3    H136086   4.499   4.012   0.522  1.4456  0.0765  0.2288
 4865TIP3    H236087   4.580   4.135   0.486  0.1821  0.2273 -2.2856
 4866TIP3   OH236088   5.101   4.968   2.100 -0.2319  0.4757  0.0764
 4866TIP3    H136089   5.123   4.880   2.129  0.6083  0.4009 -0.7607
 4866TIP3    H236090   5.016   4.959   2.056 -0.0851  0.0576 -0.1244
 4867TIP3   OH236091   5.046   4.797   1.672  0.0242 -0.1594 -0.3269
 4867TIP3    H136092   5.027   4.868   1.733 -1.6636 -1.3422  0.5875
 4867TIP3    H236093   4.972   4.737   1.680  0.0062 -0.6696 -3.1091
 4868TIP3   OH236094   4.906   2.455  12.411  0.1343 -0.2311  0.3189
 4868TIP3    H136095   4.843   2.404  12.360 -0.6292 -0.8605  1.8526
 4868TIP3    H236096   4.987   2.449  12.360 -1.0510  0.9146 -1.8938
 4869TIP3   OH236097   5.274   0.912  12.437 -0.0076  0.5451  0.0213
 4869TIP3    H136098   5.215   0.960  12.380 -0.2219  1.4696  0.9922
 4869TIP3    H236099   5.329   0.861  12.378 -1.1117  0.4440 -0.9355
 4870TIP3   OH236100   4.221   5.607  15.130 -0.5602  0.4075 -0.4136
 4870TIP3    H136101   4.136   5.612  15.086 -0.1269  1.2080 -1.1966
 4870TIP3    H236102   4.200   5.617  15.222 -1.4852 -1.2463 -0.3997
 4871TIP3   OH236103   3.634   4.641   3.908  0.7618 -0.0342  0.2421
 4871TIP3    H136104   3.655   4.719   3.857  1.6310  0.2553  1.0259
 4871TIP3    H236105   3.706   4.631   3.969 -0.5321 -0.0144  1.8481
 4872TIP3   OH236106   1.827   0.496   2.483  0.0421 -0.2338 -0.4034
 4872TIP3    H136107   1.813   0.453   2.399 -1.0002 -0.4705 -0.1253
 4872TIP3    H236108   1.884   0.436   2.531 -0.9863 -1.0999 -0.2124
 4873TIP3   OH236109   2.793   5.474   6.135 -0.5488  0.0534  0.1907
 4873TIP3    H136110   2.736   5.538   6.177  0.4768  0.1398  1.5327
 4873TIP3    H236111   2.762   5.390   6.167 -1.3429 -0.0931 -0.8914
 4874TIP3   OH236112   3.485   5.579  10.407 -0.3802  0.1292 -0.2222
 4874TIP3    H136113   3.474   5.667  10.371 -1.4512  0.4013  0.6898
 4874TIP3    H236114   3.561   5.586  10.465  0.0097  0.2413 -0.7359
 4875TIP3   OH236115   2.302   1.698  13.393  0.8981  0.0104 -0.2378
 4875TIP3    H136116   2.296   1.666  13.303  2.1408  0.3951 -0.4702
 4875TIP3    H236117   2.299   1.619  13.447 -1.1264 -0.1543 -0.5153
 4876TIP3   OH236118   1.939   3.824   5.922  0.3898 -0.1753 -0.4284
 4876TIP3    H136119   2.011   3.845   5.981 -2.1255  1.4107  2.4129
 4876TIP3    H236120   1.954   3.880   5.846  1.8107  0.6056  0.3719
 4877TIP3   OH236121   2.233   0.737   2.644 -0.1497  0.8974  0.2422
 4877TIP3    H136122   2.142   0.754   2.665  0.0042  2.1575 -0.0285
 4877TIP3    H236123   2.282   0.800   2.698  0.4509  1.4624 -0.9256
 4878TIP3   OH236124   4.055   1.009   1.951 -0.1500  0.1331  0.1413
 4878TIP3    H136125   4.043   0.951   2.027  0.9702 -0.4141 -0.0681
 4878TIP3    H236126   4.016   1.092   1.978 -0.7476 -0.3752  0.8970
 4879TIP3   OH236127   5.133   1.029   0.525  0.5620  0.3609  0.1810
 4879TIP3    H136128   5.085   1.006   0.446  0.4319 -0.7382  0.5671
 4879TIP3    H236129   5.173   0.948   0.554 -0.1938  0.5043  1.7853
 4880TIP3   OH236130   5.407   2.660   5.281  0.2978 -0.1815  0.1726
 4880TIP3    H136131   5.401   2.736   5.339  0.7664 -0.9466  1.2672
 4880TIP3    H236132   5.418   2.697   5.194  0.0945  1.0062  0.6320
 4881TIP3   OH236133   4.248   1.348  13.274 -0.1744 -0.0706  0.6519
 4881TIP3    H136134   4.165   1.396  13.274  0.3239  0.8941 -1.0671
 4881TIP3    H236135   4.223   1.257  13.287 -1.2931  0.4367  2.3893
 4882TIP3   OH236136   0.419   5.479   3.239  0.5623 -0.5830  0.0379
 4882TIP3    H136137   0.355   5.473   3.309  0.6279  0.6761  0.2162
 4882TIP3    H236138   0.470   5.398   3.247 -1.8538 -2.3501 -1.0125
 4883TIP3   OH236139   2.069   0.001   2.232 -0.1904 -0.0511 -0.1782
 4883TIP3    H136140   2.011  -0.066   2.269 -0.3757 -0.0782 -0.5129
 4883TIP3    H236141   2.130  -0.048   2.176  2.0466 -0.4026  2.3878
 4884TIP3   OH236142   4.044   4.479   2.873 -0.3488  0.5571  0.5918
 4884TIP3    H136143   4.101   4.489   2.949  0.7014  4.0946 -0.4253
 4884TIP3    H236144   3.955   4.485   2.908  0.1134  3.5022  1.5761
 4885TIP3   OH236145   4.536   0.941   2.912 -0.1334  0.2228 -0.0821
 4885TIP3    H136146   4.461   0.951   2.970  0.7737  0.2059  1.1367
 4885TIP3    H236147   4.612   0.957   2.968  0.7588  0.7200 -1.3930
 4886TIP3   OH236148   3.529   6.614   1.280 -0.3019  0.1698  0.2493
 4886TIP3    H136149   3.552   6.706   1.263 -1.2172  0.7833  2.0808
 4886TIP3    H236150   3.613   6.572   1.300  0.4562  0.0099 -2.6930
 4887TIP3   OH236151   1.564   2.152  16.024  0.0069  0.0522  0.5618
 4887TIP3    H136152   1.642   2.140  16.079 -0.7446 -0.0645  1.6422
 4887TIP3    H236153   1.582   2.232  15.974  1.5984 -1.0003 -0.6237
 4888TIP3   OH236154   2.324   6.379   2.908  0.1814 -0.9542 -0.3476
 4888TIP3    H136155   2.335   6.474   2.911  0.7291 -1.0134  1.9628
 4888TIP3    H236156   2.229   6.365   2.903  0.0702 -0.2709 -0.2138
 4889TIP3   OH236157   0.429   1.313  11.115  0.2486  0.2157 -0.2988
 4889TIP3    H136158   0.424   1.392  11.061  0.0546 -0.7651 -1.7537
 4889TIP3    H236159   0.400   1.242  11.058  1.0982 -1.0313  0.7512
 4890TIP3   OH236160   2.595   3.204  11.488 -0.8616 -0.0618 -0.0906
 4890TIP3    H136161   2.501   3.194  11.476 -0.8224 -0.6722  0.0648
 4890TIP3    H236162   2.633   3.126  11.447 -0.4724 -0.2059  0.5354
 4891TIP3   OH236163   0.279   2.630   4.376 -0.1313  0.5455  0.4587
 4891TIP3    H136164   0.243   2.602   4.292 -0.3165 -1.8571  1.2452
 4891TIP3    H236165   0.325   2.553   4.409 -0.3255  1.2978  2.6984
 4892TIP3   OH236166   1.015   4.158   1.442  0.2622  0.1656  0.2965
 4892TIP3    H136167   1.093   4.105   1.425  0.3363  1.1751 -3.4251
 4892TIP3    H236168   0.943   4.107   1.405 -0.4480  0.4636  1.2340
 4893TIP3   OH236169   0.406   5.130  11.928  0.2645  0.1834  0.0707
 4893TIP3    H136170   0.327   5.129  11.874 -0.5640  0.4547  1.2211
 4893TIP3    H236171   0.468   5.074  11.883 -1.2108 -1.4751  0.0168
 4894TIP3   OH236172   3.897   1.422  11.248  0.3638 -0.5091 -0.2704
 4894TIP3    H136173   3.930   1.395  11.334  0.7320  0.5421 -0.0675
 4894TIP3    H236174   3.829   1.357  11.227 -0.5232 -0.1453  1.3161
 4895TIP3   OH236175   0.991   4.430   0.188 -0.0723  0.0694 -0.3350
 4895TIP3    H136176   1.075   4.392   0.162  0.1692 -0.1087  0.6416
 4895TIP3    H236177   0.971   4.389   0.272 -0.4370  1.1543  0.1371
 4896TIP3   OH236178   1.803   4.934   0.839 -1.6621  0.9213 -0.0300
 4896TIP3    H136179   1.870   4.973   0.783 -0.5662  0.0907  0.6462
 4896TIP3    H236180   1.780   4.852   0.796  0.0498 -0.3100  1.2409
 4897TIP3   OH236181   1.593   4.495   3.827  0.2000  0.1844  0.4131
 4897TIP3    H136182   1.674   4.464   3.868  0.4922  0.6095  0.1815
 4897TIP3    H236183   1.616   4.503   3.734 -0.2675 -0.1904  0.2667
 4898TIP3   OH236184   0.716   6.880   0.854 -0.3755 -0.1698 -0.2408
 4898TIP3    H136185   0.796   6.843   0.890  0.1767 -0.9700 -2.1710
 4898TIP3    H236186   0.655   6.882   0.927  0.5081 -2.1925  0.6080
 4899TIP3   OH236187   3.208   5.755   1.985  0.4221 -0.0280 -0.2282
 4899TIP3    H136188   3.266   5.762   1.910  1.2688 -3.9074 -0.1742
 4899TIP3    H236189   3.245   5.682   2.036 -0.8332  1.5938  3.3197
 4900TIP3   OH236190   6.242   4.588  11.768 -0.1878  1.0556  0.7931
 4900TIP3    H136191   6.233   4.499  11.733 -2.7502  1.5665 -0.0439
 4900TIP3    H236192   6.235   4.577  11.863 -3.3229  0.5134  0.6070
 4901TIP3   OH236193   4.627   3.356   0.100 -0.1904  0.5139  0.5381
 4901TIP3    H136194   4.552   3.302   0.125  0.3756 -0.2553  0.6061
 4901TIP3    H236195   4.642   3.412   0.176  0.8273 -1.0422  1.5363
 4902TIP3   OH236196   0.043   4.729   0.305  0.2985 -0.3373 -0.2583
 4902TIP3    H136197   0.034   4.646   0.260  0.8554  0.1266 -1.2645
 4902TIP3    H236198  -0.047   4.756   0.324 -0.0955  0.2473 -2.6242
 4903TIP3   OH236199   3.818   4.398  13.648  0.2487  0.1050  0.3500
 4903TIP3    H136200   3.851   4.311  13.667 -0.6324  0.2698  3.1454
 4903TIP3    H236201   3.895   4.449  13.622  1.0495 -1.0601  0.3864
 4904TIP3   OH236202   6.120   4.398   3.688  0.5457  0.1125 -0.1050
 4904TIP3    H136203   6.180   4.332   3.655  0.6934 -0.2785  0.9305
 4904TIP3    H236204   6.071   4.354   3.757  1.3612  1.3585  1.3201
 4905TIP3   OH236205   4.048   2.392   0.302 -0.1015 -0.2623 -0.2128
 4905TIP3    H136206   4.071   2.387   0.209 -0.9239  0.3912 -0.4589
 4905TIP3    H236207   4.067   2.482   0.327 -0.4718 -0.2660  0.0944
 4906TIP3   OH236208   4.639   5.399   0.395  0.3428  0.1299 -0.4404
 4906TIP3    H136209   4.645   5.312   0.433  2.6702  0.5615  0.3417
 4906TIP3    H236210   4.706   5.399   0.326  0.9348  1.5141  0.1018
 4907TIP3   OH236211   2.458   6.389   1.661  0.0078 -0.1622  0.2565
 4907TIP3    H136212   2.419   6.334   1.593 -0.1544 -1.0520  1.0505
 4907TIP3    H236213   2.426   6.477   1.642 -0.5623 -0.5089 -0.4271
 4908TIP3   OH236214   2.185   1.710  11.920  0.8411  0.5104 -0.0494
 4908TIP3    H136215   2.106   1.721  11.974  0.3090  0.1852 -0.7484
 4908TIP3    H236216   2.213   1.800  11.901  1.9594  0.6838  2.0457
 4909TIP3   OH236217   3.297   5.314  14.253 -0.1513 -0.2464 -0.6689
 4909TIP3    H136218   3.242   5.248  14.210 -2.2755 -2.4588  4.5727
 4909TIP3    H236219   3.354   5.264  14.310  0.2301  2.3527  1.4312
 4910TIP3   OH236220   2.279   6.017   3.167 -0.2354  0.3322  0.5471
 4910TIP3    H136221   2.359   6.063   3.144  0.7574  0.0621  3.1434
 4910TIP3    H236222   2.296   5.926   3.144  1.2418 -0.1622  3.1686
 4911TIP3   OH236223   5.478   0.256  15.912 -0.1965  0.3791  0.0428
 4911TIP3    H136224   5.543   0.326  15.917  0.3282 -0.1625  2.1589
 4911TIP3    H236225   5.409   0.283  15.973 -1.0078  0.0296 -0.7097
 4912TIP3   OH236226   0.749   3.182   1.005 -0.0482 -0.8578  0.0160
 4912TIP3    H136227   0.687   3.113   1.030  0.4248 -1.3857 -0.2503
 4912TIP3    H236228   0.708   3.263   1.035 -2.1654 -0.8814 -2.4719
 4913TIP3   OH236229   5.715   0.518   2.442  0.3940 -0.3380 -0.3084
 4913TIP3    H136230   5.677   0.587   2.387  1.9924 -0.2789 -1.4048
 4913TIP3    H236231   5.639   0.467   2.473 -0.6137  0.1256 -1.8976
 4914TIP3   OH236232   4.281   3.585   5.852 -0.2743 -0.1858 -0.0557
 4914TIP3    H136233   4.355   3.573   5.911  0.0501 -1.4119 -0.6718
 4914TIP3    H236234   4.250   3.674   5.869  1.3748  0.3656  0.1734
 4915TIP3   OH236235   3.686   0.670   0.361 -0.0001 -0.0031  0.3115
 4915TIP3    H136236   3.596   0.641   0.374 -0.0320 -0.3675 -0.6966
 4915TIP3    H236237   3.684   0.722   0.281  0.7488 -0.3063  0.0826
 4916TIP3   OH236238   1.850   2.102   6.058 -0.3672  0.3835 -0.1568
 4916TIP3    H136239   1.894   2.174   6.105  2.3034 -0.7067 -0.8394
 4916TIP3    H236240   1.881   2.109   5.968 -1.2060 -0.7948 -0.5594
 4917TIP3   OH236241   0.390   1.491   3.150 -0.3185 -0.3678 -0.4544
 4917TIP3    H136242   0.476   1.528   3.131  0.1515 -1.2233 -0.0762
 4917TIP3    H236243   0.376   1.512   3.243 -0.5400 -0.1933 -0.5274
 4918TIP3   OH236244   0.292   6.194  12.649  0.2763  0.1439 -0.6547
 4918TIP3    H136245   0.306   6.126  12.715  0.3867  0.3840 -0.4285
 4918TIP3    H236246   0.218   6.245  12.683  0.2256  0.1687 -0.7994
 4919TIP3   OH236247   0.775   1.625   4.575 -0.5079 -0.4350  0.1275
 4919TIP3    H136248   0.822   1.696   4.620 -1.3331  0.9308 -1.0741
 4919TIP3    H236249   0.844   1.576   4.530 -0.1033  1.4821 -1.5325
 4920TIP3   OH236250   2.593   5.968  10.849 -0.1418  0.2372  0.6774
 4920TIP3    H136251   2.681   5.941  10.825 -0.0838  0.8227  0.2319
 4920TIP3    H236252   2.535   5.921  10.789 -0.1045  0.2658  0.6196
 4921TIP3   OH236253   5.226   3.477  11.873 -0.0579 -0.4334  0.2996
 4921TIP3    H136254   5.160   3.546  11.863 -0.0385 -0.5884 -1.0682
 4921TIP3    H236255   5.179   3.396  11.856  0.3669 -0.5866 -0.1609
 4922TIP3   OH236256   0.078   3.172   1.111 -0.2676  0.0954  0.1813
 4922TIP3    H136257   0.124   3.088   1.123  0.1153  0.1243 -0.9723
 4922TIP3    H236258   0.090   3.217   1.194  1.0873 -0.2542  0.2080
 4923TIP3   OH236259   2.352   0.834  15.458 -0.4622  0.5124 -0.0765
 4923TIP3    H136260   2.301   0.849  15.379  1.1290  1.9833 -0.8872
 4923TIP3    H236261   2.331   0.908  15.515 -0.8042  0.0097  0.4692
 4924TIP3   OH236262   2.045   6.387   2.857  0.1513 -0.0438  0.1872
 4924TIP3    H136263   1.962   6.422   2.823 -0.1574 -0.8067  0.1273
 4924TIP3    H236264   2.018   6.322   2.922  0.6590 -1.6711 -1.1819
 4925TIP3   OH236265   4.266   1.792   1.287 -0.5038  0.0551  0.2040
 4925TIP3    H136266   4.249   1.699   1.298 -0.2182 -0.1789 -1.1440
 4925TIP3    H236267   4.239   1.811   1.197 -0.1457  1.1705  0.3185
 4926TIP3   OH236268   4.209   0.268  14.996  0.2670 -0.2656 -0.6418
 4926TIP3    H136269   4.145   0.213  14.949 -0.4848  1.2225 -1.4402
 4926TIP3    H236270   4.185   0.258  15.088 -1.5654  0.7370 -0.9573
 4927TIP3   OH236271   2.569   2.077  15.346  0.3477 -0.1992  0.1730
 4927TIP3    H136272   2.495   2.016  15.343  0.0537  0.1237  0.7791
 4927TIP3    H236273   2.640   2.026  15.384  0.3341 -0.3979 -0.0630
 4928TIP3   OH236274   0.617   1.703  13.675  0.5960 -0.3108  0.5751
 4928TIP3    H136275   0.689   1.759  13.705  1.3766 -0.8821 -0.1631
 4928TIP3    H236276   0.542   1.763  13.666  1.3854  0.6084 -0.0985
 4929TIP3   OH236277   5.282   6.380   4.988  0.2774 -0.5932 -0.8255
 4929TIP3    H136278   5.283   6.287   4.966 -4.3851 -0.9398 -0.6005
 4929TIP3    H236279   5.204   6.414   4.945  1.5113  3.1781 -0.4656
 4930TIP3   OH236280   4.433   2.357  15.680 -0.1358 -0.1572 -0.5211
 4930TIP3    H136281   4.418   2.318  15.766  2.0073 -0.9189 -0.4487
 4930TIP3    H236282   4.380   2.304  15.620 -0.6147 -0.4521  0.1499
 4931TIP3   OH236283   3.674   2.301  15.656 -0.2837  0.0092  0.0722
 4931TIP3    H136284   3.653   2.382  15.609  0.2221 -0.2707 -0.6558
 4931TIP3    H236285   3.714   2.244  15.590 -0.8063 -0.9118  0.5241
 4932TIP3   OH236286   1.077   6.602  10.301 -0.1910 -0.1729  0.1858
 4932TIP3    H136287   1.020   6.552  10.242  0.2736 -0.2251 -0.2197
 4932TIP3    H236288   1.159   6.612  10.253  0.0751  0.0816  0.6880
 4933TIP3   OH236289   2.490   1.763  12.993  0.2759 -0.1348 -0.0631
 4933TIP3    H136290   2.504   1.671  12.971 -0.7106 -0.3156  0.0359
 4933TIP3    H236291   2.579   1.798  13.003  0.6630 -1.2648  0.7194
 4934TIP3   OH236292   2.159   0.463  16.558 -0.0932  0.4412  0.2763
 4934TIP3    H136293   2.247   0.492  16.535 -0.1710  1.6562  1.3619
 4934TIP3    H236294   2.123   0.427  16.477  0.6686  1.8026 -0.7004
 4935TIP3   OH236295   4.966   1.218  10.893  0.3203 -0.3206 -0.6119
 4935TIP3    H136296   4.887   1.165  10.883 -0.2681  0.6576 -1.2157
 4935TIP3    H236297   4.945   1.280  10.963  0.8434 -0.5662 -0.2256
 4936TIP3   OH236298   0.175   1.971  16.465  0.5950 -0.0108  0.3481
 4936TIP3    H136299   0.114   1.992  16.394  1.7241  0.9519 -0.3681
 4936TIP3    H236300   0.137   1.894  16.507 -0.3455 -0.3099 -0.9946
 4937TIP3   OH236301   6.084   2.215   4.880  0.3550 -0.0038  0.0912
 4937TIP3    H136302   6.175   2.233   4.903 -0.4462  1.7968  2.1913
 4937TIP3    H236303   6.041   2.195   4.963 -1.5905  1.4203 -0.4807
 4938TIP3   OH236304   1.846   3.753   0.825 -0.4931 -0.3955  0.2686
 4938TIP3    H136305   1.930   3.726   0.789 -0.9582 -1.9396  0.2696
 4938TIP3    H236306   1.794   3.777   0.749 -0.3512 -0.3317  0.1919
 4939TIP3   OH236307   2.312   6.437  14.803 -0.1951  0.5917  0.7584
 4939TIP3    H136308   2.346   6.386  14.730 -0.4341  0.7991  0.4987
 4939TIP3    H236309   2.228   6.397  14.824 -1.0013  1.6698 -0.3072
 4940TIP3   OH236310   6.069   0.943  16.336 -0.0971 -0.3991  0.7502
 4940TIP3    H136311   6.123   0.971  16.262 -0.7022 -0.0846  0.4261
 4940TIP3    H236312   6.131   0.901  16.396  0.2423 -1.5996 -0.4091
 4941TIP3   OH236313   3.499   6.581  13.571  0.5703  0.0591  0.4310
 4941TIP3    H136314   3.594   6.581  13.580  0.4238 -0.4374  2.3087
 4941TIP3    H236315   3.471   6.662  13.613  0.1722  0.3514 -0.3837
 4942TIP3   OH236316   2.838   3.579  16.111  0.5625 -0.0180  0.6995
 4942TIP3    H136317   2.836   3.628  16.029  0.3349  0.0599  0.7502
 4942TIP3    H236318   2.860   3.645  16.177  0.0339  0.0638  0.8013
 4943TIP3   OH236319   6.208   5.601   5.835  0.1082  0.2188 -0.4530
 4943TIP3    H136320   6.303   5.591   5.828  0.0187 -1.3220  0.0317
 4943TIP3    H236321   6.173   5.557   5.758 -0.2543 -1.3919  0.5646
 4944TIP3   OH236322   6.570   4.239   1.454 -0.4130  0.0837  0.6373
 4944TIP3    H136323   6.664   4.226   1.439 -0.9165 -2.8393 -0.7424
 4944TIP3    H236324   6.554   4.206   1.542 -0.4659 -1.8480 -0.0516
 4945TIP3   OH236325   4.319   4.529   4.492  0.1994  0.4106  0.2086
 4945TIP3    H136326   4.238   4.579   4.499  0.2656  0.3981  1.3232
 4945TIP3    H236327   4.387   4.594   4.477  0.3895  0.7803  2.3961
 4946TIP3   OH236328   2.491   1.971   1.001  0.0400 -0.5733  0.1187
 4946TIP3    H136329   2.422   1.924   0.955 -0.5805  0.2745  0.1514
 4946TIP3    H236330   2.518   2.040   0.940  0.6132 -0.6753  0.2454
 4947TIP3   OH236331   1.326   0.326   5.045 -0.0972 -0.4514  0.1156
 4947TIP3    H136332   1.403   0.384   5.046  0.4019 -1.1090  0.2804
 4947TIP3    H236333   1.359   0.242   5.013 -0.9103 -0.5335 -0.5508
 4948TIP3   OH236334   6.229   4.309  15.627  0.0510 -0.6304 -0.0186
 4948TIP3    H136335   6.264   4.318  15.716  0.2915  1.1213 -0.2570
 4948TIP3    H236336   6.276   4.375  15.576 -0.4870 -1.2345 -1.3337
 4949TIP3   OH236337   4.799   2.976  11.787 -0.1761 -0.0880  0.0315
 4949TIP3    H136338   4.704   2.978  11.782 -0.2862 -2.2374  0.0392
 4949TIP3    H236339   4.829   3.009  11.702 -0.9631 -0.2585 -0.3163
 4950TIP3   OH236340   3.319   4.185  15.499  0.0881 -0.2225  0.0251
 4950TIP3    H136341   3.398   4.183  15.553  0.6397 -1.0157 -0.7817
 4950TIP3    H236342   3.267   4.257  15.536  0.4786 -0.6630  1.5382
 4951TIP3   OH236343   2.831   2.688  13.101 -0.0508  0.4347  0.0866
 4951TIP3    H136344   2.797   2.773  13.073  0.5647  0.3460 -0.9750
 4951TIP3    H236345   2.905   2.709  13.157  0.0347  0.5945 -0.0870
 4952TIP3   OH236346   4.633   2.415   5.780 -0.1935  0.1703 -0.4105
 4952TIP3    H136347   4.573   2.455   5.843  0.6283  2.7923 -1.2023
 4952TIP3    H236348   4.645   2.326   5.813 -0.5322  1.1279  2.6137
 4953TIP3   OH236349   1.535   6.857  16.251  0.1305  0.8253  0.2068
 4953TIP3    H136350   1.450   6.899  16.240 -0.5389 -0.6273 -0.4511
 4953TIP3    H236351   1.587   6.887  16.177 -0.2071  0.7948 -0.0432
 4954TIP3   OH236352   0.348   1.274  11.630 -0.1633  0.2841 -0.3993
 4954TIP3    H136353   0.434   1.291  11.593  0.4766 -1.8441 -0.0225
 4954TIP3    H236354   0.365   1.251  11.721 -1.0530 -0.6675 -0.4546
 4955TIP3   OH236355   6.272   6.712  15.706  0.4397 -0.1895  0.0506
 4955TIP3    H136356   6.348   6.758  15.669  0.8880 -1.3343 -0.4899
 4955TIP3    H236357   6.308   6.635  15.749 -0.3432 -0.3132  0.5113
 4956TIP3   OH236358   3.194   3.688  16.855 -0.2405  0.3466 -0.4587
 4956TIP3    H136359   3.242   3.663  16.934  0.7671  1.9425 -0.5051
 4956TIP3    H236360   3.261   3.690  16.786 -0.6517  1.1413 -0.8539
 4957TIP3   OH236361   2.237   4.018  15.403 -0.1157 -0.0101  0.2988
 4957TIP3    H136362   2.181   4.058  15.469 -0.0965 -1.7633  1.4456
 4957TIP3    H236363   2.227   4.074  15.325 -0.3611  1.9462  1.6630
 4958TIP3   OH236364   3.329   0.663  14.359 -0.6403  0.1062 -0.2801
 4958TIP3    H136365   3.235   0.655  14.340 -0.6087 -0.1124 -0.3453
 4958TIP3    H236366   3.361   0.725  14.294 -1.0656  1.5417  0.8170
 4959TIP3   OH236367   6.868   2.802   4.189  0.1906  0.1107 -0.2536
 4959TIP3    H136368   6.911   2.727   4.231  0.7463 -0.1939 -1.3197
 4959TIP3    H236369   6.940   2.856   4.157 -0.1924  1.3934  0.9417
 4960TIP3   OH236370   1.736   2.778   4.049 -0.0710  0.3163  0.2498
 4960TIP3    H136371   1.717   2.863   4.089 -0.5991  0.1542  0.3452
 4960TIP3    H236372   1.826   2.786   4.018 -0.1639  0.9646  0.1260
 4961TIP3   OH236373   6.088   6.311  12.726 -0.2976  0.4455 -0.1096
 4961TIP3    H136374   6.068   6.276  12.813  0.3539 -0.1736 -0.1988
 4961TIP3    H236375   6.074   6.405  12.734 -0.1419  0.4064  0.6946
 4962TIP3   OH236376   0.396   6.381   6.610 -0.3423  0.1169 -0.0226
 4962TIP3    H136377   0.355   6.301   6.579 -2.3887  0.5766  1.3077
 4962TIP3    H236378   0.458   6.351   6.677 -0.3415 -0.4107 -0.2533
 4963TIP3   OH236379   3.795   3.950   5.582 -0.0611  0.5485  0.8338
 4963TIP3    H136380   3.793   4.018   5.649  2.8385  2.0299 -0.4012
 4963TIP3    H236381   3.854   3.883   5.617  1.8500  1.5528 -0.3205
 4964TIP3   OH236382   0.098   5.058   0.301 -0.2036  0.0681  0.2978
 4964TIP3    H136383   0.071   4.984   0.247  0.3376  1.4420 -2.0378
 4964TIP3    H236384   0.027   5.070   0.363 -0.2253 -2.4589  0.8544
 4965TIP3   OH236385   6.375   1.305  10.848 -0.3773 -0.1121 -0.3656
 4965TIP3    H136386   6.359   1.373  10.783  0.7329 -0.3158 -0.8773
 4965TIP3    H236387   6.365   1.222  10.800  0.6832 -0.2587 -0.3525
 4966TIP3   OH236388   5.304   5.512   2.577  0.1584 -0.2906  0.0910
 4966TIP3    H136389   5.293   5.424   2.543 -0.5434  0.0403 -0.5666
 4966TIP3    H236390   5.227   5.560   2.545  1.4125  1.0313 -1.1137
 4967TIP3   OH236391   5.443   2.745   3.084  0.6758  0.3783  0.3833
 4967TIP3    H136392   5.491   2.663   3.070  0.5502  0.0890  1.5936
 4967TIP3    H236393   5.485   2.785   3.160  1.2060  1.8119 -0.6146
 4968TIP3   OH236394   1.041   2.548   2.550  0.0821  0.0937  0.0836
 4968TIP3    H136395   0.989   2.616   2.507 -1.7382  0.1952  2.2356
 4968TIP3    H236396   1.093   2.595   2.615 -2.1182 -0.5617  2.4539
 4969TIP3   OH236397   2.601   2.258   1.086  0.2865  0.9015 -0.2726
 4969TIP3    H136398   2.549   2.197   1.140  0.1896  1.9766  0.8970
 4969TIP3    H236399   2.681   2.210   1.067 -0.1048  0.1218 -0.0184
 4970TIP3   OH236400   5.788   5.151   1.317 -0.6535  0.4145 -0.3560
 4970TIP3    H136401   5.875   5.110   1.316 -0.6011  0.5288 -0.6417
 4970TIP3    H236402   5.748   5.121   1.398  0.0160  1.1152  0.2520
 4971TIP3   OH236403   4.339   0.759   2.160  0.4361  0.1928 -0.1550
 4971TIP3    H136404   4.308   0.842   2.197  0.5479  0.6111 -0.9658
 4971TIP3    H236405   4.434   0.767   2.158  0.6294 -0.9400  1.9801
 4972TIP3   OH236406   2.716   2.195  15.717 -0.0396 -0.6541  0.0488
 4972TIP3    H136407   2.632   2.230  15.687 -0.0906 -0.0634  0.8695
 4972TIP3    H236408   2.747   2.259  15.781  1.5546 -0.2916 -1.0250
 4973TIP3   OH236409   4.778   3.303  15.004 -0.0109 -0.3040  0.1836
 4973TIP3    H136410   4.728   3.380  15.029 -0.0194 -0.0261 -0.6527
 4973TIP3    H236411   4.809   3.322  14.915 -1.4830 -1.9682 -0.7510
 4974TIP3   OH236412   5.269   0.407   2.397  0.2468  0.4319  0.2678
 4974TIP3    H136413   5.331   0.393   2.326  1.3130 -2.1189  1.5800
 4974TIP3    H236414   5.191   0.357   2.372  0.2080  0.4109  0.4285
 4975TIP3   OH236415   2.073   0.891  14.376 -0.0589 -0.2343 -0.0521
 4975TIP3    H136416   2.087   0.811  14.324  0.1608 -0.0464 -0.2858
 4975TIP3    H236417   2.154   0.903  14.425  0.1897  0.2349 -0.5589
 4976TIP3   OH236418   0.039   4.324  11.719 -0.2170 -0.0411  0.5209
 4976TIP3    H136419   0.012   4.415  11.712 -0.0063  0.0012  0.2616
 4976TIP3    H236420   0.120   4.327  11.770 -1.5709 -0.3149  2.8375
 4977TIP3   OH236421   6.557   0.539  11.147 -0.1905  0.2429  0.3630
 4977TIP3    H136422   6.637   0.577  11.184 -0.4639  0.7177  0.4595
 4977TIP3    H236423   6.486   0.575  11.199 -0.6717  1.7544 -1.2456
 4978TIP3   OH236424   2.682   3.634  14.354  0.0396 -0.1245 -0.1871
 4978TIP3    H136425   2.652   3.617  14.265  0.7428  2.4936 -1.0326
 4978TIP3    H236426   2.612   3.686  14.394 -0.1776 -1.0970  0.7528
 4979TIP3   OH236427   0.282   0.815   0.598 -0.3937  0.3885  0.4128
 4979TIP3    H136428   0.253   0.891   0.648  0.8081  1.2187 -0.0897
 4979TIP3    H236429   0.372   0.837   0.572 -0.4027 -0.7484 -0.6562
 4980TIP3   OH236430   0.540   4.303  12.430  0.4229  0.0447 -0.2535
 4980TIP3    H136431   0.586   4.351  12.499  0.7949 -0.4212 -0.1763
 4980TIP3    H236432   0.447   4.315  12.451  0.5372 -0.6958  0.7525
 4981TIP3   OH236433   1.485   6.052   3.857  0.1997  0.7984  0.1066
 4981TIP3    H136434   1.456   6.092   3.939  0.9832 -0.8567  1.2625
 4981TIP3    H236435   1.444   5.965   3.857  2.1218 -0.1701 -0.0017
 4982TIP3   OH236436   4.189   3.217   0.647 -0.2912  0.3442 -0.1820
 4982TIP3    H136437   4.182   3.173   0.732  1.0212  1.4758  0.5531
 4982TIP3    H236438   4.255   3.285   0.661 -0.1473  0.6369 -2.0895
 4983TIP3   OH236439   6.485   3.727  13.918  0.3335 -0.1746  0.4218
 4983TIP3    H136440   6.560   3.756  13.970  1.5773  1.0289 -1.8749
 4983TIP3    H236441   6.510   3.640  13.886  0.8295  0.2418 -0.3741
 4984TIP3   OH236442   1.929   5.738   6.487  0.0738  0.1394 -0.3040
 4984TIP3    H136443   1.926   5.672   6.418  1.3975  1.0229 -1.2635
 4984TIP3    H236444   1.941   5.821   6.440  1.4885  0.7155  1.0022
 4985TIP3   OH236445   1.294   4.207  14.220 -0.1762 -0.2018  0.3603
 4985TIP3    H136446   1.263   4.257  14.144 -2.2746 -1.4390  0.3094
 4985TIP3    H236447   1.250   4.248  14.295 -0.5560 -0.8789  0.5184
 4986TIP3   OH236448   1.155   2.810   5.706 -0.2829  0.4124 -0.0045
 4986TIP3    H136449   1.233   2.865   5.704 -0.5501  0.7826 -0.4459
 4986TIP3    H236450   1.189   2.721   5.711  0.1874  0.5092 -1.2398
 4987TIP3   OH236451   2.593   0.454  16.867 -0.3071  0.2254 -0.1064
 4987TIP3    H136452   2.518   0.461  16.807 -0.5615 -0.1672  0.1604
 4987TIP3    H236453   2.575   0.376  16.919 -0.7762  1.2843  1.4046
 4988TIP3   OH236454   4.296   4.394  15.957 -0.6160 -0.4261  0.1652
 4988TIP3    H136455   4.343   4.458  16.010 -0.2732 -1.0849  0.6812
 4988TIP3    H236456   4.205   4.400  15.986 -0.6205 -0.0427  0.0742
 4989TIP3   OH236457   1.235   5.982  11.961  0.3297  0.2435 -0.0615
 4989TIP3    H136458   1.315   5.949  11.920 -0.7130 -1.4367 -0.8526
 4989TIP3    H236459   1.176   5.907  11.961 -0.7927  1.0712  1.7532
 4990TIP3   OH236460   1.880   2.213  12.852  0.2732  0.1302  0.5055
 4990TIP3    H136461   1.945   2.146  12.830  0.6666  0.8914 -0.7552
 4990TIP3    H236462   1.927   2.296  12.843 -0.5641  0.6422  0.7403
 4991TIP3   OH236463   4.038   3.783   3.343  0.4071 -0.0501  0.3753
 4991TIP3    H136464   4.095   3.765   3.417  0.2047  0.4771  0.6614
 4991TIP3    H236465   4.035   3.879   3.337  0.6961 -0.0804 -0.5223
 4992TIP3   OH236466   3.368   4.534   2.805  0.0551  0.3382  0.2566
 4992TIP3    H136467   3.289   4.555   2.755  0.6689 -1.1889 -1.4491
 4992TIP3    H236468   3.336   4.504   2.890 -1.1900  0.0359 -0.3063
 4993TIP3   OH236469   2.260   6.827  13.730 -0.3207  0.0366 -0.7623
 4993TIP3    H136470   2.282   6.745  13.684 -0.3482 -1.5454  1.8544
 4993TIP3    H236471   2.313   6.824  13.810 -0.2492  2.6737 -0.6428
 4994TIP3   OH236472   5.953   2.286  14.939 -0.0743  0.0102  0.2778
 4994TIP3    H136473   5.906   2.352  14.888 -0.0686 -0.3753 -0.2319
 4994TIP3    H236474   5.917   2.203  14.910 -0.5364 -0.1929  1.3801
 4995TIP3   OH236475   3.977   4.401   5.752  0.0237  0.0436 -0.4359
 4995TIP3    H136476   3.993   4.480   5.804 -2.1704 -0.1454  0.6539
 4995TIP3    H236477   4.061   4.355   5.751  0.4666  0.6804  1.9124
 4996TIP3   OH236478   1.802   3.879  13.343  0.4363  0.1673  0.2061
 4996TIP3    H136479   1.799   3.873  13.439 -1.1903 -0.0003  0.1705
 4996TIP3    H236480   1.716   3.848  13.314  0.1665  2.0876 -1.2114
 4997TIP3   OH236481   4.386   0.448  10.520  0.2033  0.4206  0.4137
 4997TIP3    H136482   4.469   0.445  10.472  0.4400 -0.7863  0.8620
 4997TIP3    H236483   4.328   0.390  10.470 -0.9479  2.5434 -0.8703
 4998TIP3   OH236484   6.657   2.558  14.417 -0.8369  0.2664 -0.3122
 4998TIP3    H136485   6.583   2.559  14.357 -0.9519 -1.2995 -0.2410
 4998TIP3    H236486   6.672   2.465  14.435  0.6250  0.5944  0.3162
 4999TIP3   OH236487   5.383   4.447   0.962  0.2410  0.2109 -0.3963
 4999TIP3    H136488   5.414   4.368   1.006  0.1748 -0.1332 -0.9491
 4999TIP3    H236489   5.397   4.517   1.025  2.0013  0.0473 -0.5499
 5000TIP3   OH236490   0.361   1.769  10.506 -0.5350 -0.0792 -0.2060
 5000TIP3    H136491   0.290   1.826  10.476 -1.1741 -1.5571 -1.6843
 5000TIP3    H236492   0.441   1.816  10.482 -1.0446  0.0747 -1.7376
 5001TIP3   OH236493   2.108   5.239  16.433 -1.3692 -0.2046  0.4705
 5001TIP3    H136494   2.093   5.331  16.457 -1.5579 -0.8190  2.8976
 5001TIP3    H236495   2.021   5.203  16.418 -1.4784 -0.5745  1.9195
 5002TIP3   OH236496   3.965   0.113   4.225 -0.0672  0.1342  0.0700
 5002TIP3    H136497   3.900   0.109   4.155 -1.8855 -0.8739  1.7030
 5002TIP3    H236498   3.925   0.169   4.292  1.5307  0.9145  0.4161
 5003TIP3   OH236499   6.142   4.222  10.539 -0.5566 -0.0354 -0.0002
 5003TIP3    H136500   6.202   4.165  10.586 -0.4147  2.3041  2.9776
 5003TIP3    H236501   6.057   4.178  10.544 -0.1210 -0.8260  0.5710
 5004TIP3   OH236502   4.353   2.612  15.820  0.1294  0.1271  0.2812
 5004TIP3    H136503   4.301   2.612  15.739  0.5001 -0.8591  0.0242
 5004TIP3    H236504   4.440   2.582  15.792  0.2610 -0.2233  1.0491
 5005TIP3   OH236505   5.458   0.913  11.111 -0.0554 -0.0618  0.3737
 5005TIP3    H136506   5.523   0.851  11.078  0.2386  0.9181 -0.9574
 5005TIP3    H236507   5.468   0.908  11.206  1.1927 -0.7565  0.2406
 5006TIP3   OH236508   0.991   5.380   1.192  0.5139  0.2645 -0.0174
 5006TIP3    H136509   1.042   5.302   1.214 -1.2262 -1.0895 -0.5358
 5006TIP3    H236510   1.036   5.417   1.115  0.1083 -1.5531 -1.1862
 5007TIP3   OH236511   0.527   4.625  11.854 -0.5203  0.1798 -0.3226
 5007TIP3    H136512   0.525   4.612  11.948  0.3891  1.7589 -0.0486
 5007TIP3    H236513   0.614   4.594  11.827 -0.1077  1.3007 -0.3477
 5008TIP3   OH236514   4.419   0.695  11.082  0.1680  0.1196  1.0288
 5008TIP3    H136515   4.444   0.641  11.007 -0.9150 -0.5344  1.1146
 5008TIP3    H236516   4.487   0.761  11.088  0.3281  0.1201 -0.4748
 5009TIP3   OH236517   6.454   5.133   0.942  0.1625 -0.0703 -0.0592
 5009TIP3    H136518   6.458   5.182   1.024 -0.9761  0.8462 -0.5259
 5009TIP3    H236519   6.434   5.199   0.875  1.1848 -0.7726 -1.1109
 5010TIP3   OH236520   3.787   4.561   4.672 -0.0481  0.3728 -0.5676
 5010TIP3    H136521   3.698   4.558   4.636 -0.7489 -0.3521  1.1462
 5010TIP3    H236522   3.775   4.573   4.766  1.6504 -0.6474 -0.1764
 5011TIP3   OH236523   4.940   5.153   5.359 -0.3355  0.2918 -0.1130
 5011TIP3    H136524   4.936   5.058   5.347  0.8287  0.4361 -2.1785
 5011TIP3    H236525   5.017   5.167   5.413  0.6300  0.1176 -1.3959
 5012TIP3   OH236526   6.137   2.745   0.308 -0.1407 -0.2509  0.7184
 5012TIP3    H136527   6.071   2.680   0.284 -0.3232 -0.0597  0.7049
 5012TIP3    H236528   6.171   2.777   0.225 -0.8558  0.4962  0.7101
 5013TIP3   OH236529   2.315   0.776   3.010 -0.1393  0.1838 -0.7637
 5013TIP3    H136530   2.392   0.727   2.980 -0.4780 -1.0318  0.2350
 5013TIP3    H236531   2.246   0.709   3.018 -0.5756  0.7696  0.8144
 5014TIP3   OH236532   6.648   1.849   0.860  0.4872 -0.6347 -0.3219
 5014TIP3    H136533   6.605   1.901   0.793 -1.2279 -0.7146  0.6507
 5014TIP3    H236534   6.673   1.913   0.928  1.9187 -0.5962 -0.8471
 5015TIP3   OH236535   0.770   1.907   3.226 -0.1409 -0.6347 -0.0197
 5015TIP3    H136536   0.723   1.922   3.308 -2.2003  1.7527 -1.4842
 5015TIP3    H236537   0.748   1.817   3.202 -2.8201 -0.0922  0.1380
 5016TIP3   OH236538   0.244   4.329  15.221  0.5750 -0.1698  0.2977
 5016TIP3    H136539   0.306   4.328  15.294  0.7687  0.4855  0.1509
 5016TIP3    H236540   0.273   4.259  15.163  0.8596 -0.2067  0.4850
 5017TIP3   OH236541   5.445   1.169   2.353  1.2038 -0.0386  0.3638
 5017TIP3    H136542   5.499   1.092   2.370 -0.8841 -1.1773  2.4307
 5017TIP3    H236543   5.373   1.136   2.298 -0.6879 -0.1191  2.7163
 5018TIP3   OH236544   6.777   1.580   6.529  0.3823  0.2966  0.4132
 5018TIP3    H136545   6.824   1.657   6.498 -0.4556 -0.1905 -2.4043
 5018TIP3    H236546   6.840   1.508   6.518  0.9412  0.4158  2.4199
 5019TIP3   OH236547   0.344   6.790  15.136 -0.3859  0.0377  0.0233
 5019TIP3    H136548   0.417   6.764  15.081  0.4781  1.2988  0.5210
 5019TIP3    H236549   0.349   6.731  15.212 -1.4391 -1.5443 -1.0860
 5020TIP3   OH236550   1.829   2.238  11.701 -0.3035 -0.0700  0.4523
 5020TIP3    H136551   1.777   2.301  11.652 -1.1486 -1.3125 -0.3132
 5020TIP3    H236552   1.783   2.227  11.784 -0.0782  0.4074  0.6434
 5021TIP3   OH236553   3.494   0.083  12.198 -0.4700  0.0502 -0.0488
 5021TIP3    H136554   3.551   0.155  12.169  0.7552 -0.1735  1.6298
 5021TIP3    H236555   3.460   0.045  12.117  1.2567  0.6309 -1.1009
 5022TIP3   OH236556   6.746   6.782  17.024 -0.9060 -0.6670 -0.1640
 5022TIP3    H136557   6.771   6.811  17.112 -2.0825 -1.4804  0.4680
 5022TIP3    H236558   6.814   6.720  16.999 -2.9653 -4.2550  2.2704
 5023TIP3   OH236559   2.879   6.781   4.580  0.5573 -0.0785 -0.1015
 5023TIP3    H136560   2.895   6.872   4.604 -0.9677  0.1689  0.0708
 5023TIP3    H236561   2.891   6.733   4.662  2.0870 -0.1404 -0.3508
 5024TIP3   OH236562   4.307   0.914   1.836  0.6643 -1.0472  0.4341
 5024TIP3    H136563   4.332   0.822   1.844  1.7295 -0.6218  2.7063
 5024TIP3    H236564   4.212   0.914   1.844  0.5323 -2.0199 -0.7734
 5025TIP3   OH236565   2.797   0.661  16.888 -0.0975  0.2222 -0.2882
 5025TIP3    H136566   2.744   0.582  16.884 -1.1525  0.7674  1.5176
 5025TIP3    H236567   2.736   0.729  16.916  0.7482  1.7280 -1.9192
 5026TIP3   OH236568   1.394   4.286  14.997 -0.0255  0.6358 -0.2242
 5026TIP3    H136569   1.470   4.252  15.045  1.0094  2.4559 -0.4991
 5026TIP3    H236570   1.344   4.207  14.973  0.8472 -0.4930  1.4592
 5027TIP3   OH236571   1.092   4.234  12.453  0.2090  0.1351 -0.1289
 5027TIP3    H136572   1.087   4.268  12.543 -0.9540 -0.2092 -0.0568
 5027TIP3    H236573   1.097   4.139  12.464  0.2465  0.1005 -0.4358
 5028TIP3   OH236574   0.462   4.871   4.471  0.0884  0.0424 -0.1651
 5028TIP3    H136575   0.413   4.789   4.466  1.4043 -0.9511  1.8833
 5028TIP3    H236576   0.464   4.903   4.381 -1.9238 -1.2511 -0.7507
 5029TIP3   OH236577   6.620   3.458  12.086 -0.4528  0.1566 -0.0610
 5029TIP3    H136578   6.593   3.410  12.164  0.6706  0.8043  0.7624
 5029TIP3    H236579   6.669   3.394  12.034  0.8174  0.3086  0.9037
 5030TIP3   OH236580   5.129   3.910   2.580 -0.1160  0.1240  0.0577
 5030TIP3    H136581   5.078   3.991   2.576 -2.3053 -1.0716  1.1961
 5030TIP3    H236582   5.134   3.890   2.674  0.5215 -0.9714 -0.1902
 5031TIP3   OH236583   4.283   1.386  12.990 -0.3318  0.2891 -0.6974
 5031TIP3    H136584   4.298   1.390  13.085 -1.6863  3.2400 -0.4974
 5031TIP3    H236585   4.197   1.347  12.981 -0.7954  1.2606 -0.5911
 5032TIP3   OH236586   5.567   1.637  16.548  0.2065 -0.0229  0.2786
 5032TIP3    H136587   5.619   1.591  16.481 -1.4884 -1.1902 -0.3128
 5032TIP3    H236588   5.511   1.569  16.585 -1.1052  1.2292  0.6798
 5033TIP3   OH236589   6.587   6.143   2.529  0.1389 -0.2035 -0.2039
 5033TIP3    H136590   6.626   6.066   2.487  0.3314 -0.0515 -0.3064
 5033TIP3    H236591   6.630   6.217   2.487 -0.7588 -0.0085 -0.8053
 5034TIP3   OH236592   5.795   4.568   3.055 -0.1681  0.6498  0.4382
 5034TIP3    H136593   5.761   4.646   3.011  1.7107  1.3125  0.0845
 5034TIP3    H236594   5.722   4.538   3.110 -1.3272  1.9312 -0.3398
 5035TIP3   OH236595   4.618   1.270  11.786  0.0432 -0.2593 -0.4440
 5035TIP3    H136596   4.661   1.354  11.769  1.2073 -0.2529  2.0433
 5035TIP3    H236597   4.690   1.208  11.795 -0.6379 -0.9124  0.6465
 5036TIP3   OH236598   5.725   2.964  11.288 -0.0897 -0.0128 -0.4497
 5036TIP3    H136599   5.743   2.911  11.210 -1.9083  1.6348 -2.0915
 5036TIP3    H236600   5.811   2.996  11.316  0.9857 -3.0497  0.1468
 5037TIP3   OH236601   4.946   5.753  13.166 -0.0496 -0.1555 -0.2318
 5037TIP3    H136602   4.982   5.681  13.217 -2.2916 -0.6692  0.7322
 5037TIP3    H236603   5.020   5.814  13.156  1.7712 -2.2873 -0.6412
 5038TIP3   OH236604   3.091   5.017   2.709  0.3514  0.2490 -0.0584
 5038TIP3    H136605   2.996   5.014   2.710  0.3230  0.4783  1.6786
 5038TIP3    H236606   3.113   5.092   2.766  1.5645 -0.9714  1.1699
 5039TIP3   OH236607   4.847   6.082  12.963  0.0557  0.1306 -0.4442
 5039TIP3    H136608   4.867   6.107  13.053  0.8523 -0.5791 -0.4112
 5039TIP3    H236609   4.788   6.007  12.971 -0.2595  0.3628 -0.5298
 5040TIP3   OH236610   0.512   2.687   3.907  0.5238 -0.0925 -0.2958
 5040TIP3    H136611   0.507   2.625   3.834 -0.6125  0.6631 -0.8940
 5040TIP3    H236612   0.514   2.632   3.986  1.3460 -0.9086 -0.8586
 5041TIP3   OH236613   6.426   4.916  16.095  0.3612 -0.6271  0.0866
 5041TIP3    H136614   6.378   4.963  16.163  0.1943 -1.4343  0.5414
 5041TIP3    H236615   6.440   4.829  16.132  0.0530 -1.1570 -1.0140
 5042TIP3   OH236616   1.824   3.345  11.360 -0.1576  0.0879 -0.1269
 5042TIP3    H136617   1.842   3.331  11.453 -1.5095 -1.0387  0.0203
 5042TIP3    H236618   1.820   3.256  11.323 -0.9038  0.4559 -0.9841
 5043TIP3   OH236619   5.808   0.946  12.929 -0.3748 -0.2302 -0.3637
 5043TIP3    H136620   5.725   0.948  12.883  0.1997 -2.8637 -1.6788
 5043TIP3    H236621   5.798   0.877  12.994  0.8250 -0.7175 -0.6664
 5044TIP3   OH236622   3.480   3.966  16.257  0.3186  0.4712  0.5495
 5044TIP3    H136623   3.466   4.055  16.289  0.6116  0.8051 -0.2161
 5044TIP3    H236624   3.453   3.969  16.165 -1.1102 -0.6129  0.8892
 5045TIP3   OH236625   3.757   5.921  11.967 -0.0868 -0.1097  0.2199
 5045TIP3    H136626   3.767   5.996  12.026 -0.0234  0.3905 -0.4135
 5045TIP3    H236627   3.669   5.888  11.984  0.2430 -0.5177  1.2095
 5046TIP3   OH236628   2.146   0.954  14.967 -0.1395 -0.2547 -0.2516
 5046TIP3    H136629   2.196   1.005  15.031 -0.8825  2.0718 -1.4186
 5046TIP3    H236630   2.209   0.890  14.933  1.1178  0.4767  0.6319
 5047TIP3   OH236631   3.755   3.157   2.258  0.0136  0.1340 -0.6091
 5047TIP3    H136632   3.686   3.212   2.221 -0.9634 -0.4595  0.3078
 5047TIP3    H236633   3.825   3.160   2.192 -0.8880  0.7026 -1.5747
 5048TIP3   OH236634   3.657   3.247  13.500 -0.0997 -0.3700 -0.1233
 5048TIP3    H136635   3.712   3.314  13.460 -0.8520 -0.6812 -1.7308
 5048TIP3    H236636   3.588   3.296  13.544 -0.6476 -0.0636 -1.2952
 5049TIP3   OH236637   2.379   4.454   5.149 -0.0297  0.0002 -0.0424
 5049TIP3    H136638   2.448   4.400   5.187 -0.1552 -2.1526 -2.6458
 5049TIP3    H236639   2.298   4.418   5.184  0.0054  0.8393  0.9575
 5050TIP3   OH236640   2.137   0.803  13.756  0.1846 -0.0868  0.4335
 5050TIP3    H136641   2.088   0.829  13.834  0.8873  1.5267  0.3913
 5050TIP3    H236642   2.102   0.860  13.687  0.4855 -0.5734 -0.1265
 5051TIP3   OH236643   3.308   0.038  14.829  0.0148  0.6130 -0.0325
 5051TIP3    H136644   3.285   0.003  14.743 -0.7342  0.8118  0.0792
 5051TIP3    H236645   3.358   0.117  14.810  0.6370  0.1674 -0.2827
 5052TIP3   OH236646   0.825   1.433  15.194  0.4370  0.5468  0.0870
 5052TIP3    H136647   0.876   1.373  15.140  0.1717 -0.0215  0.4575
 5052TIP3    H236648   0.872   1.437  15.277  0.4203  0.8053  0.0861
 5053TIP3   OH236649   1.759   6.504   4.199 -0.8078 -0.2047  0.0510
 5053TIP3    H136650   1.683   6.560   4.215 -0.3238 -0.0204  2.0137
 5053TIP3    H236651   1.732   6.447   4.127 -1.9728  1.3259 -0.7924
 5054TIP3   OH236652   5.132   0.377  12.570 -0.3619  0.2018 -0.2344
 5054TIP3    H136653   5.162   0.308  12.511 -0.9294  0.0548 -0.3630
 5054TIP3    H236654   5.191   0.450  12.555  0.6068 -0.4460  0.3146
 5055TIP3   OH236655   2.447   6.432  11.560  0.0700  0.4126 -0.2425
 5055TIP3    H136656   2.487   6.411  11.644 -0.3590  0.1920 -0.0864
 5055TIP3    H236657   2.416   6.348  11.527 -1.5861  0.7485  0.3454
 5056TIP3   OH236658   0.283   0.742   2.930  0.8185  0.5010  0.3490
 5056TIP3    H136659   0.280   0.810   2.997  0.4206  0.1797  0.6649
 5056TIP3    H236660   0.209   0.685   2.951  0.6138  0.4663 -0.4336
 5057TIP3   OH236661   0.926   1.241   1.458 -0.6745  0.0720 -0.0455
 5057TIP3    H136662   1.020   1.228   1.473 -0.2780  1.4626 -1.0886
 5057TIP3    H236663   0.913   1.220   1.366 -1.2968  0.3372 -0.0217
 5058TIP3   OH236664   1.584   6.344  13.205 -0.2584  0.4335  0.0259
 5058TIP3    H136665   1.544   6.430  13.189  0.2284  0.9351  1.3857
 5058TIP3    H236666   1.661   6.363  13.259  0.7367 -0.7137 -0.9232
 5059TIP3   OH236667   2.639   3.506  12.007  0.6704 -1.0087 -0.5284
 5059TIP3    H136668   2.666   3.492  11.916  0.3875 -0.4064 -0.7153
 5059TIP3    H236669   2.546   3.482  12.008 -0.1182  1.6677 -1.1069
 5060TIP3   OH236670   0.105   5.103  14.312  0.1188  0.1604  0.3333
 5060TIP3    H136671   0.056   5.102  14.394 -2.3283 -0.6540 -1.0363
 5060TIP3    H236672   0.115   5.196  14.291  0.1641  0.3603  1.2158
 5061TIP3   OH236673   5.350   0.252   3.403 -0.2973  0.4336  0.1754
 5061TIP3    H136674   5.416   0.187   3.429  1.4846  1.6222 -1.0934
 5061TIP3    H236675   5.309   0.214   3.326  0.5858  0.6659 -0.4304
 5062TIP3   OH236676   5.370   0.064   0.170 -0.1853  0.1075  0.0108
 5062TIP3    H136677   5.313   0.040   0.243 -0.9501 -0.2545 -0.6796
 5062TIP3    H236678   5.326   0.139   0.130  0.5536  0.6923  0.2876
 5063TIP3   OH236679   3.411   4.928  13.585 -0.3167 -0.5663 -0.2718
 5063TIP3    H136680   3.491   4.940  13.635 -0.5634 -0.8269  0.1871
 5063TIP3    H236681   3.378   5.017  13.571  1.8495 -0.0982 -3.4933
 5064TIP3   OH236682   3.093   0.850   2.210 -0.3938  0.4936  0.0727
 5064TIP3    H136683   3.163   0.824   2.150 -0.6688  2.3829 -1.1390
 5064TIP3    H236684   3.022   0.881   2.153 -1.2754  0.8835  1.3381
 5065TIP3   OH236685   2.580   1.502  11.357  0.4940  0.0491 -0.3026
 5065TIP3    H136686   2.634   1.577  11.383  0.7390  0.1396 -1.0426
 5065TIP3    H236687   2.528   1.481  11.435 -0.3132  1.6317 -0.3775
 5066TIP3   OH236688   3.603   3.624  14.099 -0.1255 -0.0175 -0.5493
 5066TIP3    H136689   3.585   3.566  14.173 -0.6834 -0.1791 -0.8083
 5066TIP3    H236690   3.678   3.676  14.128 -0.8972  0.5541  0.4973
 5067TIP3   OH236691   5.580   6.262  11.301  0.2793 -0.0002  0.0326
 5067TIP3    H136692   5.653   6.288  11.356  0.7304  0.8874 -0.9438
 5067TIP3    H236693   5.618   6.251  11.214 -0.7365  0.5500 -0.5125
 5068TIP3   OH236694   4.913   1.353  10.585 -0.1262  0.4367 -0.9240
 5068TIP3    H136695   4.910   1.359  10.681 -0.3240  2.8736 -1.0048
 5068TIP3    H236696   4.890   1.262  10.566 -3.0221  0.5611  1.2582
 5069TIP3   OH236697   6.550   1.223  14.336 -0.0969 -0.2848 -0.1530
 5069TIP3    H136698   6.516   1.179  14.258 -0.7306  0.7435 -0.4847
 5069TIP3    H236699   6.629   1.175  14.358 -0.4924 -1.2679 -0.7856
 5070TIP3   OH236700   2.464   2.485  12.911 -0.7152 -0.4801  0.1300
 5070TIP3    H136701   2.402   2.419  12.940  1.9886 -2.7558  1.1592
 5070TIP3    H236702   2.449   2.560  12.970 -3.3986 -0.3324 -0.6521
 5071TIP3   OH236703   6.674   2.620   1.314  0.5120  0.9465  0.1207
 5071TIP3    H136704   6.628   2.581   1.239 -0.0330  0.2148  0.8280
 5071TIP3    H236705   6.667   2.715   1.299 -1.1724  0.8607  0.1551
 5072TIP3   OH236706   4.942   0.198   3.990 -0.0538 -0.3162 -0.2065
 5072TIP3    H136707   4.920   0.111   3.955  3.2809 -2.3688  2.1863
 5072TIP3    H236708   4.909   0.196   4.080 -0.9546  1.4209 -0.4712
 5073TIP3   OH236709   1.729   3.978   4.125 -0.2735 -0.4162 -0.3214
 5073TIP3    H136710   1.754   3.894   4.163 -0.0506 -0.9512 -1.6060
 5073TIP3    H236711   1.641   3.963   4.090  0.1906 -0.4502 -1.5056
 5074TIP3   OH236712   0.465   3.545  14.423  0.3060  0.1797 -0.5971
 5074TIP3    H136713   0.385   3.533  14.474  1.0664  0.4795  0.7033
 5074TIP3    H236714   0.471   3.466  14.369 -1.3051  0.5418 -1.3740
 5075TIP3   OH236715   6.435   4.977  16.395  0.0602 -0.4824 -0.2130
 5075TIP3    H136716   6.437   5.033  16.473 -0.0812 -2.6928  1.4554
 5075TIP3    H236717   6.376   5.023  16.334 -1.3301  0.3930  1.6949
 5076TIP3   OH236718   2.315   6.790   0.226 -0.2655 -0.2722  0.1439
 5076TIP3    H136719   2.377   6.796   0.153  0.3175  2.0203  0.7578
 5076TIP3    H236720   2.369   6.759   0.300  0.2986  1.9304  0.7339
 5077TIP3   OH236721   6.661   2.220  15.531 -0.0106 -0.1853  0.0042
 5077TIP3    H136722   6.733   2.255  15.479 -0.9344  0.7318 -0.7121
 5077TIP3    H236723   6.691   2.225  15.621  0.2688  1.5999 -0.1530
 5078TIP3   OH236724   3.497   1.834   0.414  0.3693  0.1586 -0.2218
 5078TIP3    H136725   3.410   1.871   0.397 -0.3756 -1.0186  0.7908
 5078TIP3    H236726   3.531   1.813   0.327 -0.5105  0.3469 -0.6307
 5079TIP3   OH236727   6.292   1.609   2.600  0.7120  0.4553 -0.0147
 5079TIP3    H136728   6.355   1.571   2.539  1.3370  0.4666  0.6158
 5079TIP3    H236729   6.294   1.703   2.582 -0.3399  0.2896 -1.1120
 5080TIP3   OH236730   2.632   3.222   1.495  0.5399 -0.7671 -0.5596
 5080TIP3    H136731   2.547   3.253   1.464  1.0999  0.5983 -0.8049
 5080TIP3    H236732   2.684   3.302   1.507  1.2551 -1.4303  1.2022
 5081TIP3   OH236733   1.853   1.408  14.457  0.0932  0.5125 -0.1984
 5081TIP3    H136734   1.894   1.341  14.402  0.6415  1.7886 -1.3910
 5081TIP3    H236735   1.914   1.482  14.453 -1.6527  1.9646 -0.8622
 5082TIP3   OH236736   5.741   3.415   4.678 -0.3071 -0.3006 -0.3422
 5082TIP3    H136737   5.738   3.510   4.660 -0.9429 -0.0611  0.9683
 5082TIP3    H236738   5.672   3.400   4.741  1.8617 -1.0679  2.0080
 5083TIP3   OH236739   3.807   1.958   3.412  0.0999 -0.4788 -0.4272
 5083TIP3    H136740   3.778   1.954   3.321 -0.6819 -2.5478 -0.1447
 5083TIP3    H236741   3.902   1.958   3.408  0.0937 -2.1931 -1.2519
 5084TIP3   OH236742   5.456   2.453   1.324 -0.1992 -0.1019 -0.0951
 5084TIP3    H136743   5.363   2.432   1.314 -0.4304  0.4996  0.7355
 5084TIP3    H236744   5.495   2.428   1.240 -1.6658  2.6099 -1.7247
 5085TIP3   OH236745   5.858   1.886   2.909 -0.0177  0.2736 -0.3284
 5085TIP3    H136746   5.848   1.812   2.850 -0.4704  1.0658 -1.2623
 5085TIP3    H236747   5.924   1.857   2.972  0.9263 -0.3723 -1.5722
 5086TIP3   OH236748   0.727   5.822   2.961  0.4470  0.3744  0.0035
 5086TIP3    H136749   0.806   5.809   2.909  0.4394 -0.7046  0.2380
 5086TIP3    H236750   0.746   5.899   3.014  1.1865  0.3586 -0.2269
 5087TIP3   OH236751   5.596   4.992  15.552  0.2865  0.5076  0.0571
 5087TIP3    H136752   5.554   4.951  15.477 -1.4614 -1.0796  1.7686
 5087TIP3    H236753   5.542   5.069  15.571  0.4149  0.6163 -0.0219
 5088TIP3   OH236754   1.974   5.379  11.883  0.1762  0.0380 -0.7709
 5088TIP3    H136755   1.891   5.331  11.880  0.5171 -0.7092  0.6534
 5088TIP3    H236756   2.031   5.330  11.823  0.0879 -0.4712 -0.4490
 5089TIP3   OH236757   1.086   0.690  11.109  0.2005 -0.6516  0.2817
 5089TIP3    H136758   1.041   0.614  11.074  3.5539 -3.1442  0.8613
 5089TIP3    H236759   1.069   0.687  11.204  0.1968 -0.5554  0.2847
 5090TIP3   OH236760   6.240   5.329  15.202 -0.1830 -0.3163 -0.1803
 5090TIP3    H136761   6.231   5.357  15.293 -1.6496  0.3899 -0.5020
 5090TIP3    H236762   6.296   5.251  15.206 -0.8407 -0.7479  1.4201
 5091TIP3   OH236763   3.056   6.250   5.207  0.1210  0.4204 -0.1704
 5091TIP3    H136764   3.150   6.257   5.222 -0.1617  1.1097  1.5128
 5091TIP3    H236765   3.044   6.163   5.168  1.5429  0.7478 -1.4294
 5092TIP3   OH236766   1.230   1.505  10.496  0.0006  0.4880  0.2524
 5092TIP3    H136767   1.301   1.559  10.532 -0.8304  1.4725  0.4600
 5092TIP3    H236768   1.218   1.434  10.559  0.7979  0.3127  0.2145
 5093TIP3   OH236769   3.199   2.794   4.949  0.2750  0.3160 -0.3257
 5093TIP3    H136770   3.203   2.861   4.881  1.4393  3.4968  2.5697
 5093TIP3    H236771   3.286   2.755   4.949 -0.3968 -1.3390 -1.9997
 5094TIP3   OH236772   5.469   2.339  14.866  0.3064 -0.4975  0.0322
 5094TIP3    H136773   5.510   2.332  14.953  0.9718  2.6551  0.0715
 5094TIP3    H236774   5.540   2.319  14.805  0.8342  0.8022  0.1901
 5095TIP3   OH236775   2.507   6.863  10.465 -0.3524  0.6299  0.2227
 5095TIP3    H136776   2.570   6.831  10.400 -0.8058 -1.7945  0.8507
 5095TIP3    H236777   2.503   6.793  10.531 -4.2023  0.2346 -0.1539
 5096TIP3   OH236778   4.818   1.097  11.360 -0.2600 -0.1866 -0.9764
 5096TIP3    H136779   4.840   1.058  11.275  0.3899  0.5906 -1.1754
 5096TIP3    H236780   4.898   1.142  11.387 -1.2370  1.7971 -1.2052
 5097TIP3   OH236781   1.261   2.678   3.798 -0.2620 -0.0602  0.7518
 5097TIP3    H136782   1.320   2.674   3.874  0.6511  2.4236  0.2793
 5097TIP3    H236783   1.237   2.770   3.792 -0.3800 -0.2031 -1.9368
 5098TIP3   OH236784   0.800   0.742   2.453 -0.2453 -0.3874  0.1179
 5098TIP3    H136785   0.712   0.733   2.490 -0.3146  1.8432  0.6548
 5098TIP3    H236786   0.800   0.829   2.412  1.7832 -0.2034  0.3986
 5099TIP3   OH236787   2.309   5.022   2.891 -0.1841  0.0965  0.0657
 5099TIP3    H136788   2.290   5.090   2.826  1.8509  1.0878  0.4284
 5099TIP3    H236789   2.391   5.050   2.932 -1.0689 -0.7992  2.6557
 5100TIP3   OH236790   1.713   0.849   0.201 -0.1692  0.1656  0.1735
 5100TIP3    H136791   1.726   0.755   0.188 -0.1463  0.2342 -0.3004
 5100TIP3    H236792   1.724   0.888   0.114  0.6844  0.7033  0.5091
 5101TIP3   OH236793   5.234   6.852  15.727 -0.3909  0.2176  0.4049
 5101TIP3    H136794   5.158   6.824  15.780 -0.3888  0.1593  0.3768
 5101TIP3    H236795   5.301   6.874  15.792  0.1753 -1.3984  0.4230
 5102TIP3   OH236796   2.213   1.295  11.055  0.5178  0.0228 -0.0866
 5102TIP3    H136797   2.269   1.317  11.130  1.3638 -0.7136 -0.4950
 5102TIP3    H236798   2.258   1.224  11.010 -0.7597 -0.6027 -0.4265
 5103TIP3   OH236799   0.962   6.593  13.259  0.5430 -0.2166  0.3115
 5103TIP3    H136800   0.902   6.538  13.208  1.4120 -0.8884 -0.0209
 5103TIP3    H236801   0.952   6.562  13.349  0.0096  0.0404  0.3480
 5104TIP3   OH236802   5.945   1.946  13.810  0.4875  0.3214 -0.2321
 5104TIP3    H136803   5.901   2.007  13.869 -0.6699  0.4796 -1.2373
 5104TIP3    H236804   5.891   1.867  13.811  0.8243  0.0793 -0.5700
 5105TIP3   OH236805   3.516   2.729   1.343  0.1104 -0.1608  0.0952
 5105TIP3    H136806   3.461   2.662   1.303 -1.1201 -0.0029  1.4491
 5105TIP3    H236807   3.536   2.789   1.271  1.0691 -1.8208 -1.0898
 5106TIP3   OH236808   5.738   5.725   1.076 -0.1925  0.1041  0.3021
 5106TIP3    H136809   5.833   5.729   1.087 -0.4360 -0.5163  3.3899
 5106TIP3    H236810   5.717   5.804   1.026  2.0508 -0.6985 -2.1764
 5107TIP3   OH236811   3.675   2.553  12.091 -0.0814 -0.0555  0.1270
 5107TIP3    H136812   3.602   2.577  12.147  0.2127 -1.3794  1.1378
 5107TIP3    H236813   3.749   2.544  12.151  0.6735  0.3009 -0.7407
 5108TIP3   OH236814   1.310   0.140   2.838  0.3729  0.1408 -0.4577
 5108TIP3    H136815   1.351   0.169   2.757 -0.5057 -0.3489 -1.0909
 5108TIP3    H236816   1.242   0.079   2.810  0.6298 -0.7127  0.7031
 5109TIP3   OH236817   1.774   4.451  14.222 -0.5766  0.6436 -0.4421
 5109TIP3    H136818   1.848   4.399  14.189  1.7339  3.6683 -0.4349
 5109TIP3    H236819   1.753   4.411  14.306 -1.5340 -2.5435 -2.0360
 5110TIP3   OH236820   2.776   6.469  13.685 -0.3672 -0.4934 -0.0341
 5110TIP3    H136821   2.724   6.408  13.632  0.2212 -2.1715  1.2243
 5110TIP3    H236822   2.861   6.427  13.694  0.2768  0.8366  0.3728
 5111TIP3   OH236823   5.909   2.250  14.215  0.5179  0.4830  0.7949
 5111TIP3    H136824   5.994   2.288  14.193  0.4248 -0.3568 -1.1924
 5111TIP3    H236825   5.928   2.190  14.287  1.6132  0.2800  0.3530
 5112TIP3   OH236826   2.936   2.384  10.969  0.1517 -0.3860 -0.3660
 5112TIP3    H136827   2.953   2.392  10.875  0.0233 -0.9653 -0.4473
 5112TIP3    H236828   2.999   2.318  10.999 -1.6566 -2.3348 -0.6150
 5113TIP3   OH236829   0.358   3.380   3.014 -0.3870 -0.2545  0.2356
 5113TIP3    H136830   0.370   3.444   2.944 -2.8017  1.4245  1.2129
 5113TIP3    H236831   0.440   3.330   3.016  1.5875  2.7010 -0.6896
 5114TIP3   OH236832   1.418   1.671  13.473 -0.1226 -0.3929  0.3530
 5114TIP3    H136833   1.389   1.758  13.502  0.3422  0.2419 -1.0035
 5114TIP3    H236834   1.509   1.666  13.503  0.2859  0.1694 -0.7482
 5115TIP3   OH236835   1.710   0.216   3.774 -0.0726 -0.1274 -0.1100
 5115TIP3    H136836   1.784   0.203   3.715  0.6325 -1.0609  0.9518
 5115TIP3    H236837   1.639   0.245   3.716  1.0606  0.6612 -1.1697
 5116TIP3   OH236838   0.212   2.464  11.995  0.3692  0.5861  0.4329
 5116TIP3    H136839   0.225   2.554  12.023 -0.1905  0.0941  2.4050
 5116TIP3    H236840   0.119   2.446  12.013  0.5722 -0.5152  0.4828
 5117TIP3   OH236841   1.150   3.998   3.575 -0.0911 -0.1669 -0.8723
 5117TIP3    H136842   1.156   3.955   3.660  0.1837 -0.0761 -0.8455
 5117TIP3    H236843   1.101   3.937   3.520 -2.3334  0.7604 -0.0036
 5118TIP3   OH236844   4.704   1.198  16.051 -0.1341 -0.1569 -0.5156
 5118TIP3    H136845   4.712   1.205  15.956 -0.2169 -3.4167 -0.8690
 5118TIP3    H236846   4.792   1.211  16.084 -0.1120  1.0402 -0.9953
 5119TIP3   OH236847   4.861   2.103  11.487 -0.3740 -0.7328 -0.2565
 5119TIP3    H136848   4.791   2.165  11.466 -0.7630 -0.3017  1.9928
 5119TIP3    H236849   4.937   2.158  11.504 -0.8804 -0.7131  2.3741
 5120TIP3   OH236850   5.989   3.636  14.434 -0.5115  0.0410  0.1769
 5120TIP3    H136851   5.984   3.542  14.417 -1.3221 -0.0684  0.9499
 5120TIP3    H236852   5.964   3.645  14.526 -2.3823  1.1849 -0.3781
 5121TIP3   OH236853   4.737   0.359  14.538 -0.3972 -0.1208 -0.6508
 5121TIP3    H136854   4.652   0.403  14.529 -1.4941 -1.6524  1.1796
 5121TIP3    H236855   4.779   0.403  14.612 -0.8998 -1.1603  0.2922
 5122TIP3   OH236856   2.090   6.879   3.594  0.4103  0.1334 -0.1014
 5122TIP3    H136857   2.071   6.926   3.512 -0.4404  1.0440  0.5922
 5122TIP3    H236858   2.091   6.948   3.660 -0.4126 -0.7805  0.8887
 5123TIP3   OH236859   0.412   5.736   2.619 -0.0488 -0.3959 -0.0586
 5123TIP3    H136860   0.427   5.752   2.712  2.9426  1.0851 -0.6781
 5123TIP3    H236861   0.344   5.669   2.617 -2.0932  1.3314  3.1078
 5124TIP3   OH236862   5.106   4.475   3.060  0.1202 -0.5008 -0.1219
 5124TIP3    H136863   5.115   4.557   3.108 -0.7491 -1.5835  2.0225
 5124TIP3    H236864   5.091   4.409   3.128 -0.9669 -2.1769 -1.8882
 5125TIP3   OH236865   0.856   6.322  13.114 -0.1735 -0.3525 -0.2629
 5125TIP3    H136866   0.925   6.261  13.088 -0.5819 -0.6317 -0.7131
 5125TIP3    H236867   0.820   6.354  13.031 -0.0023  0.4639 -0.0365
 5126TIP3   OH236868   3.896   0.444   4.610 -0.0056 -0.7262 -0.0319
 5126TIP3    H136869   3.962   0.443   4.680  1.4423  1.2029 -1.2455
 5126TIP3    H236870   3.910   0.528   4.566 -2.8141 -0.5915 -0.8407
 5127TIP3   OH236871   3.453   4.746   4.767  0.0855  0.0935  0.3776
 5127TIP3    H136872   3.441   4.654   4.745 -1.4764  0.8713 -2.5861
 5127TIP3    H236873   3.387   4.763   4.834 -0.3095 -0.7110  0.2047
 5128TIP3   OH236874   4.007   2.675   1.988 -0.4567  0.6087 -0.2383
 5128TIP3    H136875   3.915   2.666   1.964 -0.5234  1.9240 -0.5398
 5128TIP3    H236876   4.035   2.757   1.948  0.6991  0.5264  0.3373
 5129TIP3   OH236877   1.246   4.644  12.565  0.5144  0.2709  0.5014
 5129TIP3    H136878   1.258   4.636  12.659 -1.2562 -0.4010  0.7165
 5129TIP3    H236879   1.153   4.625  12.551  1.0226 -1.0804 -1.5261
 5130TIP3   OH236880   2.679   1.917  11.823  0.5707  0.3618  0.0212
 5130TIP3    H136881   2.606   1.919  11.884 -0.1716  2.3059 -0.8614
 5130TIP3    H236882   2.690   1.824  11.802 -1.0422 -0.0563  0.8716
 5131TIP3   OH236883   4.876   0.098  13.973  0.2332 -0.9707 -0.2364
 5131TIP3    H136884   4.928   0.176  13.952  0.5663 -0.9297  0.6792
 5131TIP3    H236885   4.859   0.057  13.888  0.6243 -0.2604 -0.6682
 5132TIP3   OH236886   2.686   3.426  15.038 -0.1196 -0.3631  0.0377
 5132TIP3    H136887   2.605   3.381  15.012 -1.3068  1.6199  0.0721
 5132TIP3    H236888   2.684   3.425  15.134 -0.9182  0.9996  0.0530
 5133TIP3   OH236889   6.839   3.664  16.165 -0.2023  0.4556 -0.7489
 5133TIP3    H136890   6.906   3.724  16.133  3.3269 -2.6183  0.2194
 5133TIP3    H236891   6.814   3.613  16.088  0.2882  0.1172 -0.6872
 5134TIP3   OH236892   3.875   6.798   5.040  0.6990 -0.3423  0.4336
 5134TIP3    H136893   3.969   6.788   5.051  1.1150  0.9974 -1.3601
 5134TIP3    H236894   3.857   6.889   5.063 -0.2705 -0.7169  1.2644
 5135TIP3   OH236895   2.716   1.609   0.489  0.1622 -0.3094  1.1050
 5135TIP3    H136896   2.745   1.520   0.470  0.8145  0.0458  0.3521
 5135TIP3    H236897   2.626   1.613   0.456  0.0126 -0.7805  1.4464
 5136TIP3   OH236898   5.853   0.582   3.141 -0.3818 -0.6672  0.5178
 5136TIP3    H136899   5.831   0.564   3.050  1.5271  1.1415 -0.3867
 5136TIP3    H236900   5.899   0.504   3.171  3.3567  0.4072 -1.7297
 5137TIP3   OH236901   2.475   1.592  12.000 -0.1651 -0.2042  0.0554
 5137TIP3    H136902   2.433   1.676  11.983 -0.3010 -0.3412 -0.3061
 5137TIP3    H236903   2.445   1.536  11.929  1.3791 -0.0453 -0.7742
 5138TIP3   OH236904   4.810   0.506  13.568 -0.2539 -0.4356 -0.8062
 5138TIP3    H136905   4.794   0.425  13.616  2.4800 -0.8551 -0.4634
 5138TIP3    H236906   4.724   0.530  13.532 -1.9296 -1.3499  2.2689
 5139TIP3   OH236907   6.799   4.582   5.327  0.1957 -0.4654  0.5120
 5139TIP3    H136908   6.758   4.632   5.397  0.5342  2.2203 -1.0645
 5139TIP3    H236909   6.737   4.586   5.254  1.6092  0.5379 -0.7018
 5140TIP3   OH236910   6.813   3.933   2.844 -0.4389 -0.8428  0.1612
 5140TIP3    H136911   6.731   3.978   2.823  0.1390 -0.2056 -0.8614
 5140TIP3    H236912   6.827   3.951   2.937 -0.8770  0.0256  0.0779
 5141TIP3   OH236913   1.790   6.436  12.641 -0.2417 -0.3922 -0.1807
 5141TIP3    H136914   1.747   6.469  12.562 -0.7397 -0.3458  0.1055
 5141TIP3    H236915   1.757   6.492  12.711 -1.2078 -1.5547  0.3315
 5142TIP3   OH236916   3.205   2.479  12.463  0.3448  0.1906  0.5778
 5142TIP3    H136917   3.143   2.551  12.473  0.1238  0.0798  0.0525
 5142TIP3    H236918   3.166   2.423  12.396 -0.0310 -1.0149  1.7840
 5143TIP3   OH236919   6.799   3.104  15.562 -0.9975 -0.0345 -0.3199
 5143TIP3    H136920   6.796   3.013  15.533 -2.0208 -0.7889  1.8956
 5143TIP3    H236921   6.878   3.109  15.616 -1.3071  0.1987  0.1179
 5144TIP3   OH236922   2.527   5.338   3.937 -0.1230 -0.3030  0.2719
 5144TIP3    H136923   2.505   5.426   3.905  0.1803 -0.5037 -0.5091
 5144TIP3    H236924   2.477   5.329   4.019  0.7826  1.0550  1.0035
 5145TIP3   OH236925   3.490   5.328   4.805 -0.6940  0.6426 -0.3108
 5145TIP3    H136926   3.525   5.239   4.795  0.6820  1.0471  0.5997
 5145TIP3    H236927   3.560   5.385   4.770 -1.2895  1.3982 -0.2895
 5146TIP3   OH236928   5.500   4.314  10.351  0.4707 -0.2393 -0.0129
 5146TIP3    H136929   5.446   4.366  10.291  1.0038  0.2288 -0.0987
 5146TIP3    H236930   5.443   4.299  10.427  0.5367  1.1424  0.3470
 5147TIP3   OH236931   0.446   2.863   5.663 -0.1447  0.3616  0.4622
 5147TIP3    H136932   0.395   2.939   5.636 -0.5798  0.8241  2.4138
 5147TIP3    H236933   0.409   2.790   5.614 -3.7717  0.3919  2.7553
 5148TIP3   OH236934   3.620   0.077   3.109  0.1035 -0.0903  0.3987
 5148TIP3    H136935   3.555   0.036   3.051 -0.4028 -0.7953  1.4294
 5148TIP3    H236936   3.704   0.044   3.076 -0.1516 -0.2298 -0.1335
 5149TIP3   OH236937   2.763   5.489  14.963  0.0460  0.1587  0.5559
 5149TIP3    H136938   2.777   5.405  15.007 -1.9186  0.7730  2.5222
 5149TIP3    H236939   2.812   5.552  15.016  0.4949  0.4458 -0.1857
 5150TIP3   OH236940   3.964   0.327  15.523 -0.6865 -0.0847 -0.4197
 5150TIP3    H136941   3.874   0.360  15.518 -0.0168  1.7322 -1.7184
 5150TIP3    H236942   4.017   0.404  15.542  0.7493 -0.8214 -1.2330
 5151TIP3   OH236943   6.651   3.283  16.506  0.0996 -0.0457 -0.2231
 5151TIP3    H136944   6.572   3.284  16.451  1.1813  0.4367 -1.8458
 5151TIP3    H236945   6.627   3.230  16.582 -1.0395 -2.0087 -1.8494
 5152TIP3   OH236946   0.164   1.813   4.539 -0.2134  0.2455  0.2836
 5152TIP3    H136947   0.078   1.835   4.575 -1.7559 -4.4840  0.3007
 5152TIP3    H236948   0.146   1.781   4.451  1.7615  0.4114 -0.2322
 5153TIP3   OH236949   3.244   0.375   0.526  0.3397 -0.1008 -0.0650
 5153TIP3    H136950   3.175   0.343   0.468  0.8428 -1.4456  0.0595
 5153TIP3    H236951   3.268   0.300   0.580  1.2441  0.6012  0.5463
 5154TIP3   OH236952   5.140   0.835  13.639 -0.2126  0.2681  0.7155
 5154TIP3    H136953   5.065   0.806  13.587  0.2888 -0.6725  0.4805
 5154TIP3    H236954   5.137   0.779  13.717  0.0206  0.4922  0.8836
 5155TIP3   OH236955   0.594   5.925  14.956  0.1431 -0.1119 -0.7569
 5155TIP3    H136956   0.522   5.970  14.912  0.0804  0.0071 -0.5328
 5155TIP3    H236957   0.661   5.992  14.968 -0.1100  0.0205 -0.0621
 5156TIP3   OH236958   4.543   1.992   5.753  0.0085  0.5430  0.1965
 5156TIP3    H136959   4.568   2.071   5.801  1.0483  0.1404  0.3467
 5156TIP3    H236960   4.585   1.920   5.801  0.0173  0.0094 -0.5827
 5157TIP3   OH236961   5.929   6.774  11.371 -0.3718  0.1697  0.3729
 5157TIP3    H136962   5.978   6.856  11.376 -0.3385  0.0744  2.1717
 5157TIP3    H236963   5.875   6.774  11.449 -3.4700  0.3602 -1.5900
 5158TIP3   OH236964   4.365   6.169   0.142 -0.5581  0.1245 -0.0814
 5158TIP3    H136965   4.459   6.169   0.125 -0.6663  0.6825 -0.7625
 5158TIP3    H236966   4.355   6.213   0.226 -0.1705 -0.5077  0.3020
 5159TIP3   OH236967   3.580   0.466   2.118  0.4519 -0.0213  0.2093
 5159TIP3    H136968   3.519   0.490   2.188 -0.7485 -1.9354 -0.0887
 5159TIP3    H236969   3.571   0.371   2.110  1.8924 -0.0864 -1.3446
 5160TIP3   OH236970   0.271   4.440  15.568 -0.3661  0.0520 -0.3177
 5160TIP3    H136971   0.298   4.349  15.567 -2.0582 -0.4873 -1.3966
 5160TIP3    H236972   0.349   4.488  15.596  0.3638 -1.7577  0.9066
 5161TIP3   OH236973   2.543   3.733  12.179 -0.4277 -0.2709 -0.3065
 5161TIP3    H136974   2.597   3.671  12.129  1.8687  1.7731 -0.5478
 5161TIP3    H236975   2.494   3.781  12.112 -1.8350 -1.3972 -0.1457
 5162TIP3   OH236976   0.325   1.836   2.491 -0.3473  0.0042  0.6296
 5162TIP3    H136977   0.339   1.750   2.453 -2.8661 -0.9203  1.5832
 5162TIP3    H236978   0.369   1.897   2.431  2.5335 -1.9398  0.5444
 5163TIP3   OH236979   6.537   1.334  10.450 -0.8293  0.1868 -0.2265
 5163TIP3    H136980   6.546   1.429  10.445  0.9487  0.0651  0.0383
 5163TIP3    H236981   6.492   1.310  10.369 -3.4829  1.4342  0.7719
 5164TIP3   OH236982   0.552   1.433   5.454  0.2345 -0.6623 -0.3166
 5164TIP3    H136983   0.493   1.417   5.527 -0.7719 -0.6553 -1.1122
 5164TIP3    H236984   0.620   1.490   5.490 -0.9625  0.4179  0.2794
 5165TIP3   OH236985   4.014   0.761   3.866 -0.1878  0.2042  0.2117
 5165TIP3    H136986   4.103   0.730   3.882 -0.6524  0.1034  3.0686
 5165TIP3    H236987   3.979   0.701   3.800  1.4930 -0.4057 -0.1753
 5166TIP3   OH236988   2.609   4.546  13.098 -0.6698 -0.2209 -0.2930
 5166TIP3    H136989   2.696   4.564  13.135 -0.5902  0.3077 -0.7234
 5166TIP3    H236990   2.628   4.510  13.011 -0.8816 -0.0664 -0.4029
 5167TIP3   OH236991   4.151   2.062   2.759 -0.0916  0.4423 -0.2207
 5167TIP3    H136992   4.153   1.968   2.746 -1.6482  0.1911  0.9942
 5167TIP3    H236993   4.083   2.076   2.825  1.3419  2.2619  0.9952
 5168TIP3   OH236994   0.578   4.640   1.371  0.5565  0.2364 -0.3858
 5168TIP3    H136995   0.621   4.724   1.353 -0.7139  0.4061 -3.2239
 5168TIP3    H236996   0.642   4.574   1.345  1.0711  0.3296  0.6022
 5169TIP3   OH236997   3.714   5.100   1.561  0.0630  0.8634 -0.2996
 5169TIP3    H136998   3.727   5.155   1.484 -1.0300 -0.3779 -1.4073
 5169TIP3    H236999   3.663   5.155   1.621 -2.1199  0.7340 -1.8905
 5170TIP3   OH237000   1.157   1.565   3.650 -0.8224 -0.6918  0.2440
 5170TIP3    H137001   1.130   1.632   3.587  1.1747 -2.0309 -2.2146
 5170TIP3    H237002   1.140   1.482   3.606  0.9853 -1.6843  1.2857
 5171TIP3   OH237003   3.479   1.999  12.292  0.1853 -0.1738  0.3600
 5171TIP3    H137004   3.444   1.992  12.380 -2.1407  0.5666 -0.4407
 5171TIP3    H237005   3.445   1.923  12.246  1.9393 -0.9334  0.2108
 5172TIP3   OH237006   0.817   0.143   5.118  0.6588 -0.6156  0.8962
 5172TIP3    H137007   0.796   0.152   5.211 -1.3279 -0.9571  0.5318
 5172TIP3    H237008   0.857   0.227   5.094  0.5500 -0.2676  1.9039
 5173TIP3   OH237009   5.897   0.190   5.385 -0.4833 -0.5777  0.7206
 5173TIP3    H137010   5.989   0.185   5.410 -0.3025  0.1443  0.2318
 5173TIP3    H237011   5.849   0.186   5.467  0.1310  2.8334  1.3832
 5174TIP3   OH237012   2.271   2.674  16.858 -0.6369  0.4348 -0.3514
 5174TIP3    H137013   2.244   2.762  16.832  2.3539  1.5506 -0.0962
 5174TIP3    H237014   2.285   2.681  16.952  1.3530  0.2873 -0.5876
 5175TIP3   OH237015   3.739   5.837   5.262  0.1442 -0.0814 -0.1875
 5175TIP3    H137016   3.758   5.867   5.351 -1.9524 -1.5149  0.8421
 5175TIP3    H237017   3.690   5.909   5.223 -0.8164 -0.2506  0.6372
 5176TIP3   OH237018   1.110   5.206  11.745 -0.8763  0.6513 -0.5291
 5176TIP3    H137019   1.116   5.223  11.839 -1.0219  1.0811 -0.5934
 5176TIP3    H237020   1.169   5.132  11.730  0.2933  1.5043 -0.3239
 5177TIP3   OH237021   5.429   2.881  16.828 -0.3272 -0.4495 -0.3085
 5177TIP3    H137022   5.440   2.788  16.849 -1.7756 -1.5173 -3.5685
 5177TIP3    H237023   5.487   2.895  16.753  0.7298  1.6574  0.8244
 5178TIP3   OH237024   3.554   5.838  12.354  0.1795  0.2949 -0.7377
 5178TIP3    H137025   3.475   5.890  12.341  0.6345  1.4156  0.6840
 5178TIP3    H237026   3.624   5.890  12.314  0.3440 -0.2140 -1.1150
 5179TIP3   OH237027   5.828   2.110   4.121  0.2213  0.1751 -0.1100
 5179TIP3    H137028   5.833   2.116   4.217  1.6999 -2.0258  0.0017
 5179TIP3    H237029   5.743   2.150   4.100  0.6784  2.4777  1.8938
 5180TIP3   OH237030   4.389   2.664  14.083 -0.0680  0.3769 -0.5152
 5180TIP3    H137031   4.366   2.692  13.994 -2.5006  0.9093  0.2134
 5180TIP3    H237032   4.307   2.634  14.121  0.9428  0.0359  1.5372
 5181TIP3   OH237033   0.081   5.845   6.320  0.6357 -0.5130 -0.2332
 5181TIP3    H137034   0.030   5.773   6.357 -0.7985  0.4398 -0.2698
 5181TIP3    H237035   0.148   5.802   6.266  1.0710 -1.8457  1.3122
 5182TIP3   OH237036   6.042   2.741   0.792 -0.4658 -0.0876 -0.0496
 5182TIP3    H137037   6.065   2.796   0.868 -2.9315  1.2573 -0.1803
 5182TIP3    H237038   6.031   2.653   0.829 -0.8121  0.3860  1.0199
 5183TIP3   OH237039   3.923   6.154  14.212  0.3574  0.4875  0.1118
 5183TIP3    H137040   3.883   6.073  14.243  2.1058  0.1269  1.5672
 5183TIP3    H237041   3.875   6.223  14.256 -1.2035  0.3084 -1.2053
 5184TIP3   OH237042   2.244   3.722   0.298 -0.4174  0.1150  0.8524
 5184TIP3    H137043   2.226   3.628   0.308 -0.8945  0.2497  1.3400
 5184TIP3    H237044   2.286   3.730   0.213 -0.4272 -0.5356  0.7816
 5185TIP3   OH237045   3.575   6.551   3.768 -0.7144  0.4100  0.4942
 5185TIP3    H137046   3.657   6.502   3.766 -0.1035  1.4346 -0.3746
 5185TIP3    H237047   3.538   6.530   3.854  0.9155  0.6547  1.3155
 5186TIP3   OH237048   5.024   5.315   4.733  0.0653  0.0682 -0.1147
 5186TIP3    H137049   4.989   5.270   4.656 -0.6541 -0.1173  0.3126
 5186TIP3    H237050   5.020   5.408   4.711  1.0332 -0.0250 -0.7810
 5187TIP3   OH237051   2.360   6.844  13.990 -0.2109  0.4928 -0.0987
 5187TIP3    H137052   2.319   6.930  13.999  0.7006  1.0795 -1.2373
 5187TIP3    H237053   2.449   6.856  14.023  0.8550  0.8050 -2.8197
 5188TIP3   OH237054   0.954   1.035   2.560 -0.2743  0.4711 -0.1189
 5188TIP3    H137055   0.934   1.129   2.558  1.4027  0.8987  1.1785
 5188TIP3    H237056   1.001   1.019   2.478 -1.1783  0.5871 -0.6764
 5189TIP3   OH237057   2.615   2.863   4.626  0.1078 -0.0385  0.0800
 5189TIP3    H137058   2.552   2.920   4.672 -0.7626  0.0008 -1.1253
 5189TIP3    H237059   2.643   2.915   4.550 -0.4366 -1.0721 -0.8501
 5190TIP3   OH237060   5.344   3.864   3.743  0.1623 -0.1625 -0.1687
 5190TIP3    H137061   5.365   3.904   3.658 -1.3140  1.1066  0.0391
 5190TIP3    H237062   5.281   3.795   3.721 -2.5883  2.1012  0.1112
 5191TIP3   OH237063   3.553   3.075  13.936  0.1483 -0.3144  0.3846
 5191TIP3    H137064   3.579   3.118  14.018 -1.4520  0.0001  0.7612
 5191TIP3    H237065   3.492   3.137  13.895  2.5956  0.5844 -2.2095
 5192TIP3   OH237066   2.669   1.593  14.927  0.3582  0.0397 -0.1477
 5192TIP3    H137067   2.754   1.631  14.904  0.0896  0.2973 -0.7575
 5192TIP3    H237068   2.647   1.537  14.852 -0.3536  0.5727 -0.3518
 5193TIP3   OH237069   2.412   6.719  16.184 -0.8007 -0.0969 -0.7121
 5193TIP3    H137070   2.499   6.707  16.222 -1.5696 -2.2512  0.5259
 5193TIP3    H237071   2.425   6.702  16.090 -0.1869 -2.4435 -0.2603
 5194TIP3   OH237072   4.889   5.378  14.495 -0.1172 -0.2961 -0.0663
 5194TIP3    H137073   4.843   5.440  14.552  1.7223  0.3267  0.8260
 5194TIP3    H237074   4.907   5.302  14.550 -0.1107 -0.5432 -0.4060
 5195TIP3   OH237075   1.298   1.017   4.399 -0.4241  0.2451 -0.5433
 5195TIP3    H137076   1.361   0.946   4.410 -0.7300  0.2498  1.9536
 5195TIP3    H237077   1.350   1.090   4.366 -0.0120 -0.9307 -2.6705
 5196TIP3   OH237078   4.605   4.999  15.629  0.2676  0.3354  0.4122
 5196TIP3    H137079   4.570   5.070  15.576 -0.9091 -0.4681  0.0776
 5196TIP3    H237080   4.633   4.933  15.566 -0.2058 -0.1963  0.7401
 5197TIP3   OH237081   0.431   5.043   0.470  0.1356  0.2021 -0.2602
 5197TIP3    H137082   0.367   5.031   0.540  1.5044 -1.0174  0.8567
 5197TIP3    H237083   0.395   5.114   0.416 -1.8642 -0.0866  0.6042
 5198TIP3   OH237084   0.258   0.045  10.413 -0.1079 -0.5527  0.0853
 5198TIP3    H137085   0.342   0.090  10.420 -1.2629  1.6509  0.8799
 5198TIP3    H237086   0.248  -0.001  10.496 -0.1376  0.1021  0.4576
 5199TIP3   OH237087   0.559   3.922   5.232  0.6066  0.1916  0.3604
 5199TIP3    H137088   0.574   4.014   5.257  3.5200  0.2823 -1.3429
 5199TIP3    H237089   0.550   3.924   5.137  2.8116 -1.4312  0.0420
 5200TIP3   OH237090   0.280   5.654  15.811 -0.1508  0.1895  0.1317
 5200TIP3    H137091   0.289   5.747  15.832 -0.6487  0.6175 -1.4223
 5200TIP3    H237092   0.366   5.628  15.781 -0.3750  0.5341 -0.8262
 5201TIP3   OH237093   3.654   1.035  14.901 -0.3392  0.1504  0.0451
 5201TIP3    H137094   3.737   0.990  14.885 -1.4268 -1.6724 -0.7347
 5201TIP3    H237095   3.632   1.075  14.816  0.1014  1.3248  0.4609
 5202TIP3   OH237096   6.068   4.410  15.095 -0.2775  0.4057 -0.2384
 5202TIP3    H137097   6.042   4.373  15.179  0.4296 -0.2611 -0.3051
 5202TIP3    H237098   5.988   4.449  15.060 -0.5009  1.0237  0.9063
 5203TIP3   OH237099   3.898   5.191   1.159  0.1216  0.8026 -0.2832
 5203TIP3    H137100   3.967   5.255   1.180  0.5352  0.2941 -0.0809
 5203TIP3    H237101   3.857   5.226   1.080 -0.0217  1.6079  0.1343
 5204TIP3   OH237102   4.565   0.191   5.970  0.3227 -0.1737  0.3341
 5204TIP3    H137103   4.607   0.274   5.991 -0.7721  0.0373  1.8147
 5204TIP3    H237104   4.604   0.128   6.030 -1.4270  0.0334  1.7656
 5205TIP3   OH237105   0.310   6.668   5.985  0.1747 -0.0659 -0.4579
 5205TIP3    H137106   0.321   6.575   5.967  1.7770  0.2328 -1.1950
 5205TIP3    H237107   0.316   6.676   6.080  2.5186 -0.4685 -0.5292
 5206TIP3   OH237108   0.825   3.803   1.309 -0.0814 -0.7150  0.0548
 5206TIP3    H137109   0.739   3.774   1.279 -0.1726 -1.4583  0.9727
 5206TIP3    H237110   0.836   3.889   1.271 -1.8586  0.0007  1.0270
 5207TIP3   OH237111   6.218   2.353   1.277 -0.3588 -0.5198  0.3711
 5207TIP3    H137112   6.254   2.321   1.359  1.7406  0.8316  0.0282
 5207TIP3    H237113   6.264   2.435   1.260 -1.6943 -0.0893 -1.4939
 5208TIP3   OH237114   4.115   0.311   2.067 -0.1291  0.2669 -0.9399
 5208TIP3    H137115   4.131   0.257   1.989 -0.1946  1.7903 -2.0469
 5208TIP3    H237116   4.193   0.366   2.074 -0.5044  0.7370 -0.4169
 5209TIP3   OH237117   4.933   6.710  16.800 -0.0854  0.5250  0.0936
 5209TIP3    H137118   4.944   6.625  16.843 -0.5309  1.1790  1.5683
 5209TIP3    H237119   4.860   6.698  16.739 -0.0289 -0.1827  0.1601
 5210TIP3   OH237120   3.318   1.415   2.799 -0.2650 -0.0093  0.7086
 5210TIP3    H137121   3.393   1.465   2.831  0.3289 -0.7036  0.4582
 5210TIP3    H237122   3.241   1.464   2.827  0.2802  2.0443 -1.0893
 5211TIP3   OH237123   2.019   1.752   1.273 -0.2985  0.3453  0.2860
 5211TIP3    H137124   2.043   1.771   1.364 -0.6373  0.8785  0.2664
 5211TIP3    H237125   1.968   1.828   1.245  1.2172  0.9764 -0.8936
 5212TIP3   OH237126   4.486   2.693  14.871 -0.2609 -1.1812  0.3105
 5212TIP3    H137127   4.396   2.727  14.862  0.1065 -0.1923  0.2315
 5212TIP3    H237128   4.495   2.672  14.964  0.2986  1.3269  0.8846
 5213TIP3   OH237129   6.861   0.248  12.759  0.2019  0.1277  0.8645
 5213TIP3    H137130   6.913   0.168  12.756  2.0291  1.2765 -1.1128
 5213TIP3    H237131   6.821   0.254  12.672  1.7361  2.3127  0.2360
 5214TIP3   OH237132   6.082   4.260   6.032  0.4596 -0.3090 -0.7048
 5214TIP3    H137133   6.101   4.233   6.121 -2.8879 -0.7384  0.0166
 5214TIP3    H237134   6.101   4.354   6.031  1.7660 -0.5418  0.0274
 5215TIP3   OH237135   4.895   0.652  13.799 -0.2920 -0.6627 -0.3118
 5215TIP3    H137136   4.885   0.591  13.726  0.7606 -0.7478 -0.4021
 5215TIP3    H237137   4.990   0.654  13.816 -0.2647  1.1957 -0.5262
 5216TIP3   OH237138   2.525   5.440  13.370  0.1037  0.0283 -0.1183
 5216TIP3    H137139   2.524   5.467  13.278 -0.2615 -1.4274 -0.5694
 5216TIP3    H237140   2.459   5.372  13.376  1.8309 -1.6814  0.6299
 5217TIP3   OH237141   2.365   5.767   3.083  0.2120  0.4152 -0.0326
 5217TIP3    H137142   2.369   5.776   2.987  0.9200  2.5204  0.1518
 5217TIP3    H237143   2.370   5.673   3.098  1.9771  0.1255 -2.0039
 5218TIP3   OH237144   6.616   3.941  16.109  0.2559  0.1473  0.0782
 5218TIP3    H137145   6.640   3.885  16.183 -1.6348 -0.0225  0.6250
 5218TIP3    H237146   6.522   3.926  16.098  0.4396  0.3942 -2.1886
 5219TIP3   OH237147   3.508   4.132  16.798 -0.2740  0.3178  0.3894
 5219TIP3    H137148   3.542   4.146  16.886  1.3838 -0.7557 -0.0396
 5219TIP3    H237149   3.492   4.220  16.764 -1.5381  0.7432  1.9411
 5220TIP3   OH237150   3.293   5.754   2.524  0.0205  0.0788  0.5666
 5220TIP3    H137151   3.357   5.685   2.542  1.4725  1.0005 -0.8485
 5220TIP3    H237152   3.225   5.710   2.473  0.5054 -0.4871  0.3902
 5221TIP3   OH237153   6.200   4.708  13.330 -0.2888 -0.9512  0.1125
 5221TIP3    H137154   6.261   4.645  13.369  1.7425  0.2179 -0.9775
 5221TIP3    H237155   6.201   4.687  13.236  1.9993  1.7672 -0.6230
 5222TIP3   OH237156   2.276   1.831   2.918 -0.1143  0.1042 -0.2823
 5222TIP3    H137157   2.357   1.796   2.956 -2.0094 -1.7419  2.4421
 5222TIP3    H237158   2.260   1.913   2.965  0.1080  0.3998 -0.7221
 5223TIP3   OH237159   2.898   4.302  13.656 -0.1948  0.0854 -0.5170
 5223TIP3    H137160   2.981   4.331  13.617 -0.7196  0.6002 -1.2863
 5223TIP3    H237161   2.908   4.320  13.749  1.2405 -1.5172 -0.2879
 5224TIP3   OH237162   1.767   3.266  13.091 -0.0927  0.1372 -0.6756
 5224TIP3    H137163   1.855   3.277  13.128  0.1956 -0.0782 -1.2897
 5224TIP3    H237164   1.720   3.211  13.155  0.4259 -0.3079 -0.6741
 5225TIP3   OH237165   4.097   3.632   0.469  0.0140  0.7021 -0.2876
 5225TIP3    H137166   4.158   3.584   0.525  0.3348  0.0869 -1.1338
 5225TIP3    H237167   4.073   3.709   0.520 -0.4123 -0.2788  1.0720
 5226TIP3   OH237168   4.725   4.197  14.037 -0.2241 -0.7831 -0.1121
 5226TIP3    H137169   4.707   4.108  14.007  0.6679 -1.0009 -0.0266
 5226TIP3    H237170   4.820   4.206  14.030 -0.3336  0.2648 -0.3974
 5227TIP3   OH237171   5.124   0.768   3.072 -0.0882 -0.0247  0.2047
 5227TIP3    H137172   5.088   0.824   3.141 -1.7053 -2.2327  1.2504
 5227TIP3    H237173   5.075   0.793   2.993  0.2075  0.9543  0.3111
 5228TIP3   OH237174   3.110   4.607   4.823  0.7650  0.0254  0.6179
 5228TIP3    H137175   3.189   4.662   4.831  0.8566 -0.1154  0.6877
 5228TIP3    H237176   3.125   4.554   4.746 -0.1925  1.4939 -0.6305
 5229TIP3   OH237177   1.506   2.580  14.452 -1.3708  0.0259 -0.0139
 5229TIP3    H137178   1.585   2.596  14.400  0.1244 -1.7061  1.6416
 5229TIP3    H237179   1.496   2.660  14.505 -1.0853  0.4860 -0.6340
 5230TIP3   OH237180   3.700   1.117  16.539 -0.3200 -0.5983  0.2636
 5230TIP3    H137181   3.726   1.081  16.454 -0.2773 -2.3693  0.9790
 5230TIP3    H237182   3.645   1.049  16.579  1.3490 -0.7739  2.5017
 5231TIP3   OH237183   4.479   5.105   4.373  0.9274 -0.2600  0.0310
 5231TIP3    H137184   4.457   5.065   4.457 -0.4938 -0.0136 -0.1986
 5231TIP3    H237185   4.542   5.174   4.394 -1.3493  1.5653  1.2903
 5232TIP3   OH237186   1.521   5.774   3.611 -0.6349 -0.3702 -0.2059
 5232TIP3    H137187   1.507   5.736   3.524  1.6095 -0.4625 -0.5895
 5232TIP3    H237188   1.572   5.708   3.657 -0.3541  0.4002  0.6067
 5233TIP3   OH237189   6.088   5.739   6.056  0.1652 -0.5814  0.8781
 5233TIP3    H137190   6.104   5.681   5.982 -1.3785  0.9535 -0.7714
 5233TIP3    H237191   6.158   5.803   6.052 -1.1986  0.8998 -0.8141
 5234TIP3   OH237192   0.710   5.309  16.779  0.0517 -0.0560  0.5514
 5234TIP3    H137193   0.765   5.257  16.837  0.5710  1.9600  1.9869
 5234TIP3    H237194   0.638   5.339  16.835 -0.1025  0.9519 -0.1597
 5235TIP3   OH237195   6.644   2.819  15.185 -0.1162 -0.5578  0.7034
 5235TIP3    H137196   6.715   2.869  15.146  0.4577 -0.5645  1.7057
 5235TIP3    H237197   6.667   2.727  15.169 -0.0552 -0.5510  0.7519
 5236TIP3   OH237198   1.205   0.276   0.450  0.2034  0.0304  0.4766
 5236TIP3    H137199   1.264   0.314   0.515  0.0137 -0.7945  1.1589
 5236TIP3    H237200   1.171   0.197   0.493 -1.5110  0.5577  0.1745
 5237TIP3   OH237201   5.627   5.433   1.332 -0.1466  0.1109  0.3884
 5237TIP3    H137202   5.638   5.476   1.417 -3.5279 -0.5395  1.2965
 5237TIP3    H237203   5.639   5.503   1.268  1.4592  0.8227  1.4172
 5238TIP3   OH237204   2.007   5.033   0.225 -0.1295 -0.1986 -0.4645
 5238TIP3    H137205   1.967   5.072   0.148  0.0626  1.7312  0.3655
 5238TIP3    H237206   2.016   5.105   0.287  1.2179 -1.3474  0.7560
 5239TIP3   OH237207   5.748   3.574   0.272  0.2640 -0.5772  0.2705
 5239TIP3    H137208   5.806   3.650   0.268 -0.0955 -0.2962  0.2956
 5239TIP3    H237209   5.733   3.551   0.180  0.0109 -0.3319  0.2470
 5240TIP3   OH237210   0.939   1.464   3.820  0.0140  0.2597 -0.3122
 5240TIP3    H137211   0.993   1.516   3.760  1.7600 -0.5741  0.4634
 5240TIP3    H237212   0.991   1.385   3.836 -2.5657 -1.8658 -1.5409
 5241TIP3   OH237213   4.867   2.252   0.038 -0.4092 -0.3792  0.5534
 5241TIP3    H137214   4.855   2.342   0.008  0.0354 -0.0766  1.2575
 5241TIP3    H237215   4.932   2.216  -0.023 -2.6832 -1.1725 -1.5522
 5242TIP3   OH237216   4.462   6.468   4.685  0.1298  0.1750 -0.3467
 5242TIP3    H137217   4.538   6.510   4.645  0.2194  0.0352 -0.3256
 5242TIP3    H237218   4.495   6.383   4.715  0.0926  0.3198  0.1152
 5243TIP3   OH237219   1.790   2.571   0.963 -0.1701  0.8054  0.1516
 5243TIP3    H137220   1.793   2.479   0.989  0.9113 -0.0212 -2.5383
 5243TIP3    H237221   1.867   2.611   1.004  1.6707 -0.5222 -1.8059
 5244TIP3   OH237222   1.344   4.044  15.703  0.1670 -0.2466  0.4804
 5244TIP3    H137223   1.270   3.984  15.690  0.4744 -0.6602  0.6075
 5244TIP3    H237224   1.412   4.011  15.644  0.0525  0.4884 -0.0801
 5245TIP3   OH237225   4.983   0.984   2.290 -0.0943 -0.2459  0.1719
 5245TIP3    H137226   4.993   1.070   2.249 -1.6728  0.6508  1.5334
 5245TIP3    H237227   4.951   0.927   2.220 -0.8580  0.7662 -0.3326
 5246TIP3   OH237228   4.270   0.053   0.072 -0.1593  0.8892  0.5264
 5246TIP3    H137229   4.341   0.087   0.127  0.4665  0.7810 -0.1971
 5246TIP3    H237230   4.290  -0.040   0.062 -0.5180  0.8149  0.4820
 5247TIP3   OH237231   6.423   3.283  13.592 -0.5246 -0.1810  0.4161
 5247TIP3    H137232   6.409   3.377  13.580  0.2436  0.0233  1.0390
 5247TIP3    H237233   6.341   3.250  13.627 -1.3663 -0.0434 -1.3061
 5248TIP3   OH237234   5.603   6.011   4.465 -0.4023 -0.7113 -0.3692
 5248TIP3    H137235   5.546   6.081   4.432  0.8482  0.3167 -0.4464
 5248TIP3    H237236   5.552   5.931   4.454 -1.2454 -0.0097 -1.8504
 5249TIP3   OH237237   4.372   6.374   2.841 -0.2276  0.3086  0.2574
 5249TIP3    H137238   4.289   6.404   2.878  0.0180  1.7818 -0.3061
 5249TIP3    H237239   4.424   6.348   2.916 -0.2463  1.9111  0.8609
 5250TIP3   OH237240   4.296   1.990   0.297  0.3206  0.5810 -0.4520
 5250TIP3    H137241   4.217   2.037   0.325 -0.6573 -1.4011  0.3186
 5250TIP3    H237242   4.363   2.016   0.360 -0.4080  0.3530  0.4325
 5251TIP3   OH237243   1.784   0.251  12.864 -0.2750 -0.3155 -0.2376
 5251TIP3    H137244   1.740   0.318  12.915  1.6154  0.3340  0.6561
 5251TIP3    H237245   1.728   0.174  12.872 -1.3838  0.5396  0.5466
 5252TIP3   OH237246   2.059   6.125   3.089  0.1794 -0.1229  0.3052
 5252TIP3    H137247   2.151   6.113   3.111 -0.0530 -1.3071  0.7369
 5252TIP3    H237248   2.039   6.051   3.031 -0.5937 -0.0903  0.5221
 5253TIP3   OH237249   0.792   3.084   4.219  0.5401 -0.5229 -0.1062
 5253TIP3    H137250   0.718   3.089   4.280  1.6488  0.4149  1.2206
 5253TIP3    H237251   0.839   3.004   4.243  0.1395 -0.9706 -0.7665
 5254TIP3   OH237252   1.301   1.034  16.178 -0.5933 -0.2843 -0.2932
 5254TIP3    H137253   1.286   1.017  16.085  0.1323  0.0891 -0.4886
 5254TIP3    H237254   1.349   1.117  16.180 -0.4432 -0.3780  0.4051
 5255TIP3   OH237255   2.896   0.212  10.801 -0.6172 -0.4984 -0.3277
 5255TIP3    H137256   2.919   0.183  10.889 -0.4159  1.7268  0.4352
 5255TIP3    H237257   2.980   0.225  10.757 -0.6521  0.1068 -0.2231
 5256TIP3   OH237258   6.788   0.729   3.529  0.0134 -0.3393  0.1015
 5256TIP3    H137259   6.815   0.665   3.595 -0.3600  0.0656  0.6540
 5256TIP3    H237260   6.766   0.807   3.579 -2.4800 -0.7368 -0.2708
 5257TIP3   OH237261   2.988   3.390   4.069  0.2179 -0.3025  0.6312
 5257TIP3    H137262   3.077   3.425   4.057 -0.1122  0.5582  0.6500
 5257TIP3    H237263   3.002   3.297   4.086  1.1726 -0.0387  1.3940
 5258TIP3   OH237264   6.124   4.266  15.382  0.1870 -0.2131  0.3225
 5258TIP3    H137265   6.205   4.239  15.338  0.2600 -1.0826  0.9670
 5258TIP3    H237266   6.148   4.276  15.474  0.1509  2.0823  0.1544
 5259TIP3   OH237267   0.547   2.178  14.413  0.4358  0.1562  0.0899
 5259TIP3    H137268   0.573   2.265  14.382  1.7608  0.7747  2.6681
 5259TIP3    H237269   0.616   2.119  14.382  2.0822  0.8697  2.1244
 5260TIP3   OH237270   4.170   4.633   0.019  0.1147  0.1357  0.2761
 5260TIP3    H137271   4.227   4.622   0.095 -0.1078  0.5075  0.4956
 5260TIP3    H237272   4.150   4.544  -0.009 -0.3938 -0.0102  1.0862
 5261TIP3   OH237273   4.903   0.398   4.605 -0.2545  0.0890  0.0002
 5261TIP3    H137274   4.925   0.392   4.698  0.7769  2.5004 -0.0103
 5261TIP3    H237275   4.816   0.438   4.603 -0.2198  0.1631 -0.0537
 5262TIP3   OH237276   4.295   6.108   1.449 -0.1819  0.7403 -0.0985
 5262TIP3    H137277   4.244   6.069   1.519  0.3238  1.3321  0.6207
 5262TIP3    H237278   4.238   6.106   1.373 -0.1940 -1.3408 -0.0961
 5263TIP3   OH237279   1.960   6.145  13.293  0.2019 -0.2022  0.2912
 5263TIP3    H137280   1.921   6.111  13.213 -2.3251 -2.2790  2.2476
 5263TIP3    H237281   1.993   6.068  13.339  1.6809  0.9475  1.2859
 5264TIP3   OH237282   5.220   4.088   5.463  0.1755 -0.2552 -0.3594
 5264TIP3    H137283   5.142   4.144   5.472  0.7814  0.6817 -0.7285
 5264TIP3    H237284   5.193   4.003   5.498 -1.3618 -0.2696 -1.4711
 5265TIP3   OH237285   6.802   5.035   4.558 -0.1292 -0.3330 -0.2208
 5265TIP3    H137286   6.816   4.940   4.556  0.0629 -0.4051  1.9271
 5265TIP3    H237287   6.709   5.045   4.578 -0.2646 -0.0493 -0.9679
 5266TIP3   OH237288   6.767   5.165   5.548  0.4198  0.0740  0.4042
 5266TIP3    H137289   6.783   5.254   5.517  0.4880 -0.2236 -0.4339
 5266TIP3    H237290   6.853   5.124   5.550  0.2206 -0.4521 -0.7590
 5267TIP3   OH237291   6.827   1.209   5.442 -0.4053 -0.4586 -0.7023
 5267TIP3    H137292   6.762   1.280   5.445 -0.3459 -0.2615 -2.7497
 5267TIP3    H237293   6.784   1.139   5.394  0.1019 -1.2315 -0.0504
 5268TIP3   OH237294   5.048   2.563   1.884  0.7493 -0.3100 -0.3193
 5268TIP3    H137295   5.116   2.630   1.884  0.3148  0.1446 -0.6935
 5268TIP3    H237296   5.010   2.568   1.972  0.9710 -0.3316 -0.2213
 5269TIP3   OH237297   0.089   1.680   5.696  0.2592 -0.4911 -0.4154
 5269TIP3    H137298   0.101   1.587   5.680 -0.5266 -0.5735 -0.5541
 5269TIP3    H237299   0.085   1.688   5.791  0.1056 -0.6271 -0.4107
 5270TIP3   OH237300   4.856   2.943  12.724  0.1266  0.3032  0.4141
 5270TIP3    H137301   4.845   3.005  12.652  1.6799  0.8231  0.5771
 5270TIP3    H237302   4.922   2.881  12.693  1.5749  1.1143  1.6927
 5271TIP3   OH237303   4.863   0.192   1.732 -0.6990  0.0376  0.5184
 5271TIP3    H137304   4.912   0.112   1.715 -0.7363  0.0509  0.3474
 5271TIP3    H237305   4.922   0.245   1.785 -0.9752 -0.4296  1.3156
 5272TIP3   OH237306   5.573   1.482   2.233  0.1289 -0.1479 -0.8460
 5272TIP3    H137307   5.667   1.470   2.225  0.3887  1.3783 -0.2451
 5272TIP3    H237308   5.562   1.555   2.294 -1.5230 -2.4473  1.8719
 5273TIP3   OH237309   6.536   0.228  11.260 -0.2599 -0.2033  0.1823
 5273TIP3    H137310   6.567   0.264  11.177  0.9147 -0.8286  0.3363
 5273TIP3    H237311   6.581   0.279  11.327 -0.1608 -0.6001  0.4203
 5274TIP3   OH237312   5.189   5.063   4.760 -0.0252 -0.2182  0.2244
 5274TIP3    H137313   5.097   5.083   4.778 -0.5697 -0.8132 -1.7371
 5274TIP3    H237314   5.187   4.982   4.709  1.8084 -2.1870  2.9439
 5275TIP3   OH237315   3.114   6.608   5.968 -0.1372 -0.0474  0.1482
 5275TIP3    H137316   3.168   6.640   5.897  1.0935  0.5390  1.3100
 5275TIP3    H237317   3.131   6.668   6.041 -1.1819 -0.7604  1.0190
 5276TIP3   OH237318   4.439   0.634   2.452 -0.3199 -0.2476  0.6242
 5276TIP3    H137319   4.508   0.607   2.392 -1.5345  0.5579 -1.2009
 5276TIP3    H237320   4.369   0.666   2.396 -2.5834 -1.8563  2.3543
 5277TIP3   OH237321   0.605   2.498  16.610 -0.7279  0.1709 -0.0848
 5277TIP3    H137322   0.592   2.421  16.665 -1.1835  0.7430  0.6230
 5277TIP3    H237323   0.591   2.572  16.668 -3.5049  0.8444 -1.4361
 5278TIP3   OH237324   1.621   5.140  13.311 -0.4469  0.1121 -0.0800
 5278TIP3    H137325   1.636   5.172  13.222 -0.6056  0.9212  0.1811
 5278TIP3    H237326   1.707   5.114  13.343 -0.2763  0.5223 -0.2043
 5279TIP3   OH237327   6.075   6.717  16.907  0.0360 -0.0069 -0.2303
 5279TIP3    H137328   5.982   6.714  16.889 -0.0765 -0.3365  0.3584
 5279TIP3    H237329   6.094   6.633  16.949  0.5148  0.2151  0.0101
 5280TIP3   OH237330   1.493   6.341  16.661  0.3738 -0.3532 -0.3121
 5280TIP3    H137331   1.512   6.347  16.568  0.1030 -0.1986 -0.3587
 5280TIP3    H237332   1.438   6.418  16.679  0.2715 -0.4851 -0.0656
 5281TIP3   OH237333   2.532   1.735   2.213 -0.0975 -0.5229  0.0817
 5281TIP3    H137334   2.625   1.714   2.222 -0.1215 -0.4509  0.5333
 5281TIP3    H237335   2.530   1.807   2.150  0.3031  0.6061  1.3158
 5282TIP3   OH237336   4.097   6.124  12.314 -0.4649 -0.2714  0.3673
 5282TIP3    H137337   4.162   6.099  12.248 -0.0363  2.9901 -0.6147
 5282TIP3    H237338   4.019   6.145  12.263 -0.4765  1.2323  0.9644
 5283TIP3   OH237339   5.529   6.771   4.100 -0.4042 -0.0048  0.4444
 5283TIP3    H137340   5.610   6.766   4.050 -1.0511  1.1009 -0.7711
 5283TIP3    H237341   5.539   6.851   4.153  0.2562 -1.1345  2.1216
 5284TIP3   OH237342   0.655   0.746   2.170  0.3628  0.2571  0.5184
 5284TIP3    H137343   0.614   0.795   2.241 -0.8598 -1.9667  1.4266
 5284TIP3    H237344   0.744   0.729   2.200 -0.9996 -3.3311  3.0792
 5285TIP3   OH237345   2.857   6.508   5.889  0.6571  0.0084 -0.4565
 5285TIP3    H137346   2.913   6.552   5.953  2.1941 -0.7879 -1.1984
 5285TIP3    H237347   2.908   6.509   5.808  0.5526 -2.6367 -0.6366
 5286TIP3   OH237348   2.583   4.508  10.576 -0.2593  0.4603  0.1398
 5286TIP3    H137349   2.515   4.527  10.512 -0.5335 -0.0336  0.2775
 5286TIP3    H237350   2.555   4.426  10.618 -0.8013  1.4713  1.8477
 5287TIP3   OH237351   4.625   5.392  12.634 -0.4575  0.0553 -0.0641
 5287TIP3    H137352   4.692   5.455  12.659 -1.3530  0.8661  0.3721
 5287TIP3    H237353   4.594   5.357  12.718  0.1956 -1.1691 -0.3067
 5288TIP3   OH237354   6.035   1.257   2.210 -0.0227  0.3184  0.2800
 5288TIP3    H137355   6.037   1.295   2.298 -2.3208  2.8191 -0.6125
 5288TIP3    H237356   6.125   1.229   2.194  0.6570  0.6288  3.0497
 5289TIP3   OH237357   0.018   0.128  11.254  0.6149  0.0471 -0.4780
 5289TIP3    H137358   0.105   0.125  11.294  0.2949 -0.7801  0.1762
 5289TIP3    H237359   0.034   0.165  11.166  1.4510  0.9807  0.0394
 5290TIP3   OH237360   1.140   4.011   1.995 -0.4425 -0.2276 -0.5425
 5290TIP3    H137361   1.062   4.015   2.049 -0.3343 -0.0507 -0.3957
 5290TIP3    H237362   1.184   4.095   2.010 -0.2818 -0.2802 -0.7072
 5291TIP3   OH237363   4.406   6.630  16.072 -0.1318  0.1691 -0.0039
 5291TIP3    H137364   4.370   6.613  15.985  1.0519 -1.5086 -0.2098
 5291TIP3    H237365   4.398   6.547  16.119  0.0170  0.8165  1.2140
 5292TIP3   OH237366   0.816   2.935   3.009 -0.4804 -0.5787  0.2728
 5292TIP3    H137367   0.836   2.992   2.935 -1.8736  0.4662  0.6429
 5292TIP3    H237368   0.901   2.910   3.045  0.2128 -1.0263 -1.5909
 5293TIP3   OH237369   5.221   1.866   1.586  0.7293 -0.3812  0.1643
 5293TIP3    H137370   5.304   1.826   1.613  0.7190 -0.9686 -0.6213
 5293TIP3    H237371   5.168   1.793   1.555  0.3674  0.1285 -0.4443
 5294TIP3   OH237372   4.872   1.614   5.842  0.0752  0.4928  0.3447
 5294TIP3    H137373   4.792   1.616   5.894 -0.3188 -0.9519 -0.1378
 5294TIP3    H237374   4.912   1.700   5.855 -2.7199  2.1995 -1.2610
 5295TIP3   OH237375   1.454   4.863  12.798 -0.1291 -0.1038 -0.0573
 5295TIP3    H137376   1.431   4.912  12.719 -0.3427 -0.5584 -0.2819
 5295TIP3    H237377   1.426   4.920  12.870 -2.1393 -0.6992 -0.3226
 5296TIP3   OH237378   4.484   2.032   0.487 -0.1957  0.2464 -0.2771
 5296TIP3    H137379   4.498   2.063   0.576 -1.6667  0.2116 -0.0041
 5296TIP3    H237380   4.570   2.039   0.445  0.4186  0.6883  0.9991
 5297TIP3   OH237381   2.916   0.543   1.414 -0.1343 -0.1815 -0.9041
 5297TIP3    H137382   2.871   0.477   1.362 -0.7326 -2.4968  2.2231
 5297TIP3    H237383   2.948   0.496   1.491  0.9521  2.8782  0.7271
 5298TIP3   OH237384   6.729   2.737   0.278 -0.4113  0.7550 -0.8327
 5298TIP3    H137385   6.819   2.769   0.285  0.5410 -1.7407 -0.6173
 5298TIP3    H237386   6.684   2.775   0.353  0.9420  0.6735  0.0618
 5299TIP3   OH237387   3.014   1.339   1.863  0.0127  0.3504 -0.0935
 5299TIP3    H137388   3.095   1.288   1.861  1.2231  2.2179 -1.3380
 5299TIP3    H237389   3.016   1.385   1.946 -0.1676 -0.1684  0.2056
 5300TIP3   OH237390   3.061   2.788   1.462  0.6483  0.4168 -0.1749
 5300TIP3    H137391   3.007   2.793   1.384 -0.8969  0.6126  0.8670
 5300TIP3    H237392   3.146   2.756   1.431 -0.9446 -3.1123 -1.4847
 5301TIP3   OH237393   1.587   2.007   2.490  0.0018  0.3346  0.3063
 5301TIP3    H137394   1.503   2.036   2.453  0.4167  0.4882 -0.5455
 5301TIP3    H237395   1.648   2.012   2.417  0.5401 -0.7586  0.6596
 5302TIP3   OH237396   6.371   6.586  12.260 -0.1338 -0.0543 -0.4730
 5302TIP3    H137397   6.374   6.658  12.197  0.9370  0.1555 -0.1979
 5302TIP3    H237398   6.346   6.510  12.208  1.0130  0.0576 -1.2064
 5303TIP3   OH237399   2.258   4.901  15.150 -0.5245  0.1643  0.3897
 5303TIP3    H137400   2.212   4.817  15.155 -1.0348  0.2545 -1.9543
 5303TIP3    H237401   2.343   4.879  15.114 -0.3760  0.5741  0.4939
 5304TIP3   OH237402   3.800   3.252   1.969  0.3059  0.3676 -0.2483
 5304TIP3    H137403   3.853   3.317   2.015  2.2970 -1.1237 -0.2946
 5304TIP3    H237404   3.837   3.250   1.880 -0.1016 -0.3908 -0.4075
 5305TIP3   OH237405   2.338   2.172   1.266 -0.3977  0.1144 -0.1371
 5305TIP3    H137406   2.393   2.095   1.278  0.4506  0.5603 -0.9719
 5305TIP3    H237407   2.249   2.139   1.270 -0.0992 -0.5984  1.4965
 5306TIP3   OH237408   6.768   3.524  15.942 -0.2716 -0.2784  0.4931
 5306TIP3    H137409   6.779   3.438  15.903 -1.6298 -0.7877  1.2066
 5306TIP3    H237410   6.821   3.582  15.887 -1.3784 -1.1223 -1.5453
 5307TIP3   OH237411   3.957   1.035  12.824  0.0724 -0.3175  0.3101
 5307TIP3    H137412   3.866   1.058  12.804  0.5264  0.6089 -0.7650
 5307TIP3    H237413   3.950   0.976  12.900 -1.4588 -0.8307 -0.1888
 5308TIP3   OH237414   0.810   1.212  14.991  0.1828 -0.1898  0.2971
 5308TIP3    H137415   0.892   1.169  14.965  1.1539  1.2427  0.8563
 5308TIP3    H237416   0.741   1.158  14.951  1.4533 -0.1479 -2.1906
 5309TIP3   OH237417   1.419   4.629   0.902  0.0291  0.0554  0.3623
 5309TIP3    H137418   1.503   4.639   0.947 -0.6972  2.3238  1.4000
 5309TIP3    H237419   1.422   4.694   0.832 -1.1115  0.7004  0.8817
 5310TIP3   OH237420   6.441   6.389   0.568  0.1488 -0.2773  0.0273
 5310TIP3    H137421   6.388   6.454   0.522  2.1331  1.3349 -0.0897
 5310TIP3    H237422   6.424   6.307   0.522 -1.8584  0.2476 -0.2783
 5311TIP3   OH237423   3.277   6.250   4.626  0.0450  0.1062  0.0385
 5311TIP3    H137424   3.258   6.282   4.538  0.1025  2.6771  0.8757
 5311TIP3    H237425   3.367   6.277   4.643  0.4825 -1.5019  0.4593
 5312TIP3   OH237426   5.323   6.475  16.393  0.5556 -0.1908 -0.2496
 5312TIP3    H137427   5.231   6.479  16.366  0.9992  0.0895 -1.8024
 5312TIP3    H237428   5.344   6.381  16.394  0.5440 -0.2022 -0.9421
 5313TIP3   OH237429   5.983   5.840   4.344  0.2242  0.2315  0.2127
 5313TIP3    H137430   6.023   5.899   4.407 -0.4680  1.2953 -0.3106
 5313TIP3    H237431   5.891   5.868   4.340  0.2773  0.2867 -1.3527
 5314TIP3   OH237432   0.515   4.166  12.810  0.0800 -0.5371  0.7332
 5314TIP3    H137433   0.583   4.101  12.791  0.9745  1.1629 -2.6827
 5314TIP3    H237434   0.435   4.114  12.822  0.9781 -2.3548 -0.6510
 5315TIP3   OH237435   5.970   3.391  11.652  0.3014  0.0286 -0.3282
 5315TIP3    H137436   6.049   3.343  11.676  1.3475  1.3630 -0.9493
 5315TIP3    H237437   5.912   3.379  11.727  1.7784  0.4469  0.9520
 5316TIP3   OH237438   5.024   4.351  16.134 -0.3321 -0.0498  0.4108
 5316TIP3    H137439   5.082   4.370  16.209 -2.3039  0.9328  1.7659
 5316TIP3    H237440   4.986   4.266  16.154  0.6778 -0.7364 -0.5239
 5317TIP3   OH237441   2.261   2.438   1.371 -0.4551 -0.1978 -0.5079
 5317TIP3    H137442   2.333   2.444   1.434  0.2795  0.5360 -1.3849
 5317TIP3    H237443   2.283   2.362   1.317  0.7574  1.1861 -2.0483
 5318TIP3   OH237444   5.602   2.044  12.148  0.2166  0.0242 -0.3825
 5318TIP3    H137445   5.580   1.967  12.200 -1.9032  1.3788  0.9357
 5318TIP3    H237446   5.681   2.020  12.101  1.0620 -2.0620  1.8635
 5319TIP3   OH237447   1.824   2.536  15.328 -0.6110 -0.1012  0.4853
 5319TIP3    H137448   1.757   2.512  15.264 -1.2747 -0.4811  1.2936
 5319TIP3    H237449   1.836   2.457  15.380  0.0209  0.1587  0.7381
 5320TIP3   OH237450   4.465   1.171  14.756 -0.0130 -0.3642  0.0635
 5320TIP3    H137451   4.540   1.112  14.756 -0.4206 -0.9143  1.5626
 5320TIP3    H237452   4.495   1.249  14.802 -0.0823 -0.2061 -0.1565
 5321TIP3   OH237453   5.189   3.511   0.744  0.3651  0.8089 -0.2354
 5321TIP3    H137454   5.213   3.475   0.829 -1.4809 -3.4460 -1.2587
 5321TIP3    H237455   5.106   3.556   0.758 -0.8230 -1.3392  0.0713
 5322TIP3   OH237456   2.527   1.833   5.813  0.0829 -0.5710 -0.0289
 5322TIP3    H137457   2.562   1.922   5.801  1.1478 -0.8185  1.0722
 5322TIP3    H237458   2.528   1.820   5.907 -0.6690 -1.5338 -0.1461
 5323TIP3   OH237459   6.405   4.330   2.400  0.1479  0.2344  0.3933
 5323TIP3    H137460   6.460   4.391   2.351 -0.9810 -0.3795 -1.7482
 5323TIP3    H237461   6.329   4.382   2.427  0.5861  0.4722  1.2263
 5324TIP3   OH237462   6.375   1.642   5.734  0.2114  0.3453 -0.1115
 5324TIP3    H137463   6.398   1.703   5.664 -0.3313  0.2613 -0.3699
 5324TIP3    H237464   6.434   1.664   5.805  1.7454 -0.5008 -1.0769
 5325TIP3   OH237465   5.413   3.392  13.686  0.0429  0.0774 -0.3769
 5325TIP3    H137466   5.504   3.398  13.714  0.0417  0.3367 -0.4218
 5325TIP3    H237467   5.378   3.480  13.699  0.1906  0.3558 -1.7189
 5326TIP3   OH237468   1.227   4.704  12.853  0.0959  0.1233 -0.2575
 5326TIP3    H137469   1.315   4.735  12.834  0.3107  0.0320  0.5382
 5326TIP3    H237470   1.178   4.782  12.878  0.6370 -0.1101  1.7471
 5327TIP3   OH237471   3.794   2.114  14.443 -0.0109 -0.1035  0.6443
 5327TIP3    H137472   3.738   2.098  14.519  0.9855 -0.1880  1.3958
 5327TIP3    H237473   3.769   2.201  14.413 -2.7444 -1.3716 -1.0541
 5328TIP3   OH237474   3.580   0.171  15.293 -0.8132  0.4323  0.7973
 5328TIP3    H137475   3.551   0.119  15.218 -0.7905  0.3844  0.8216
 5328TIP3    H237476   3.569   0.261  15.266  0.4051  0.4367  0.2583
 5329TIP3   OH237477   0.321   1.825  12.929  0.2337  0.0587  0.1752
 5329TIP3    H137478   0.347   1.917  12.929  0.5883 -0.0030  2.1225
 5329TIP3    H237479   0.355   1.790  12.846  1.9949  1.1804  0.3746
 5330TIP3   OH237480   1.285   0.080   3.951  0.1481 -0.4868  0.9238
 5330TIP3    H137481   1.206   0.128   3.925  0.6735  0.8330  1.6748
 5330TIP3    H237482   1.327   0.057   3.868 -0.2673  0.0912  0.5432
 5331TIP3   OH237483   6.095   5.865  13.213 -0.1450 -0.0943 -0.0468
 5331TIP3    H137484   6.089   5.930  13.144  1.5466  0.3901  0.2177
 5331TIP3    H237485   6.019   5.881  13.268 -0.6108  0.6042 -0.8715
 5332TIP3   OH237486   3.586   1.671   3.344  0.3000  0.0373  0.1009
 5332TIP3    H137487   3.503   1.717   3.333  0.3181  0.0078 -0.1629
 5332TIP3    H237488   3.640   1.701   3.271  0.0387 -1.0116 -0.5486
 5333TIP3   OH237489   6.789   4.375   1.133 -0.0695 -0.0737 -1.1296
 5333TIP3    H137490   6.767   4.433   1.060 -0.5578  2.4741  0.9229
 5333TIP3    H237491   6.825   4.297   1.090  1.2218  1.9139 -4.0524
 5334TIP3   OH237492   1.282   0.564  10.619 -0.4537  0.0860  0.0860
 5334TIP3    H137493   1.257   0.526  10.535  1.0300  0.4348 -0.5495
 5334TIP3    H237494   1.348   0.504  10.654  0.3960  0.9585  0.0409
 5335TIP3   OH237495   4.920   1.276   2.750  0.0781 -0.3064 -0.3482
 5335TIP3    H137496   4.834   1.318   2.753  0.6590  1.0500 -1.5792
 5335TIP3    H237497   4.982   1.347   2.767  1.0519 -0.8108 -1.6799
 5336TIP3   OH237498   4.110   3.018   2.364 -0.4562 -0.3063  0.1405
 5336TIP3    H137499   4.159   3.089   2.406  0.5698 -0.5009 -0.6788
 5336TIP3    H237500   4.178   2.959   2.331 -1.2745 -1.0926 -0.1765
 5337TIP3   OH237501   1.836   2.301   1.003  0.4764 -0.7005 -0.8846
 5337TIP3    H137502   1.772   2.241   1.043  0.8072  0.0962  0.8923
 5337TIP3    H237503   1.902   2.243   0.964  0.3004 -1.5000 -0.0139
 5338TIP3   OH237504   1.617   0.718   2.240  0.3250 -0.2487 -0.0281
 5338TIP3    H137505   1.661   0.751   2.319 -1.1526  2.2636 -0.1194
 5338TIP3    H237506   1.676   0.741   2.168  0.4356 -0.0391  0.1281
 5339TIP3   OH237507   0.782   4.188  16.433 -0.7253 -0.0811 -0.3015
 5339TIP3    H137508   0.867   4.170  16.472 -1.0516 -0.5702  0.1999
 5339TIP3    H237509   0.740   4.102  16.426 -1.1689  0.1500 -0.5674
 5340TIP3   OH237510   0.788   0.941  15.535  0.2309  0.3945 -0.3248
 5340TIP3    H137511   0.880   0.939  15.510  0.6662  2.6367  0.8047
 5340TIP3    H237512   0.748   1.005  15.476 -1.3021 -2.4164 -2.5795
 5341TIP3   OH237513   6.106   5.645  11.163  0.6194  0.4107 -1.0755
 5341TIP3    H137514   6.052   5.717  11.132  0.3254  0.4382 -0.5048
 5341TIP3    H237515   6.048   5.592  11.217  0.9300 -0.0528 -1.1788
 5342TIP3   OH237516   6.419   1.817  12.464 -0.6754  0.2284 -0.1488
 5342TIP3    H137517   6.433   1.790  12.554 -2.2117  3.2355  1.1596
 5342TIP3    H237518   6.326   1.803  12.449 -0.4660 -0.0880 -1.2427
 5343TIP3   OH237519   3.575   0.653   3.585 -0.1737  0.8038  0.3025
 5343TIP3    H137520   3.585   0.697   3.670  3.3016  1.5741 -0.3420
 5343TIP3    H237521   3.570   0.725   3.522 -1.2375  0.2314 -0.2858
 5344TIP3   OH237522   0.112   6.424  13.677  0.5953 -0.0381 -0.2095
 5344TIP3    H137523   0.186   6.431  13.738  0.8091 -1.1171 -0.3272
 5344TIP3    H237524   0.034   6.427  13.734  0.6218  2.5611 -0.1966
 5345TIP3   OH237525   5.500   4.141   5.939 -0.1647 -0.1432  0.4590
 5345TIP3    H137526   5.429   4.096   5.892 -0.2273  0.6693 -0.2659
 5345TIP3    H237527   5.569   4.075   5.947 -0.6174 -0.6525  0.2688
 5346TIP3   OH237528   1.929   5.111   1.189 -0.1073 -0.3168 -0.1540
 5346TIP3    H137529   1.954   5.049   1.258  0.2653 -0.7374 -0.6661
 5346TIP3    H237530   2.007   5.119   1.134  0.4115  1.8387  0.7973
 5347TIP3   OH237531   4.893   6.311  14.326  0.2388  0.2308  0.0022
 5347TIP3    H137532   4.981   6.330  14.293 -0.5377  1.4225 -1.5061
 5347TIP3    H237533   4.845   6.280  14.249 -0.3245 -1.7978  1.0891
 5348TIP3   OH237534   5.166   3.655   5.997  0.2496 -0.2843 -0.7694
 5348TIP3    H137535   5.190   3.638   6.088 -0.5972  0.9359 -0.2882
 5348TIP3    H237536   5.244   3.697   5.960 -0.4544  2.2119  0.3463
 5349TIP3   OH237537   6.828   1.395  14.643  0.6603 -0.5383  0.3511
 5349TIP3    H137538   6.752   1.426  14.593  0.5980 -0.2075  0.6483
 5349TIP3    H237539   6.796   1.319  14.691  0.3353 -0.0158  0.9774
 5350TIP3   OH237540   0.466   2.074  13.030  0.1067 -0.2642 -0.3353
 5350TIP3    H137541   0.462   2.037  13.118 -0.4432 -1.8422 -0.9773
 5350TIP3    H237542   0.553   2.113  13.024 -0.2578  0.8959  1.2685
 5351TIP3   OH237543   0.159   3.606   2.699  0.2581 -0.4240 -0.6493
 5351TIP3    H137544   0.180   3.693   2.733  0.4792 -0.3925 -0.8617
 5351TIP3    H237545   0.151   3.551   2.777 -1.5462  0.1320 -0.4012
 5352TIP3   OH237546   3.727   4.117  16.124 -0.6193  0.2478 -0.3750
 5352TIP3    H137547   3.670   4.183  16.083  1.1307  1.1176 -1.5494
 5352TIP3    H237548   3.795   4.100  16.058 -0.0694 -1.4903  0.5815
 5353TIP3   OH237549   6.466   3.600   6.552  0.8846  0.9251 -0.4447
 5353TIP3    H137550   6.493   3.655   6.625 -0.6241  1.3361 -0.1437
 5353TIP3    H237551   6.546   3.557   6.522  1.4346  0.1494  1.9415
 5354TIP3   OH237552   0.814   4.203  11.751  0.1602 -0.0978  0.7278
 5354TIP3    H137553   0.743   4.207  11.815 -1.5585  0.2981 -1.0916
 5354TIP3    H237554   0.877   4.141  11.788 -1.0436 -0.3205  2.5031
 5355TIP3   OH237555   3.675   6.116  13.224  0.3794 -0.3353 -0.4786
 5355TIP3    H137556   3.599   6.064  13.200 -2.3580  2.6556  1.0541
 5355TIP3    H237557   3.707   6.152  13.141 -1.1106 -0.1038 -0.9841
 5356TIP3   OH237558   4.825   3.192  13.591  0.3914 -0.5134  0.0042
 5356TIP3    H137559   4.871   3.245  13.526  0.9546  0.1322  0.9115
 5356TIP3    H237560   4.745   3.162  13.546  0.3464  0.6296 -0.6969
 5357TIP3   OH237561   0.225   2.012   3.112 -0.4252 -0.6019 -0.6478
 5357TIP3    H137562   0.220   1.926   3.069 -1.0343 -0.4283 -0.9321
 5357TIP3    H237563   0.217   1.993   3.205 -0.3222 -0.8716 -0.6923
 5358TIP3   OH237564   2.458   1.097   0.776 -0.0468  0.0940 -0.0531
 5358TIP3    H137565   2.424   1.021   0.823  0.6140 -0.6380 -0.7077
 5358TIP3    H237566   2.552   1.080   0.769 -0.0150  0.5593 -0.9366
 5359TIP3   OH237567   1.495   1.143  10.821  0.3359 -0.5115  0.2569
 5359TIP3    H137568   1.482   1.050  10.838 -1.9666 -0.4159 -0.6447
 5359TIP3    H237569   1.434   1.187  10.880  0.0666  0.3151 -0.6032
 5360TIP3   OH237570   1.388   6.090  16.150 -0.2168 -0.1106 -0.0352
 5360TIP3    H137571   1.465   6.137  16.180 -0.0929 -1.7912  2.6285
 5360TIP3    H237572   1.315   6.149  16.168  0.2911  1.1206 -1.7306
 5361TIP3   OH237573   3.563   0.529   1.733  0.2487 -0.0528 -0.2116
 5361TIP3    H137574   3.603   0.455   1.779  0.3868 -0.2887 -0.7113
 5361TIP3    H237575   3.592   0.521   1.643  0.5408  0.8019 -0.2095
 5362TIP3   OH237576   0.645   4.199  11.498 -0.4875  0.8672 -0.3054
 5362TIP3    H137577   0.692   4.197  11.581 -1.7683  3.2620  0.5799
 5362TIP3    H237578   0.561   4.159  11.517 -0.4943  0.7033 -0.6717
 5363TIP3   OH237579   5.591   2.873   1.519  0.1449  0.2480 -0.5912
 5363TIP3    H137580   5.571   2.830   1.602 -1.7664  1.2538 -0.4776
 5363TIP3    H237581   5.629   2.804   1.465 -1.5414 -1.2555  0.0480
 5364TIP3   OH237582   0.980   2.678  16.612 -0.1414  0.2226 -0.5589
 5364TIP3    H137583   0.959   2.768  16.636  0.6184  0.5925 -1.2275
 5364TIP3    H237584   1.023   2.641  16.689 -0.4359  0.4441 -0.2916
 5365TIP3   OH237585   4.673   0.048  16.386 -0.0942 -0.2126  0.1155
 5365TIP3    H137586   4.598  -0.003  16.353 -0.1677 -0.5179  0.7346
 5365TIP3    H237587   4.721  -0.014  16.441 -0.1604  0.3670  0.8502
 5366TIP3   OH237588   6.025   0.227   3.107 -0.2623 -0.2723  0.0627
 5366TIP3    H137589   6.012   0.280   3.185  0.3529 -1.5837  1.0992
 5366TIP3    H237590   6.018   0.136   3.138  1.6159 -0.8663 -1.0595
 5367TIP3   OH237591   2.705   5.218  16.072 -0.6479 -0.1454 -0.4044
 5367TIP3    H137592   2.650   5.141  16.089 -0.9198 -0.0741 -0.9457
 5367TIP3    H237593   2.659   5.265  16.002 -0.3798  0.4073 -0.2122
 5368TIP3   OH237594   2.989   0.196   3.646  0.7260  0.9505  0.8549
 5368TIP3    H137595   2.940   0.226   3.569 -1.2283  0.3629  1.8189
 5368TIP3    H237596   3.072   0.164   3.610  0.9877  3.1398 -0.6918
 5369TIP3   OH237597   0.205   2.592  11.172  0.8156 -1.1685 -0.6578
 5369TIP3    H137598   0.252   2.525  11.221  2.5860  0.6503  0.2592
 5369TIP3    H237599   0.259   2.671  11.180  0.0666 -0.1930 -3.6899
 5370TIP3   OH237600   3.671   4.881   2.547 -0.5482  0.6633 -0.3412
 5370TIP3    H137601   3.760   4.879   2.513 -1.5676 -1.3380 -3.3125
 5370TIP3    H237602   3.663   4.800   2.599 -0.7530  0.6107 -0.4520
 5371TIP3   OH237603   0.341   5.101  17.029 -0.6972 -0.4700  0.5998
 5371TIP3    H137604   0.372   5.111  17.119  0.0272 -0.2267  0.3359
 5371TIP3    H237605   0.326   5.007  17.020 -1.9719 -0.3566  1.3442
 5372TIP3   OH237606   1.365   3.360   4.966 -0.2044 -0.5652  0.6794
 5372TIP3    H137607   1.386   3.432   5.026 -1.2350  0.5694 -0.2515
 5372TIP3    H237608   1.273   3.340   4.984  0.0244 -1.5437  0.8000
 5373TIP3   OH237609   4.841   3.581   5.307  0.0418  0.5035 -0.3366
 5373TIP3    H137610   4.843   3.487   5.289  0.8795  0.8648 -2.4281
 5373TIP3    H237611   4.767   3.592   5.367  0.1417 -1.5135  0.2379
 5374TIP3   OH237612   5.617   3.641  15.047 -0.7155 -0.2779 -0.2481
 5374TIP3    H137613   5.630   3.700  14.973  0.4000  0.0002  0.1578
 5374TIP3    H237614   5.610   3.699  15.123  0.4509 -0.6490  0.1628
 5375TIP3   OH237615   1.558   6.629   1.133 -0.4302 -0.0519 -0.1553
 5375TIP3    H137616   1.493   6.631   1.203 -1.3620  0.4437 -1.0172
 5375TIP3    H237617   1.522   6.686   1.065  0.8297  0.0933 -0.7215
 5376TIP3   OH237618   6.801   0.415  10.319  0.0676 -0.3140  0.0993
 5376TIP3    H137619   6.890   0.440  10.292 -0.1840  0.9584  0.3707
 5376TIP3    H237620   6.808   0.400  10.413 -0.3832  1.7733  0.5054
 5377TIP3   OH237621   5.123   0.255  14.354 -0.5388 -0.6362  0.1385
 5377TIP3    H137622   5.030   0.232  14.350 -0.6454 -0.1191 -0.8701
 5377TIP3    H237623   5.166   0.188  14.300 -0.5666  0.1390 -0.8820
 5378TIP3   OH237624   2.984   1.464  16.056  0.0626  0.0002  0.1383
 5378TIP3    H137625   3.018   1.521  15.988 -1.2482 -0.7927 -1.2273
 5378TIP3    H237626   3.039   1.385  16.050  0.9527  0.5228  1.0758
 5379TIP3   OH237627   3.384   3.755  14.665 -0.2397  0.2208 -0.1717
 5379TIP3    H137628   3.294   3.721  14.662  0.5455 -2.2771  1.6614
 5379TIP3    H237629   3.378   3.834  14.718 -1.3374  0.0102  0.0445
 5380TIP3   OH237630   2.333   0.738  13.412  1.0911 -0.3792  0.0889
 5380TIP3    H137631   2.361   0.717  13.323  0.3826 -0.2590 -0.1773
 5380TIP3    H237632   2.409   0.720  13.467  1.9203  0.6540 -0.6787
 5381TIP3   OH237633   0.790   2.820   4.446  0.1793 -0.5959  0.2152
 5381TIP3    H137634   0.733   2.744   4.437 -1.3212  0.6364 -1.4043
 5381TIP3    H237635   0.731   2.894   4.455  1.5587  0.5879 -0.0847
 5382TIP3   OH237636   6.310   5.206  13.996 -0.0119 -0.0908  0.2093
 5382TIP3    H137637   6.316   5.285  14.049  1.8281 -0.3041  0.3973
 5382TIP3    H237638   6.378   5.217  13.929 -1.1647 -0.5794 -1.0844
 5383TIP3   OH237639   2.421   2.645  13.490 -0.2928  0.2404  0.2042
 5383TIP3    H137640   2.482   2.614  13.423 -0.1613  2.0289 -0.5766
 5383TIP3    H237641   2.467   2.634  13.572  0.4046 -0.0246 -0.2136
 5384TIP3   OH237642   0.312   1.389   0.069  0.6369  0.6042  0.1709
 5384TIP3    H137643   0.329   1.311   0.123  1.2330 -0.5909 -1.6424
 5384TIP3    H237644   0.270   1.354  -0.010 -0.8167  2.3691  0.1096
 5385TIP3   OH237645   1.206   6.142   0.653 -0.8363  0.3219  0.1719
 5385TIP3    H137646   1.300   6.146   0.672 -1.3014 -0.1656  3.2183
 5385TIP3    H237647   1.194   6.201   0.579  1.6648  1.5265  0.5897
 5386TIP3   OH237648   0.960   2.037   3.376 -0.2905 -0.1095 -0.3594
 5386TIP3    H137649   1.049   2.067   3.360 -0.6414  1.2231 -0.0053
 5386TIP3    H237650   0.927   2.011   3.290  0.2574 -0.0756 -0.5808
 5387TIP3   OH237651   6.792   0.466  16.195  0.1287  0.1343 -0.0435
 5387TIP3    H137652   6.721   0.402  16.204 -0.2766  0.6123  0.1833
 5387TIP3    H237653   6.751   0.551  16.211  0.6111  0.4801 -0.6052
 5388TIP3   OH237654   5.951   0.820   1.571  0.0787 -0.1974  0.1459
 5388TIP3    H137655   6.014   0.851   1.506  0.3803 -1.6096 -0.2485
 5388TIP3    H237656   5.907   0.900   1.601  0.1619  0.5279 -1.5542
 5389TIP3   OH237657   2.943   6.199  16.994 -0.0726 -0.1419 -0.5305
 5389TIP3    H137658   2.935   6.165  16.905  0.5390  0.6633 -0.9042
 5389TIP3    H237659   2.873   6.155  17.043  1.0093 -2.3255 -0.8384
 5390TIP3   OH237660   4.888   0.869  15.437  0.2259  0.1269  0.5844
 5390TIP3    H137661   4.823   0.916  15.489  0.7341  0.2803  1.0902
 5390TIP3    H237662   4.889   0.780  15.473 -0.0599 -0.0150  0.2462
 5391TIP3   OH237663   5.772   2.197   2.431  0.5517  0.0806  0.7113
 5391TIP3    H137664   5.867   2.189   2.437  0.5067 -0.8095  0.3369
 5391TIP3    H237665   5.739   2.109   2.444 -0.0677 -0.1117 -1.6714
 5392TIP3   OH237666   3.536   1.176   0.756  0.0763  0.2311  0.2432
 5392TIP3    H137667   3.504   1.263   0.781 -0.9811  0.0327 -0.3463
 5392TIP3    H237668   3.507   1.164   0.666 -0.1431 -0.8893  0.4400
 5393TIP3   OH237669   2.384   6.339  15.567  0.5593  0.1598  0.0738
 5393TIP3    H137670   2.317   6.401  15.540  1.4857  0.0042 -2.8759
 5393TIP3    H237671   2.335   6.268  15.609 -0.8404  1.2076  0.2699
 5394TIP3   OH237672   6.384   4.909  12.806  1.0719 -0.4444  0.3569
 5394TIP3    H137673   6.455   4.947  12.858 -0.3092  1.1142  1.2085
 5394TIP3    H237674   6.399   4.942  12.718  1.2456  0.1367  0.5948
 5395TIP3   OH237675   3.957   4.495  14.229  0.1006  0.0927  0.0391
 5395TIP3    H137676   4.011   4.420  14.205  2.5682  1.1007  1.9612
 5395TIP3    H237677   3.881   4.457  14.272  0.7369 -1.3492 -0.0556
 5396TIP3   OH237678   4.989   2.999  13.774 -0.3931 -0.2874 -0.6682
 5396TIP3    H137679   5.015   3.088  13.749  0.4679 -0.6082 -0.9424
 5396TIP3    H237680   4.899   3.009  13.805 -0.9343  0.3865 -2.3345
 5397TIP3   OH237681   0.116   6.802  13.996  0.2088  0.2339  0.1746
 5397TIP3    H137682   0.193   6.745  14.008  0.2198  0.0442 -0.7413
 5397TIP3    H237683   0.050   6.766  14.056  0.8156  0.3802  0.9510
 5398TIP3   OH237684   4.730   0.513  15.693  0.1185  0.1402  0.6502
 5398TIP3    H137685   4.788   0.575  15.737  1.1656 -1.5550  1.7786
 5398TIP3    H237686   4.682   0.471  15.764 -0.3365 -0.5692 -0.0604
 5399TIP3   OH237687   1.979   5.840   6.238 -0.8593 -0.1292 -0.4272
 5399TIP3    H137688   1.915   5.845   6.167 -0.4952  2.5464 -0.6592
 5399TIP3    H237689   2.031   5.919   6.229  0.7448 -0.8949  1.4191
 5400TIP3   OH237690   5.926   4.759  15.061 -0.1169  0.4346 -0.3234
 5400TIP3    H137691   5.876   4.784  15.139  0.8028 -2.6343  1.4029
 5400TIP3    H237692   6.017   4.782  15.082  0.1947 -0.7815 -0.2705
 5401TIP3   OH237693   1.379   3.423   5.813 -0.2058  0.0893  0.1362
 5401TIP3    H137694   1.320   3.375   5.871 -0.2701 -0.0609 -0.0513
 5401TIP3    H237695   1.361   3.387   5.726  0.7661 -0.5644  0.1938
 5402TIP3   OH237696   5.965   6.213   1.827 -0.5023 -0.2058  0.0126
 5402TIP3    H137697   5.957   6.121   1.853 -3.7451 -0.1054 -0.2044
 5402TIP3    H237698   5.996   6.210   1.737  0.8592 -0.9944  0.4895
 5403TIP3   OH237699   5.008   2.081   0.949 -0.5298  0.2298  0.1362
 5403TIP3    H137700   4.919   2.114   0.955  0.4382  3.2037 -0.3803
 5403TIP3    H237701   5.029   2.083   0.855  0.1549 -0.2524  0.2640
 5404TIP3   OH237702   3.399   0.916   6.369 -0.2689  0.1972  0.3507
 5404TIP3    H137703   3.305   0.900   6.359 -0.1338 -0.6915  0.4377
 5404TIP3    H237704   3.433   0.915   6.280 -0.3115  0.3535  0.3319
 5405TIP3   OH237705   3.250   1.318   3.580 -0.0211 -0.1436 -0.1524
 5405TIP3    H137706   3.281   1.407   3.594 -0.7896  0.0631  0.2552
 5405TIP3    H237707   3.308   1.263   3.633 -0.2813  0.2289  0.5258
 5406TIP3   OH237708   2.625   5.382  12.160 -0.3249 -0.3402  0.1947
 5406TIP3    H137709   2.625   5.296  12.118 -0.1607  0.0471 -0.6230
 5406TIP3    H237710   2.716   5.410  12.158 -0.2754 -0.4219  1.0514
 5407TIP3   OH237711   3.480   6.307  15.631 -0.2647  0.6059 -0.7233
 5407TIP3    H137712   3.415   6.309  15.701 -0.3239 -0.8776 -0.7025
 5407TIP3    H237713   3.526   6.391  15.639 -0.5558  0.6600  0.8181
 5408TIP3   OH237714   4.593   0.305  15.543  0.2388 -0.3000 -0.1274
 5408TIP3    H137715   4.533   0.347  15.482 -1.1094 -0.8359  0.7902
 5408TIP3    H237716   4.646   0.377  15.578 -0.9389  0.4209  0.2274
 5409TIP3   OH237717   2.861   5.734  16.957  0.5089  0.1835 -0.4750
 5409TIP3    H137718   2.917   5.812  16.966 -1.3714  1.3909  4.0504
 5409TIP3    H237719   2.894   5.673  17.023 -1.5755 -0.2600  0.2662
 5410TIP3   OH237720   6.171   4.224   5.039  0.2030  0.4645  0.0108
 5410TIP3    H137721   6.154   4.130   5.044  1.1200  0.3443  2.2612
 5410TIP3    H237722   6.252   4.230   4.989  1.1094 -0.1478  1.3241
 5411TIP3   OH237723   1.345   2.918  11.704 -0.3582 -0.3431  0.3926
 5411TIP3    H137724   1.348   2.902  11.609  1.3232 -1.5196  0.6051
 5411TIP3    H237725   1.252   2.931  11.723 -0.6305  1.3185 -1.6117
 5412TIP3   OH237726   5.190   3.266  12.360  0.1672  0.2943 -0.2850
 5412TIP3    H137727   5.182   3.269  12.456 -1.0518  1.9224 -0.3968
 5412TIP3    H237728   5.169   3.175  12.337  3.3262 -0.9490  1.1443
 5413TIP3   OH237729   0.191   0.841  13.997 -0.0420  0.3430 -0.7469
 5413TIP3    H137730   0.218   0.894  13.922 -1.1509 -1.3398 -2.4441
 5413TIP3    H237731   0.209   0.751  13.970 -1.5194 -0.3943  0.5522
 5414TIP3   OH237732   5.056   2.691  13.858  0.8246 -0.3397 -0.8232
 5414TIP3    H137733   5.028   2.735  13.939  1.7830 -0.4669 -0.4005
 5414TIP3    H237734   5.144   2.660  13.878  1.3236  0.1686 -2.1363
 5415TIP3   OH237735   4.501   0.214   1.068  0.8077 -0.5360 -0.5279
 5415TIP3    H137736   4.541   0.144   1.120  0.7742  1.6083  2.6637
 5415TIP3    H237737   4.538   0.294   1.104  0.5516  1.1981 -3.7661
 5416TIP3   OH237738   5.729   5.280  15.302 -0.3095 -0.6000 -0.6219
 5416TIP3    H137739   5.681   5.200  15.282 -0.3014 -0.6619 -0.3991
 5416TIP3    H237740   5.751   5.272  15.395  0.4446 -0.7387 -0.8076
 5417TIP3   OH237741   5.601   0.256   5.319  0.3659 -0.0307  0.5756
 5417TIP3    H137742   5.619   0.236   5.411  1.1189 -1.0407  0.2250
 5417TIP3    H237743   5.582   0.171   5.279  1.5020  0.2003 -0.5107
 5418TIP3   OH237744   1.591   1.442   1.180  0.2199 -0.0038 -0.1722
 5418TIP3    H137745   1.672   1.393   1.197 -0.7826 -1.2839  1.1359
 5418TIP3    H237746   1.522   1.376   1.184 -0.9288  1.1035 -1.0895
 5419TIP3   OH237747   1.014   0.278   2.293 -0.2647  0.4611 -0.1340
 5419TIP3    H137748   0.954   0.332   2.344  0.1903  0.9356 -0.0858
 5419TIP3    H237749   0.979   0.189   2.300  0.3107  0.3276  1.8239
 5420TIP3   OH237750   3.029   5.325   2.090  0.1844 -0.8180 -0.4941
 5420TIP3    H137751   3.101   5.343   2.151 -0.4265 -1.3847  0.4133
 5420TIP3    H237752   2.960   5.387   2.116 -0.5188 -1.8579  0.1830
 5421TIP3   OH237753   2.610   5.400  11.559 -0.5541 -0.1779 -0.2124
 5421TIP3    H137754   2.684   5.343  11.536  0.1929  0.6443  0.0945
 5421TIP3    H237755   2.545   5.340  11.595 -0.2214 -0.9798 -0.8963
 5422TIP3   OH237756   4.538   3.971  11.626  0.0529  0.0900  0.0452
 5422TIP3    H137757   4.528   4.016  11.542  0.0535  0.4291  0.2244
 5422TIP3    H237758   4.532   4.041  11.691 -1.9462 -0.3941  0.4573
 5423TIP3   OH237759   4.627   1.029   0.075 -0.1910  0.1901  0.1599
 5423TIP3    H137760   4.708   0.993   0.112  0.4662  0.1608 -1.2263
 5423TIP3    H237761   4.632   1.123   0.095  0.0214  0.1376  0.3591
 5424TIP3   OH237762   6.834   0.036   2.263 -0.3876  0.0108 -0.0652
 5424TIP3    H137763   6.895   0.109   2.274  0.0043 -0.6005  2.7709
 5424TIP3    H237764   6.861  -0.006   2.181  2.6314  0.1603  0.7061
 5425TIP3   OH237765   1.047   6.584   3.945 -0.2674  0.4901 -0.4558
 5425TIP3    H137766   1.096   6.588   3.863 -0.9056 -0.8868 -0.9370
 5425TIP3    H237767   1.078   6.658   3.995  0.1400  1.3746 -1.9488
 5426TIP3   OH237768   0.358   0.210   5.749 -0.0586 -0.0005  0.6000
 5426TIP3    H137769   0.444   0.218   5.708 -0.7433  1.7035 -0.6111
 5426TIP3    H237770   0.373   0.155   5.826  1.7727 -1.1603 -0.5016
 5427TIP3   OH237771   3.301   0.621   4.668 -0.0751 -0.4806 -0.2727
 5427TIP3    H137772   3.247   0.543   4.680  2.4140 -2.5715 -1.6433
 5427TIP3    H237773   3.323   0.621   4.574  1.2606  0.9621 -0.0086
 5428TIP3   OH237774   2.793   3.119  14.645 -0.3700  0.7005 -0.4355
 5428TIP3    H137775   2.842   3.071  14.712 -2.1942 -1.8980 -0.7809
 5428TIP3    H237776   2.800   3.211  14.671  3.6300  0.4018  0.0962
 5429TIP3   OH237777   6.284   3.954  15.059 -0.7839 -0.4445  0.4396
 5429TIP3    H137778   6.196   3.984  15.037 -0.2987  2.1511  1.5641
 5429TIP3    H237779   6.337   3.979  14.984 -0.7991 -0.8470  0.2954
 5430TIP3   OH237780   0.797   1.449  14.875  0.3075  0.1088 -0.1991
 5430TIP3    H137781   0.791   1.374  14.935 -0.1506 -0.8188 -1.3814
 5430TIP3    H237782   0.834   1.413  14.795 -0.8887  0.9316 -1.1540
 5431TIP3   OH237783   3.168   6.410   2.673 -0.2891  0.3602 -0.5451
 5431TIP3    H137784   3.146   6.317   2.678  0.8097  0.1527  0.8968
 5431TIP3    H237785   3.257   6.411   2.637  0.7063  0.6634  1.7577
 5432TIP3   OH237786   6.491   0.498  15.408 -0.7884  0.6312 -0.2069
 5432TIP3    H137787   6.489   0.421  15.465 -0.0181  1.5260  1.1087
 5432TIP3    H237788   6.563   0.481  15.347  1.3333  1.4308  1.8923
 5433TIP3   OH237789   2.014   0.213  13.275 -0.0972  0.0892  0.0624
 5433TIP3    H137790   1.996   0.192  13.367 -1.0798 -0.4910 -0.2551
 5433TIP3    H237791   2.053   0.300  13.278  0.5601 -0.2276  1.0890
 5434TIP3   OH237792   3.231   6.348   0.032  0.0294 -0.1266 -0.2256
 5434TIP3    H137793   3.141   6.357   0.062  0.2565 -0.4599  0.5650
 5434TIP3    H237794   3.239   6.256   0.008 -0.1548  0.1362 -1.3508
 5435TIP3   OH237795   6.234   5.091   1.464  0.4401  0.1061  0.2970
 5435TIP3    H137796   6.210   5.063   1.552 -0.4627  0.9270  0.3257
 5435TIP3    H237797   6.282   5.017   1.427 -0.2738 -0.7356  1.0283
 5436TIP3   OH237798   1.388   1.844  14.636  0.4318  0.0739 -0.2360
 5436TIP3    H137799   1.306   1.871  14.677  0.0469  0.4557 -1.2271
 5436TIP3    H237800   1.447   1.918  14.649  0.4453  0.0248 -0.0132
 5437TIP3   OH237801   5.147   3.840  14.486  0.3579  0.4342  0.3311
 5437TIP3    H137802   5.090   3.826  14.410  1.8057 -0.2426 -0.6848
 5437TIP3    H237803   5.113   3.782  14.554 -1.8592  2.1245  0.7510
 5438TIP3   OH237804   3.161   6.856  13.745  0.8033  0.3944 -0.3030
 5438TIP3    H137805   3.098   6.927  13.731 -0.8839 -0.8464  0.5660
 5438TIP3    H237806   3.146   6.829  13.836  1.8545 -0.6535 -0.4156
 5439TIP3   OH237807   3.757   0.824   3.001  0.6381  0.1066  0.6994
 5439TIP3    H137808   3.749   0.749   2.942 -0.9570  0.4619  0.4103
 5439TIP3    H237809   3.828   0.876   2.965  0.1348 -0.0332 -0.5431
 5440TIP3   OH237810   6.512   6.828  15.614  0.2875 -0.2337  0.5906
 5440TIP3    H137811   6.541   6.787  15.696  2.5600  1.3548  0.6904
 5440TIP3    H237812   6.567   6.788  15.547  0.2183  0.2905  0.2217
 5441TIP3   OH237813   3.845   3.923  12.434  0.0715 -0.5771  0.2755
 5441TIP3    H137814   3.899   3.851  12.465  0.5927 -0.1932  0.2732
 5441TIP3    H237815   3.827   3.975  12.513 -1.6076 -1.5359  0.5684
 5442TIP3   OH237816   4.930   1.850   2.582 -0.1386 -0.1165 -0.5400
 5442TIP3    H137817   4.908   1.943   2.584 -2.4616 -0.5988 -0.4902
 5442TIP3    H237818   5.012   1.843   2.631  0.4479  1.9695 -1.1399
 5443TIP3   OH237819   0.658   6.293  11.197 -0.2502  0.1851  0.2908
 5443TIP3    H137820   0.570   6.316  11.169  0.2130 -1.1464 -2.5550
 5443TIP3    H237821   0.657   6.197  11.205  0.9681  0.1394  0.1336
 5444TIP3   OH237822   2.519   1.298  11.898 -0.4719 -0.3065  0.4851
 5444TIP3    H137823   2.427   1.321  11.910 -0.9166 -1.0065 -1.2555
 5444TIP3    H237824   2.538   1.236  11.967 -2.0132 -1.9504 -0.4718
 5445TIP3   OH237825   6.561   6.471   4.024 -0.5951  0.1845 -0.0830
 5445TIP3    H137826   6.655   6.488   4.024 -0.3749 -0.9128 -0.2847
 5445TIP3    H237827   6.520   6.558   4.021  0.3920  0.7047  0.9273
 5446TIP3   OH237828   2.628   4.649   4.354  0.4887  0.0140 -0.1050
 5446TIP3    H137829   2.712   4.676   4.319  0.3153  1.1403  0.3089
 5446TIP3    H237830   2.564   4.680   4.290  0.4249 -2.2579 -1.2669
 5447TIP3   OH237831   2.058   5.611  12.437 -0.5601  0.3973  0.1231
 5447TIP3    H137832   2.089   5.639  12.522 -1.8926  1.9884  0.1418
 5447TIP3    H237833   2.065   5.515  12.438  0.3377  0.4649  1.6328
 5448TIP3   OH237834   6.412   2.495   4.403  0.6172 -0.4803 -0.0025
 5448TIP3    H137835   6.409   2.511   4.497  0.4949  0.3051 -0.1359
 5448TIP3    H237836   6.401   2.400   4.394 -1.4858 -0.3323  0.6532
 5449TIP3   OH237837   4.372   2.340   0.317 -0.3869  0.0492  0.6308
 5449TIP3    H137838   4.440   2.279   0.289 -0.7669  0.0146 -0.2461
 5449TIP3    H237839   4.377   2.338   0.412 -0.6891 -1.7086  0.6551
 5450TIP3   OH237840   5.208   5.858  11.421 -0.0246 -0.3899  0.4927
 5450TIP3    H137841   5.169   5.903  11.346  0.3430 -1.2747 -0.2486
 5450TIP3    H237842   5.235   5.929  11.479 -3.2092  0.3035  1.3495
 5451TIP3   OH237843   3.376   0.550   5.048  0.3455  0.1429  0.1045
 5451TIP3    H137844   3.350   0.478   4.990 -1.4595  0.0082  1.0167
 5451TIP3    H237845   3.412   0.507   5.125  1.0042  0.2812 -0.1189
 5452TIP3   OH237846   1.564   1.844   0.006  0.5096  0.2617  0.6502
 5452TIP3    H137847   1.569   1.882   0.093  0.2410 -0.9672  1.2254
 5452TIP3    H237848   1.550   1.751   0.021  1.0794 -0.0717 -0.7050
 5453TIP3   OH237849   6.006   4.769   4.008  1.1974  0.4897 -0.2018
 5453TIP3    H137850   6.066   4.718   3.955  0.4965 -1.0032  0.3646
 5453TIP3    H237851   6.062   4.823   4.063  1.9395  2.1324 -2.4254
 5454TIP3   OH237852   3.785   2.082  11.849 -0.1476  0.0321 -0.4580
 5454TIP3    H137853   3.872   2.118  11.830  0.5198 -0.0920  1.9632
 5454TIP3    H237854   3.785   2.071  11.944 -1.5842 -3.2002 -0.7189
 5455TIP3   OH237855   0.906   3.019  15.699 -0.5640 -0.3857  0.1641
 5455TIP3    H137856   0.892   2.999  15.607  2.0497 -2.9537  0.2040
 5455TIP3    H237857   0.988   3.068  15.702  0.3973 -1.9691  1.2025
 5456TIP3   OH237858   4.455   4.134  13.071 -0.0330 -0.1397 -0.5856
 5456TIP3    H137859   4.378   4.180  13.104  0.2641 -0.2942  0.3566
 5456TIP3    H237860   4.466   4.168  12.982 -0.8720  0.2763 -0.5443
 5457TIP3   OH237861   4.195   2.471  11.835  0.3802  0.2239 -0.6229
 5457TIP3    H137862   4.245   2.480  11.916 -0.2578 -1.7521  0.0452
 5457TIP3    H237863   4.109   2.508  11.855  0.2914 -0.0684 -0.4607
 5458TIP3   OH237864   4.730   6.181   0.327  0.1171 -0.4287  0.3783
 5458TIP3    H137865   4.638   6.189   0.301  0.5206  0.3380 -0.9279
 5458TIP3    H237866   4.768   6.265   0.303  1.6453 -1.5033 -1.1687
 5459TIP3   OH237867   6.721   3.208  11.186 -0.3659 -0.7941  0.1772
 5459TIP3    H137868   6.652   3.273  11.171 -0.8946 -1.2357  0.6557
 5459TIP3    H237869   6.748   3.181  11.098 -1.0764 -0.8965 -0.0175
 5460TIP3   OH237870   5.339   6.671  14.652  0.2700  1.0248  0.1412
 5460TIP3    H137871   5.334   6.756  14.608  0.6598  1.8918  1.6972
 5460TIP3    H237872   5.418   6.676  14.706  1.6318 -1.2175 -1.4810
 5461TIP3   OH237873   0.267   5.140  13.810 -0.0048 -0.3558  0.3342
 5461TIP3    H137874   0.362   5.146  13.808  0.0521 -0.8743  1.1793
 5461TIP3    H237875   0.237   5.227  13.785  0.7002 -0.0895  0.4066
 5462TIP3   OH237876   3.094   4.734  13.236  0.2569 -0.2111  0.4392
 5462TIP3    H137877   3.153   4.671  13.278 -1.1350 -1.8926 -0.0184
 5462TIP3    H237878   3.119   4.733  13.144  0.3467  0.0690  0.4574
 5463TIP3   OH237879   3.819   3.343   0.655 -0.0647 -0.2696  0.0023
 5463TIP3    H137880   3.743   3.396   0.678  0.5128 -0.6507  3.2313
 5463TIP3    H237881   3.809   3.263   0.707  2.8262 -0.0399  1.1456
 5464TIP3   OH237882   0.716   3.369  11.152 -0.3475  0.2076 -0.4722
 5464TIP3    H137883   0.730   3.404  11.240  0.0462 -0.4085 -0.2835
 5464TIP3    H237884   0.656   3.295  11.164  2.8790 -2.6256 -0.0600
 5465TIP3   OH237885   0.153   4.448  13.776 -0.4840  0.4046  0.0999
 5465TIP3    H137886   0.103   4.428  13.697  1.3201  1.9696 -1.5465
 5465TIP3    H237887   0.162   4.364  13.821 -0.0654 -0.9407 -2.3123
 5466TIP3   OH237888   5.049   6.442  11.780 -0.1474 -0.2349  0.1445
 5466TIP3    H137889   5.066   6.384  11.854 -1.3590 -0.4659  0.2687
 5466TIP3    H237890   5.008   6.385  11.714 -2.7134  0.6975  0.8224
 5467TIP3   OH237891   1.551   4.646   4.274  0.2842 -0.9934  0.0147
 5467TIP3    H137892   1.530   4.580   4.209  0.3480  0.1286 -1.1864
 5467TIP3    H237893   1.470   4.696   4.285  0.9872  0.5077 -1.2544
 5468TIP3   OH237894   1.494   4.144  12.719 -0.2469 -0.1320 -0.2147
 5468TIP3    H137895   1.434   4.084  12.674 -0.5627 -0.3568  0.4932
 5468TIP3    H237896   1.522   4.097  12.797  0.9944 -0.0901 -0.6170
 5469TIP3   OH237897   4.158   6.168  12.569 -0.1524 -0.2413 -0.3100
 5469TIP3    H137898   4.121   6.166  12.481 -1.8579 -0.4475  0.3783
 5469TIP3    H237899   4.250   6.191  12.556 -0.6331  0.8821 -2.0587
 5470TIP3   OH237900   4.851   5.441  12.962 -0.1979  0.2023 -0.5043
 5470TIP3    H137901   4.895   5.407  13.040  0.3408  0.1576 -0.8181
 5470TIP3    H237902   4.766   5.471  12.993  0.6218  1.6837  0.3993
 5471TIP3   OH237903   1.036   5.521   4.136 -0.0865 -1.0210 -0.4720
 5471TIP3    H137904   1.041   5.612   4.165  0.9870 -1.0780 -0.4584
 5471TIP3    H237905   1.011   5.472   4.214  2.0079 -1.0702  0.2210
 5472TIP3   OH237906   0.101   1.586   2.775  0.0523 -0.1604  0.6108
 5472TIP3    H137907   0.012   1.552   2.785  0.6292 -1.7942  0.4108
 5472TIP3    H237908   0.117   1.584   2.681  0.4646 -0.3046  0.6824
 5473TIP3   OH237909   6.328   0.037   0.782 -0.0515  0.1193  0.5461
 5473TIP3    H137910   6.306   0.130   0.771  1.9016  0.4941 -0.6914
 5473TIP3    H237911   6.393   0.020   0.713  1.4444 -1.5168  2.2664
 5474TIP3   OH237912   3.722   1.325  11.863  0.0743  0.6876  0.4406
 5474TIP3    H137913   3.811   1.354  11.881  1.2202 -2.3862  0.2970
 5474TIP3    H237914   3.717   1.323  11.767  0.4637 -0.7180  0.4344
 5475TIP3   OH237915   0.839   5.419   2.902  0.2951  0.0306 -0.7241
 5475TIP3    H137916   0.752   5.452   2.925 -0.1208 -0.9803 -0.7939
 5475TIP3    H237917   0.873   5.384   2.984  0.9008  0.9671 -0.5602
 5476TIP3   OH237918   6.787   4.013  16.710  0.1332  0.0050 -0.2482
 5476TIP3    H137919   6.797   4.107  16.728  0.7611 -0.0142 -0.4537
 5476TIP3    H237920   6.783   3.972  16.796  0.4227  0.1718 -0.1541
 5477TIP3   OH237921   3.215   4.680  14.268  0.1594 -0.4775  0.3374
 5477TIP3    H137922   3.277   4.661  14.338  0.0755  1.9249  1.1646
 5477TIP3    H237923   3.141   4.721  14.312 -0.3542  0.1329 -1.0322
 5478TIP3   OH237924   1.437   0.532   5.701 -0.3154 -0.3804 -0.0761
 5478TIP3    H137925   1.505   0.494   5.757 -1.1883  0.3079  1.5231
 5478TIP3    H237926   1.444   0.484   5.618  0.3686 -2.1274  0.9464
 5479TIP3   OH237927   4.726   1.485   3.320 -0.0833 -0.7041 -0.1948
 5479TIP3    H137928   4.675   1.424   3.374  0.4183 -0.6123  0.3991
 5479TIP3    H237929   4.699   1.572   3.350 -0.6281 -0.6273 -0.8798
 5480TIP3   OH237930   3.730   5.816   6.219  0.1149  1.0419 -0.0024
 5480TIP3    H137931   3.669   5.777   6.157 -0.6384 -0.5807  1.6801
 5480TIP3    H237932   3.680   5.887   6.261  0.4721  1.8252 -0.8585
 5481TIP3   OH237933   6.432   4.964  15.735 -0.2185 -0.7456  0.1658
 5481TIP3    H137934   6.366   4.905  15.772 -0.8949 -0.3308 -0.3495
 5481TIP3    H237935   6.422   5.045  15.786  0.2045 -0.8208  0.3772
 5482TIP3   OH237936   3.749   1.208  15.410  0.5033  0.6247  0.2561
 5482TIP3    H137937   3.750   1.222  15.315 -0.3345  1.7280  0.3749
 5482TIP3    H237938   3.771   1.116  15.422  3.3584  1.0740 -0.8522
 5483TIP3   OH237939   2.215   5.310  15.122  0.0722 -0.0995  0.1728
 5483TIP3    H137940   2.268   5.260  15.060 -0.0293  0.4074 -0.3330
 5483TIP3    H237941   2.276   5.332  15.192  0.1423 -0.8368  0.3509
 5484TIP3   OH237942   6.597   1.593  10.554  0.6417 -0.2321  0.1002
 5484TIP3    H137943   6.584   1.677  10.510  1.1191 -0.6335 -0.8284
 5484TIP3    H237944   6.543   1.599  10.633 -1.0352  0.1463 -1.0144
 5485TIP3   OH237945   6.452   6.656   2.895  0.3812 -0.2817 -0.5675
 5485TIP3    H137946   6.403   6.721   2.945 -0.8418 -0.4072 -1.5506
 5485TIP3    H237947   6.486   6.703   2.820  0.6431 -0.4909 -0.5827
 5486TIP3   OH237948   2.517   4.291  16.449  0.4117 -0.7056  0.2079
 5486TIP3    H137949   2.485   4.201  16.463  0.4315 -0.7715 -0.1657
 5486TIP3    H237950   2.547   4.319  16.536 -0.9923 -0.5005  0.6611
 5487TIP3   OH237951   2.785   1.288  11.372 -0.1744  0.2193 -0.0549
 5487TIP3    H137952   2.763   1.375  11.405 -2.2690  0.8052 -2.6896
 5487TIP3    H237953   2.703   1.240  11.374  0.6126 -1.1788 -0.1857
 5488TIP3   OH237954   1.212   2.106  13.283 -0.2351 -0.1149  0.1114
 5488TIP3    H137955   1.282   2.171  13.295  0.0442 -0.2737 -0.6203
 5488TIP3    H237956   1.132   2.158  13.275  0.0945  0.2058 -1.3712
 5489TIP3   OH237957   5.922   2.231   0.952 -0.2872 -0.1224  0.4752
 5489TIP3    H137958   5.833   2.199   0.969 -0.1727  0.0824  1.5117
 5489TIP3    H237959   5.923   2.319   0.989 -0.1687  0.5675 -1.0884
 5490TIP3   OH237960   6.505   0.679  12.535  0.2202 -0.4361  0.0613
 5490TIP3    H137961   6.559   0.752  12.565 -0.1284 -0.1719  0.0383
 5490TIP3    H237962   6.568   0.618  12.496  0.7847 -1.1186  1.9318
 5491TIP3   OH237963   2.777   1.778   4.516  0.3866 -0.1826 -0.1385
 5491TIP3    H137964   2.765   1.873   4.514 -0.6469 -0.2251  1.8634
 5491TIP3    H237965   2.774   1.755   4.609  3.2739 -1.8953 -0.3459
 5492TIP3   OH237966   2.109   0.698   5.226 -0.3894 -0.5692 -0.0377
 5492TIP3    H137967   2.144   0.614   5.197 -0.8864 -0.9095  0.3324
 5492TIP3    H237968   2.068   0.735   5.148  2.1545  0.5864 -0.9149
 5493TIP3   OH237969   5.693   6.459  10.328 -0.0476 -0.4211 -0.0853
 5493TIP3    H137970   5.781   6.425  10.316 -1.0964 -2.8278 -1.6862
 5493TIP3    H237971   5.698   6.550  10.298  2.1400 -0.0527  1.2086
 5494TIP3   OH237972   0.975   4.947  14.339 -0.6778  0.1528  0.4298
 5494TIP3    H137973   0.945   4.869  14.386  0.1296 -0.5843 -0.2270
 5494TIP3    H237974   1.048   4.915  14.285 -0.7111  1.2474 -0.2940
 5495TIP3   OH237975   0.927   5.139   1.951  0.3203 -0.2140  0.2108
 5495TIP3    H137976   0.952   5.095   1.870  1.4417  1.2986 -0.3071
 5495TIP3    H237977   0.848   5.187   1.929  0.0335 -0.6317  0.3168
 5496TIP3   OH237978   4.790   4.581  13.797  0.3065  0.4031  0.4811
 5496TIP3    H137979   4.857   4.513  13.801 -0.9859 -0.8627  1.2683
 5496TIP3    H237980   4.798   4.617  13.709 -0.2945 -2.1616 -0.7057
 5497TIP3   OH237981   0.030   5.905  14.531  0.1608 -0.2659  0.2196
 5497TIP3    H137982   0.001   5.856  14.454 -0.2745  1.7288 -0.9560
 5497TIP3    H237983   0.085   5.844  14.579 -0.8993 -2.1066 -0.7975
 5498TIP3   OH237984   4.799   4.936  11.810 -0.1032  0.7016  0.3087
 5498TIP3    H137985   4.806   4.913  11.717 -0.5523  0.9827  0.2036
 5498TIP3    H237986   4.807   4.852  11.855  0.6997  0.6312  0.0480
 5499TIP3   OH237987   3.114   3.064  12.983 -0.2968  0.7851  0.3814
 5499TIP3    H137988   3.195   3.098  13.021  0.7804  0.0798 -1.1454
 5499TIP3    H237989   3.063   3.142  12.962 -0.2409  1.2195  1.7988
 5500TIP3   OH237990   1.095   0.195  16.061 -0.4254  0.3365 -0.4515
 5500TIP3    H137991   1.103   0.146  16.143  1.1581  1.3707  0.0634
 5500TIP3    H237992   1.186   0.206  16.032 -0.9642 -0.0101 -2.3574
 5501TIP3   OH237993   1.472   6.666   4.911  0.0693  0.6479  0.0543
 5501TIP3    H137994   1.505   6.650   4.999 -0.1875  0.3936  0.1068
 5501TIP3    H237995   1.524   6.739   4.878  0.8444  0.1063  0.0510
 5502TIP3   OH237996   4.194   1.101  13.357  0.0509  0.1455 -0.2373
 5502TIP3    H137997   4.118   1.109  13.416 -1.4068 -0.3722 -1.9554
 5502TIP3    H237998   4.194   1.009  13.330 -0.2691  0.6980 -2.2222
 5503TIP3   OH237999   4.838   2.556  12.083  0.3939 -0.2269 -0.1099
 5503TIP3    H138000   4.786   2.634  12.101 -0.9742 -0.8298 -1.2901
 5503TIP3    H238001   4.775   2.489  12.057  1.6760 -1.2525 -0.7526
 5504TIP3   OH238002   1.991   2.487   6.157  0.2124  0.0622 -0.0995
 5504TIP3    H138003   1.970   2.485   6.064  0.2271  1.2648 -0.1367
 5504TIP3    H238004   1.986   2.395   6.184  0.0064 -0.2766 -1.2329
 5505TIP3   OH238005   0.922   5.770   5.748 -0.1285 -0.6201  0.0384
 5505TIP3    H138006   0.930   5.810   5.835  0.2280 -0.9574  0.1630
 5505TIP3    H238007   0.901   5.679   5.766  0.7182 -0.8700 -0.2112
 5506TIP3   OH238008   2.514   4.050   2.902 -0.4445 -0.0593  0.2023
 5506TIP3    H138009   2.521   4.043   2.807 -0.6649 -1.0153  0.2560
 5506TIP3    H238010   2.601   4.025   2.935 -0.9008 -1.5436  0.3335
 5507TIP3   OH238011   2.377   5.168   2.537 -0.0657  0.3325  0.4809
 5507TIP3    H138012   2.346   5.079   2.523 -0.9455  0.3839  1.8590
 5507TIP3    H238013   2.297   5.221   2.543  0.4134  1.0829  0.4576
 5508TIP3   OH238014   0.905   0.489  14.416  0.1759  0.6825 -0.1320
 5508TIP3    H138015   0.947   0.509  14.333 -0.8842 -0.0138 -0.8678
 5508TIP3    H238016   0.815   0.520  14.406  0.4178  1.9383  1.3187
 5509TIP3   OH238017   0.413   3.056  12.402  0.1056 -0.5665  0.1373
 5509TIP3    H138018   0.431   2.969  12.366 -0.5769  0.0474 -1.7939
 5509TIP3    H238019   0.482   3.112  12.367 -0.0400 -0.1307  0.5371
 5510TIP3   OH238020   2.939   1.440  14.282 -0.1369 -0.1405 -0.4557
 5510TIP3    H138021   2.978   1.527  14.273 -1.3114  0.2726 -1.9584
 5510TIP3    H238022   2.961   1.413  14.371  3.2017  0.2134 -1.0306
 5511TIP3   OH238023   1.533   5.681   5.276  0.0693  0.3172  0.4581
 5511TIP3    H138024   1.616   5.658   5.318  0.4889 -0.9224 -0.9597
 5511TIP3    H238025   1.480   5.602   5.284 -0.4687  0.6448  0.1631
 5512TIP3   OH238026   1.200   2.807   1.164  0.1290  0.1064  0.1172
 5512TIP3    H138027   1.289   2.805   1.131 -0.4142 -0.7136 -1.4255
 5512TIP3    H238028   1.165   2.720   1.143 -0.9120  0.2720  1.0504
 5513TIP3   OH238029   2.743   3.617  14.661  0.4113  0.2900 -0.5787
 5513TIP3    H138030   2.741   3.699  14.611  0.5061 -0.2362 -1.4856
 5513TIP3    H238031   2.756   3.644  14.752  1.2607  1.2448 -0.9606
 5514TIP3   OH238032   4.296   3.787  14.248  0.1590  0.0886  0.2556
 5514TIP3    H138033   4.268   3.790  14.340 -0.6579 -1.0941  0.0677
 5514TIP3    H238034   4.364   3.720  14.246 -0.0883 -0.1579 -0.0544
 5515TIP3   OH238035   2.372   3.495  13.958 -0.4116  0.1660 -0.2195
 5515TIP3    H138036   2.454   3.470  14.000 -0.6401 -1.3367 -0.6318
 5515TIP3    H238037   2.398   3.549  13.883  0.1376  0.4175  0.1466
 5516TIP3   OH238038   2.267   6.746   5.206 -0.0135  0.7080 -0.1428
 5516TIP3    H138039   2.235   6.701   5.284  1.4873 -0.8448 -0.3651
 5516TIP3    H238040   2.245   6.838   5.221 -0.2312  0.3793  1.8638
 5517TIP3   OH238041   4.765   1.513   0.593  0.3002  0.2028 -0.0171
 5517TIP3    H138042   4.689   1.521   0.535 -1.7413  0.0064  2.4279
 5517TIP3    H238043   4.743   1.440   0.651  1.3572  1.5064  2.1476
 5518TIP3   OH238044   3.214   0.948  11.484  0.3712  0.1819  0.6047
 5518TIP3    H138045   3.128   0.958  11.525 -0.5472  0.9034 -1.3548
 5518TIP3    H238046   3.194   0.938  11.391  2.4922  1.9848 -0.1070
 5519TIP3   OH238047   4.509   5.426   1.046  0.8198  0.0930  0.1579
 5519TIP3    H138048   4.455   5.503   1.028  0.2744 -0.1399  0.7701
 5519TIP3    H238049   4.469   5.386   1.123  1.0687 -0.8314 -0.1819
 5520TIP3   OH238050   4.683   0.313  11.138  0.1911  0.7406  0.5488
 5520TIP3    H138051   4.620   0.351  11.077  1.5796  0.8134 -0.9016
 5520TIP3    H238052   4.739   0.386  11.163  1.1592  0.2156 -0.0538
 5521TIP3   OH238053   5.679   4.646   0.322  0.0778  0.1077 -0.8196
 5521TIP3    H138054   5.622   4.700   0.268  1.3104 -0.4164 -2.7932
 5521TIP3    H238055   5.668   4.557   0.287 -0.3234 -0.5744  0.9364
 5522TIP3   OH238056   1.571   4.497  16.004 -0.1358  0.3829  0.3324
 5522TIP3    H138057   1.548   4.584  15.970  1.0906  0.7733  0.4584
 5522TIP3    H238058   1.650   4.512  16.056  1.3330 -1.1303 -1.3525
 5523TIP3   OH238059   0.712   2.209  13.025  0.0111  0.0717  0.1301
 5523TIP3    H138060   0.800   2.186  13.057  0.0898 -0.8165 -0.6849
 5523TIP3    H238061   0.728   2.247  12.939 -0.3654  0.4193  0.2137
 5524TIP3   OH238062   1.712   3.153  15.770  0.1166  0.0688 -0.1632
 5524TIP3    H138063   1.789   3.198  15.806  0.3330  2.0961 -2.8293
 5524TIP3    H238064   1.642   3.218  15.776 -0.3324 -0.2688 -1.4422
 5525TIP3   OH238065   4.343   0.009   5.928  0.0176 -0.1189 -0.0086
 5525TIP3    H138066   4.375   0.080   5.874  0.7809 -0.3931  0.0743
 5525TIP3    H238067   4.404  -0.063   5.913 -1.4680 -1.2112 -1.1026
 5526TIP3   OH238068   3.043   1.693  13.992 -0.1684 -0.0428  0.6595
 5526TIP3    H138069   3.078   1.759  14.052 -0.3085 -0.8491  1.6503
 5526TIP3    H238070   2.950   1.686  14.015 -0.1105 -0.7270  0.7160
 5527TIP3   OH238071   5.621   2.631   0.830 -0.5131 -0.3922 -0.1041
 5527TIP3    H138072   5.698   2.582   0.803 -0.3582  0.0876 -0.5681
 5527TIP3    H238073   5.564   2.631   0.753 -0.8902 -0.5820  0.1729
 5528TIP3   OH238074   3.042   1.209   3.809  0.5426  0.5965  0.4190
 5528TIP3    H138075   3.127   1.205   3.764  0.5169  1.6083  0.2667
 5528TIP3    H238076   3.029   1.302   3.828 -1.2642  0.6734 -0.9567
 5529TIP3   OH238077   4.356   6.862  15.514  0.2249 -0.7619  0.1099
 5529TIP3    H138078   4.367   6.780  15.466  0.7089 -0.4450 -0.3224
 5529TIP3    H238079   4.339   6.927  15.447 -0.5539 -0.5705  0.4818
 5530TIP3   OH238080   6.389   0.956  15.897  0.4685 -0.2587  0.2392
 5530TIP3    H138081   6.356   0.947  15.986 -2.0473 -1.1995 -0.6858
 5530TIP3    H238082   6.431   0.872  15.878 -1.7610 -1.3038 -0.4171
 5531TIP3   OH238083   4.627   5.450   5.932  0.3136  0.0841 -0.2300
 5531TIP3    H138084   4.660   5.540   5.931  0.5843 -0.0118 -0.9072
 5531TIP3    H238085   4.590   5.439   6.019  0.0000  0.9539 -0.2347
 5532TIP3   OH238086   2.434   1.760  10.506 -0.6883  0.1730  0.4065
 5532TIP3    H138087   2.519   1.723  10.528 -0.9757 -0.1479  1.0297
 5532TIP3    H238088   2.449   1.809  10.426  0.8041  2.6778  2.0787
 5533TIP3   OH238089   0.043   3.604   1.938  0.0349 -0.1817  0.6639
 5533TIP3    H138090   0.032   3.524   1.887  0.9271 -0.3726  0.7598
 5533TIP3    H238091   0.042   3.574   2.029  4.1250 -0.6836  0.7179
 5534TIP3   OH238092   5.386   5.149   2.559 -0.6703  0.5873  0.2311
 5534TIP3    H138093   5.423   5.160   2.646 -0.1481 -1.7223  0.3609
 5534TIP3    H238094   5.450   5.190   2.501  0.4709 -0.4291  0.7285
 5535TIP3   OH238095   6.026   2.397   1.896  0.7583 -0.0957 -0.1751
 5535TIP3    H138096   6.022   2.357   1.982 -4.7387  0.3885  0.1713
 5535TIP3    H238097   5.992   2.330   1.837 -2.6552  1.7296 -0.5542
 5536TIP3   OH238098   2.615   0.791   1.926 -0.2223  0.4340  0.0156
 5536TIP3    H138099   2.531   0.775   1.969 -0.0686 -0.5432 -0.0341
 5536TIP3    H238100   2.678   0.800   1.998 -0.2231  0.3490  0.0260
 5537TIP3   OH238101   3.946   0.922  13.072  0.0238 -0.5370  0.0508
 5537TIP3    H138102   3.985   0.913  13.159  1.8520 -0.4262 -0.7059
 5537TIP3    H238103   3.857   0.954  13.088  0.7227  0.6229  1.8313
 5538TIP3   OH238104   4.606   6.024  15.759 -0.0918 -0.0056 -0.3106
 5538TIP3    H138105   4.595   6.111  15.720 -0.5866  0.4189  0.7209
 5538TIP3    H238106   4.520   6.004  15.796 -0.2172 -1.3187 -1.2567
 5539TIP3   OH238107   5.281   2.917   2.299  0.1566  0.0030  0.0299
 5539TIP3    H138108   5.361   2.865   2.292  0.2694  0.3332 -1.4060
 5539TIP3    H238109   5.302   2.984   2.364  0.4669 -0.9063  0.8950
 5540TIP3   OH238110   1.583   5.914   1.193 -1.1616  0.3142  0.1856
 5540TIP3    H138111   1.525   5.879   1.125 -0.9508  2.8061 -1.4309
 5540TIP3    H238112   1.524   5.957   1.255 -1.2842 -1.0497  1.0447
 5541TIP3   OH238113   5.032   6.320  13.024 -1.0060  0.8219 -0.1992
 5541TIP3    H138114   4.989   6.401  13.051 -1.1667  0.8895 -0.6385
 5541TIP3    H238115   4.997   6.303  12.936  0.3531  1.2143 -0.8384
 5542TIP3   OH238116   3.141   2.072   4.022 -0.0012  0.1218  0.0795
 5542TIP3    H138117   3.091   2.081   4.103  1.0250  0.9446  0.6477
 5542TIP3    H238118   3.075   2.069   3.952 -0.8724 -0.0793  0.8954
 5543TIP3   OH238119   2.764   2.311   2.581  0.1186 -0.0138  0.0425
 5543TIP3    H138120   2.669   2.318   2.592 -0.0508 -0.1343 -1.2177
 5543TIP3    H238121   2.797   2.297   2.670 -1.0607 -0.2598  0.4672
 5544TIP3   OH238122   3.258   0.179  15.692 -0.4919  0.2834  0.0245
 5544TIP3    H138123   3.288   0.270  15.699 -0.3737  0.2830 -0.4756
 5544TIP3    H238124   3.322   0.137  15.635 -0.5625 -0.1123  0.2352
 5545TIP3   OH238125   4.092   2.605  14.719  0.4947 -0.2766 -0.4917
 5545TIP3    H138126   4.132   2.684  14.756 -1.4762  1.4667 -1.8413
 5545TIP3    H238127   4.028   2.578  14.785  0.8692 -0.5222 -0.2210
 5546TIP3   OH238128   5.969   6.854  11.660  0.5381  0.2058 -0.1674
 5546TIP3    H138129   6.061   6.876  11.668  0.0307  2.2415  0.6188
 5546TIP3    H238130   5.956   6.780  11.720  1.0994  1.7634  1.9720
 5547TIP3   OH238131   6.400   4.442  15.444 -0.5329 -0.3607  0.5835
 5547TIP3    H138132   6.382   4.488  15.362 -0.6491 -0.1896  0.7032
 5547TIP3    H238133   6.400   4.350  15.420 -2.3336 -0.4288  0.7094
 5548TIP3   OH238134   3.578   0.212   4.539  0.2220 -0.0466 -0.1036
 5548TIP3    H138135   3.576   0.301   4.575  1.5530  0.6021 -1.5031
 5548TIP3    H238136   3.507   0.211   4.475 -0.2092 -0.2224  0.3679
 5549TIP3   OH238137   2.417   4.516   0.541  0.3099 -0.3585  0.4476
 5549TIP3    H138138   2.495   4.467   0.564 -1.1793 -2.0571  2.2659
 5549TIP3    H238139   2.409   4.582   0.610 -0.6264 -1.1829  1.1605
 5550TIP3   OH238140   1.276   4.960   1.544  0.6257  0.6736  0.2880
 5550TIP3    H138141   1.263   4.979   1.451  1.0080 -0.0151  0.0872
 5550TIP3    H238142   1.327   4.879   1.545  0.2587  0.4408  1.1038
 5551TIP3   OH238143   2.036   2.382   3.914  0.6303 -0.4697 -0.0149
 5551TIP3    H138144   2.094   2.403   3.841  1.8136 -0.4080  0.9095
 5551TIP3    H238145   2.038   2.287   3.920  2.0794 -0.4062  1.1018
 5552TIP3   OH238146   0.752   2.772  14.076  0.1274 -0.6189 -0.3972
 5552TIP3    H138147   0.754   2.824  13.996  0.0692 -0.2357 -0.1558
 5552TIP3    H238148   0.835   2.790  14.119  0.0497 -0.6138 -0.2465
 5553TIP3   OH238149   5.697   1.686  15.882  0.0808 -0.2847 -0.3146
 5553TIP3    H138150   5.617   1.640  15.859 -0.2539  0.8152 -1.4581
 5553TIP3    H238151   5.667   1.769  15.919  0.6872  0.0009 -0.4467
 5554TIP3   OH238152   3.970   4.374  15.710  0.0415 -0.3437  0.1350
 5554TIP3    H138153   4.007   4.461  15.722 -0.7651 -0.1138  1.1861
 5554TIP3    H238154   4.026   4.316  15.763  1.2423 -0.6817 -1.4346
 5555TIP3   OH238155   2.930   6.176  12.183 -0.6388 -0.3633  0.0554
 5555TIP3    H138156   3.011   6.149  12.140 -0.0486 -0.5426  1.2419
 5555TIP3    H238157   2.924   6.119  12.260 -0.3094  1.6351  1.6441
 5556TIP3   OH238158   1.183   1.742  12.596 -0.0492 -0.3336 -0.1610
 5556TIP3    H138159   1.139   1.705  12.520  0.2548  0.1500 -0.5752
 5556TIP3    H238160   1.276   1.745  12.571  0.0662 -0.2671  0.2663
 5557TIP3   OH238161   2.556   3.325  11.146 -0.4721  0.0218 -0.1394
 5557TIP3    H138162   2.643   3.311  11.110 -0.9924  0.0235 -1.4599
 5557TIP3    H238163   2.496   3.299  11.076 -1.5315  0.7442  0.4617
 5558TIP3   OH238164   0.884   2.770  17.010  0.7110  0.0712 -0.1957
 5558TIP3    H138165   0.977   2.754  16.991  1.1864  1.9346  0.3890
 5558TIP3    H238166   0.884   2.811  17.096 -0.7367 -0.4758  0.0988
 5559TIP3   OH238167   3.950   4.577  14.697 -0.1352 -0.9399 -0.4231
 5559TIP3    H138168   3.889   4.649  14.678  0.4523 -0.2906  0.0933
 5559TIP3    H238169   4.031   4.602  14.653  0.4012 -0.7558  0.6405
 5560TIP3   OH238170   1.466   4.369  16.956 -0.4725  0.3071 -0.2522
 5560TIP3    H138171   1.518   4.449  16.967  0.5798 -0.3111 -0.6138
 5560TIP3    H238172   1.518   4.300  16.997 -0.3668 -0.5577 -1.7506
 5561TIP3   OH238173   3.313   5.418  13.191  0.2204  0.2207  0.6864
 5561TIP3    H138174   3.270   5.366  13.122 -0.9616  1.2465  0.6154
 5561TIP3    H238175   3.245   5.479  13.220  1.7499  2.1437  0.3522
 5562TIP3   OH238176   2.844   5.511   2.864  0.5734 -0.3603  0.2578
 5562TIP3    H138177   2.889   5.564   2.929  0.7730  0.4950 -0.5532
 5562TIP3    H238178   2.758   5.494   2.903  0.5853  0.3785  0.6354
 5563TIP3   OH238179   5.653   1.844  14.677 -0.3324  0.1572 -0.1811
 5563TIP3    H138180   5.635   1.835  14.583  0.5016  1.6322 -0.5076
 5563TIP3    H238181   5.571   1.820  14.720 -0.2635 -2.1467 -1.1834
 5564TIP3   OH238182   1.956   0.952  10.721  0.2945 -0.8033 -0.3980
 5564TIP3    H138183   1.923   1.042  10.711  0.6262 -0.1691  2.9593
 5564TIP3    H238184   2.050   0.959  10.704  0.0525 -0.9859 -2.0305
 5565TIP3   OH238185   1.440   6.488  12.565 -0.2347  0.8181  0.2192
 5565TIP3    H138186   1.516   6.479  12.623  0.3715  1.2256 -0.4969
 5565TIP3    H238187   1.421   6.399  12.537  1.2220  0.8882 -1.1395
 5566TIP3   OH238188   3.128   6.194  15.549 -0.4344  0.5559  0.1749
 5566TIP3    H138189   3.052   6.233  15.592  1.5348  1.7572  2.7842
 5566TIP3    H238190   3.189   6.266  15.536  0.6960 -0.5422 -0.9529
 5567TIP3   OH238191   1.579   2.353   1.642 -0.0930  0.1655  0.3082
 5567TIP3    H138192   1.514   2.286   1.665  3.1948 -3.3300  0.3450
 5567TIP3    H238193   1.597   2.338   1.549  1.0578  0.7213  0.4296
 5568TIP3   OH238194   1.468   1.759   0.614 -0.0283  0.2190 -0.7338
 5568TIP3    H138195   1.496   1.695   0.548 -0.2192  0.6007 -1.1958
 5568TIP3    H238196   1.474   1.713   0.697  2.8346  0.5254 -0.6842
 5569TIP3   OH238197   6.507   5.485  12.054 -0.5087 -0.5459  0.0485
 5569TIP3    H138198   6.456   5.513  11.977 -0.5362 -0.7234  0.0020
 5569TIP3    H238199   6.592   5.460  12.019 -0.0623  0.6255  0.2340
 5570TIP3   OH238200   3.841   0.154   0.609 -0.1253 -0.1298  0.1161
 5570TIP3    H138201   3.762   0.157   0.556  0.5125  0.7702 -0.8281
 5570TIP3    H238202   3.818   0.199   0.690 -0.2973  1.0150 -0.5554
 5571TIP3   OH238203   0.189   3.040   0.077  0.4677 -0.0231  0.9685
 5571TIP3    H138204   0.133   2.986   0.133  2.1900 -1.4793  1.3923
 5571TIP3    H238205   0.272   3.047   0.125  1.7737 -0.7415 -1.0449
 5572TIP3   OH238206   1.190   4.503  14.073  0.0813  0.1017 -0.0050
 5572TIP3    H138207   1.248   4.575  14.047 -0.4625  0.0994 -1.3108
 5572TIP3    H238208   1.195   4.441  14.000  0.8162 -1.3876  1.2406
 5573TIP3   OH238209   5.740   2.201  13.488  0.2798  0.3590  0.0297
 5573TIP3    H138210   5.754   2.273  13.428  0.7284  1.4736  1.4183
 5573TIP3    H238211   5.661   2.226  13.538 -0.0359 -0.4914 -0.0217
 5574TIP3   OH238212   5.387   1.061  14.973  0.5343  0.0416  0.1644
 5574TIP3    H138213   5.358   1.085  14.886  0.8152 -0.2689 -0.0190
 5574TIP3    H238214   5.322   0.998  15.004 -0.7579  1.7457  1.0479
 5575TIP3   OH238215   3.487   5.143  15.273 -0.1083  0.3036 -0.1826
 5575TIP3    H138216   3.457   5.058  15.306  0.2118  0.2146 -0.1217
 5575TIP3    H238217   3.582   5.133  15.263  0.3848  1.5738  2.5461
 5576TIP3   OH238218   3.464   4.424  12.522 -0.9555 -0.2157  0.3939
 5576TIP3    H138219   3.507   4.354  12.473 -0.5844  1.1893 -1.4200
 5576TIP3    H238220   3.536   4.474  12.560 -0.6296  2.7353 -3.4763
 5577TIP3   OH238221   1.338   6.804  12.834  0.4166 -0.0319  0.0949
 5577TIP3    H138222   1.287   6.726  12.856  1.2777  0.1328  3.2984
 5577TIP3    H238223   1.295   6.875  12.882  1.5633  0.8016 -0.0705
 5578TIP3   OH238224   2.640   6.746   1.524 -0.0223 -0.0924 -0.0009
 5578TIP3    H138225   2.574   6.689   1.564 -0.7120 -0.3880 -1.4870
 5578TIP3    H238226   2.611   6.835   1.545 -0.9619 -0.2186 -0.6970
 5579TIP3   OH238227   0.283   3.973  16.754 -0.0039 -0.6302 -0.0466
 5579TIP3    H138228   0.371   3.986  16.719 -0.2968 -1.1228 -0.9980
 5579TIP3    H238229   0.244   4.060  16.752 -0.1248 -0.7026 -1.2741
 5580TIP3   OH238230   6.214   1.809  12.928  0.5553  0.4909 -0.6608
 5580TIP3    H138231   6.303   1.817  12.962  1.1139 -0.0093 -1.9463
 5580TIP3    H238232   6.170   1.749  12.989  1.7741 -1.0549 -1.2394
 5581TIP3   OH238233   0.559   1.013   3.631 -0.1989  0.1623 -0.1596
 5581TIP3    H138234   0.476   0.966   3.627  0.9659 -1.9737 -1.9707
 5581TIP3    H238235   0.625   0.944   3.642  1.3007  1.8987  2.9981
 5582TIP3   OH238236   5.208   4.281  11.779 -0.0293  0.1947 -0.0181
 5582TIP3    H138237   5.269   4.327  11.837  0.9176  2.0171 -2.2924
 5582TIP3    H238238   5.131   4.338  11.776 -0.9908 -0.9957  1.1024
 5583TIP3   OH238239   5.820   2.338  11.644 -0.0441 -0.0436 -0.1586
 5583TIP3    H138240   5.817   2.345  11.549  0.5687  0.0612 -0.1781
 5583TIP3    H238241   5.913   2.352  11.666 -0.0995 -0.5407  0.4136
 5584TIP3   OH238242   5.743   1.475   3.942  0.6576  0.1488 -0.6994
 5584TIP3    H138243   5.792   1.514   4.015 -1.8711 -0.2011  1.3189
 5584TIP3    H238244   5.747   1.380   3.958 -0.2311  0.0887 -0.8045
 5585TIP3   OH238245   6.085   0.965  11.792  0.1484 -0.2561 -0.5137
 5585TIP3    H138246   6.055   0.915  11.716  1.7505  0.6759 -1.8270
 5585TIP3    H238247   6.098   1.054  11.759  1.8983 -0.0607  0.5414
 5586TIP3   OH238248   4.970   5.974  13.916 -0.5277  0.2214  0.1043
 5586TIP3    H138249   5.037   5.979  13.847 -0.4266  0.3710  0.2130
 5586TIP3    H238250   5.007   6.024  13.988 -0.4777 -0.2301  0.3986
 5587TIP3   OH238251   3.208   2.602  16.379  0.0526 -0.1871  0.3643
 5587TIP3    H138252   3.168   2.522  16.344 -0.8415  0.0450  0.8368
 5587TIP3    H238253   3.247   2.644  16.302 -0.0188 -0.7560  0.0073
 5588TIP3   OH238254   3.385   4.170   1.050 -0.0857  0.0148  0.4398
 5588TIP3    H138255   3.465   4.215   1.025  0.7013 -0.5102  1.8962
 5588TIP3    H238256   3.400   4.079   1.025  0.7681 -0.5495  2.7128
 5589TIP3   OH238257   4.624   5.089  11.581 -0.1083 -0.1328 -0.1040
 5589TIP3    H138258   4.614   5.147  11.656  0.0502 -0.4224  0.1435
 5589TIP3    H238259   4.708   5.046  11.595 -0.9445 -1.6386  0.5744
 5590TIP3   OH238260   2.964   5.977   5.124  0.0382 -0.2726 -0.7646
 5590TIP3    H138261   2.888   6.036   5.127 -0.2079 -0.6216  0.2793
 5590TIP3    H238262   2.940   5.910   5.060 -0.8179 -0.7471  0.0421
 5591TIP3   OH238263   6.192   0.683  11.783  0.3146 -0.1506  0.1902
 5591TIP3    H138264   6.229   0.737  11.852 -1.7351  1.4660  0.1315
 5591TIP3    H238265   6.249   0.696  11.708 -0.8949  3.2682 -0.2831
 5592TIP3   OH238266   5.387   3.659  13.804 -0.7852  0.0734 -0.5753
 5592TIP3    H138267   5.482   3.648  13.806 -0.5843  0.8926 -2.6138
 5592TIP3    H238268   5.361   3.666  13.895  0.9266 -1.5525  0.0912
 5593TIP3   OH238269   5.321   2.692  16.408  0.4311  0.2096  0.7285
 5593TIP3    H138270   5.353   2.776  16.441  1.3839  0.2552 -0.2617
 5593TIP3    H238271   5.372   2.676  16.329 -2.0080  0.3055 -0.9982
 5594TIP3   OH238272   3.564   3.318   2.091  0.0291 -0.1208 -0.1985
 5594TIP3    H138273   3.639   3.296   2.036 -0.5265 -1.8184 -0.3307
 5594TIP3    H238274   3.519   3.387   2.042  1.8387  1.4371  0.2279
 5595TIP3   OH238275   4.312   1.900  10.296 -0.0224 -0.3987 -0.0554
 5595TIP3    H138276   4.297   1.807  10.279 -1.9658 -0.2583  0.6199
 5595TIP3    H238277   4.224   1.938  10.303  0.7090  1.2210  1.1234
 5596TIP3   OH238278   2.015   4.278  15.822  0.0678 -0.2608 -0.2471
 5596TIP3    H138279   1.988   4.199  15.868  0.4818 -0.7511 -0.8438
 5596TIP3    H238280   2.093   4.308  15.869 -0.7643  0.4672  0.7111
 5597TIP3   OH238281   6.707   2.202   4.622  0.1138  0.2245 -0.1763
 5597TIP3    H138282   6.729   2.254   4.545 -1.2274  1.7333  0.3977
 5597TIP3    H238283   6.615   2.178   4.609  0.3436 -0.9193  0.1866
 5598TIP3   OH238284   1.962   0.161  12.309  0.0185  0.6098  0.0555
 5598TIP3    H138285   1.924   0.096  12.369 -0.4557  1.8055  1.1066
 5598TIP3    H238286   2.045   0.122  12.281  0.8553  0.4894  2.4566
 5599TIP3   OH238287   6.544   0.494   3.383  0.6114  0.1883  0.6660
 5599TIP3    H138288   6.538   0.472   3.290 -1.5596 -2.2038  1.2405
 5599TIP3    H238289   6.569   0.411   3.425  0.7704  1.0180  2.2854
 5600TIP3   OH238290   6.527   0.007   3.360 -0.5801 -0.2435 -0.0468
 5600TIP3    H138291   6.443   0.038   3.328 -0.0624  3.3799  1.4828
 5600TIP3    H238292   6.583   0.004   3.283 -1.8590 -2.1115 -0.9801
 5601TIP3   OH238293   1.214   5.039   4.644  0.0386  0.1908 -0.5155
 5601TIP3    H138294   1.191   5.132   4.651  0.2046  0.2489 -0.7435
 5601TIP3    H238295   1.309   5.037   4.656  0.2741  0.2326 -2.1761
 5602TIP3   OH238296   0.844   0.534   1.814 -0.4437 -0.6499  0.3401
 5602TIP3    H138297   0.898   0.528   1.735 -0.6046 -2.5977  0.3319
 5602TIP3    H238298   0.772   0.593   1.789  0.0917 -0.3645 -0.5884
 5603TIP3   OH238299   6.061   6.845   2.516  0.1358  0.0951  0.7714
 5603TIP3    H138300   5.985   6.788   2.504 -0.0845  0.6117 -0.4261
 5603TIP3    H238301   6.072   6.889   2.432  1.9029 -0.1136  0.8507
 5604TIP3   OH238302   0.761   0.709   0.742  0.0393  0.4084 -0.2507
 5604TIP3    H138303   0.845   0.754   0.749  0.0906  0.1832  0.7118
 5604TIP3    H238304   0.779   0.632   0.687  0.6638 -0.0746  0.5983
 5605TIP3   OH238305   5.883   6.305   3.240 -0.1515  0.4244  0.0863
 5605TIP3    H138306   5.869   6.282   3.148 -0.0781 -1.5791  0.5320
 5605TIP3    H238307   5.881   6.221   3.286  1.4197  1.2204  1.7127
 5606TIP3   OH238308   4.176   5.792  10.800  0.1455 -0.4415 -0.1580
 5606TIP3    H138309   4.272   5.796  10.794  0.0688  0.1891 -1.2083
 5606TIP3    H238310   4.148   5.761  10.714 -0.6489  0.4101 -0.2206
 5607TIP3   OH238311   1.449   4.139  16.378 -0.1844  0.5704 -0.4359
 5607TIP3    H138312   1.451   4.192  16.458 -0.9695  0.6064 -0.4367
 5607TIP3    H238313   1.431   4.202  16.308  2.2823  0.8426 -0.9176
 5608TIP3   OH238314   4.459   4.986  11.376  0.2361 -0.0490 -0.4743
 5608TIP3    H138315   4.543   4.998  11.420  0.3670  0.9003 -0.9652
 5608TIP3    H238316   4.395   4.987  11.446  0.2638  3.2228 -0.3741
 5609TIP3   OH238317   1.738   0.501  17.017 -0.5852  0.2746 -0.3496
 5609TIP3    H138318   1.818   0.469  17.058 -0.8906  0.3375  0.3087
 5609TIP3    H238319   1.762   0.587  16.981 -0.8668  1.2906  1.6944
 5610TIP3   OH238320   4.625   0.144   1.489 -0.1120 -0.0972 -0.3027
 5610TIP3    H138321   4.663   0.231   1.482 -0.6170  0.3329  1.7841
 5610TIP3    H238322   4.587   0.141   1.576 -3.2206 -1.1746 -1.5553
 5611TIP3   OH238323   2.851   2.400   1.362  0.8416 -0.2250  0.7512
 5611TIP3    H138324   2.864   2.494   1.376  0.7046 -0.2488  1.0603
 5611TIP3    H238325   2.916   2.359   1.420  3.6062 -0.3199 -2.1522
 5612TIP3   OH238326   3.596   0.649   3.219 -0.3057 -0.2535  0.0058
 5612TIP3    H138327   3.616   0.602   3.138 -0.4633 -1.4744  0.6540
 5612TIP3    H238328   3.542   0.723   3.190 -1.5706 -1.4492 -0.8820
 5613TIP3   OH238329   4.525   0.454  15.878  0.1742 -0.3148  0.3983
 5613TIP3    H138330   4.444   0.440  15.927  0.3698 -1.0115  0.5366
 5613TIP3    H238331   4.540   0.548  15.882 -0.9669 -0.0909 -0.1728
 5614TIP3   OH238332   4.938   0.456   2.498 -0.2746 -1.2566  0.4058
 5614TIP3    H138333   4.955   0.544   2.463 -1.6956 -1.0141  0.2523
 5614TIP3    H238334   4.989   0.452   2.579  0.6338 -0.6819 -0.1272
 5615TIP3   OH238335   5.929   1.444   2.949  0.2277 -0.2324 -0.2311
 5615TIP3    H138336   5.962   1.508   2.886  0.3156  1.1855  1.1890
 5615TIP3    H238337   5.995   1.374   2.949  1.4364  0.8570 -0.0585
 5616TIP3   OH238338   3.582   6.761   5.059 -0.1661  0.4491  0.1825
 5616TIP3    H138339   3.676   6.756   5.039  0.1344 -0.1396  1.6008
 5616TIP3    H238340   3.566   6.855   5.070  0.1963  0.5770 -0.3545
 5617TIP3   OH238341   2.668   0.137  16.323  0.6158 -0.3900 -0.3804
 5617TIP3    H138342   2.656   0.227  16.292 -3.2310 -0.1174  1.2548
 5617TIP3    H238343   2.669   0.145  16.419 -1.7285 -2.1226 -0.1317
 5618TIP3   OH238344   5.945   3.253   0.505  0.2914  0.4491 -0.0552
 5618TIP3    H138345   5.960   3.204   0.423  1.9712  1.4633 -0.4060
 5618TIP3    H238346   5.911   3.187   0.566 -2.5558 -0.0215 -1.9585
 5619TIP3   OH238347   1.455   0.933  14.688  0.1751  0.0750  0.8742
 5619TIP3    H138348   1.533   0.951  14.739  1.5249  0.1244 -1.0895
 5619TIP3    H238349   1.465   0.843  14.659 -1.1789 -0.3664  1.6565
 5620TIP3   OH238350   3.931   2.744   4.034 -0.2226  0.1726  0.1621
 5620TIP3    H138351   3.902   2.654   4.044  2.5429 -0.7076  1.1207
 5620TIP3    H238352   3.948   2.774   4.124  2.1024  0.4318 -0.3010
 5621TIP3   OH238353   2.910   5.271   4.856 -0.5065 -0.0688 -0.1209
 5621TIP3    H138354   2.913   5.203   4.923 -0.5523 -1.0640 -1.1017
 5621TIP3    H238355   2.827   5.257   4.810 -1.1018  1.4373  0.4521
 5622TIP3   OH238356   1.479   5.555   1.150  0.5316 -0.7073  0.1715
 5622TIP3    H138357   1.446   5.608   1.078  0.7199 -1.0937 -0.2067
 5622TIP3    H238358   1.558   5.514   1.115 -0.5755 -2.6611 -0.1702
 5623TIP3   OH238359   3.118   6.104  14.580  0.4395  0.2823  0.1016
 5623TIP3    H138360   3.166   6.027  14.550  0.6939  0.0950  0.9920
 5623TIP3    H238361   3.185   6.165  14.610  0.1899  0.5244  0.1778
 5624TIP3   OH238362   2.061   2.492  16.976 -0.1829 -0.1096  0.1644
 5624TIP3    H138363   1.989   2.504  17.038 -0.0473  0.0843  0.2840
 5624TIP3    H238364   2.113   2.572  16.983  0.5593 -0.6291  0.7499
 5625TIP3   OH238365   5.106   2.321  12.223  0.0477  0.1223 -0.1781
 5625TIP3    H138366   5.098   2.364  12.138 -0.0227  0.4154 -0.0253
 5625TIP3    H238367   5.072   2.233  12.209  1.4526 -0.3415 -0.8354
 5626TIP3   OH238368   5.324   5.876   0.930  0.3433  0.1283 -0.5212
 5626TIP3    H138369   5.297   5.957   0.887  0.7977 -0.0741 -1.2132
 5626TIP3    H238370   5.268   5.869   1.007  0.8769  1.5493  0.0281
 5627TIP3   OH238371   3.024   1.340   5.220 -0.3128 -0.1011  0.0154
 5627TIP3    H138372   3.022   1.425   5.176  1.4839  0.7867  1.5346
 5627TIP3    H238373   2.987   1.279   5.156 -0.7967  1.6580 -1.4510
 5628TIP3   OH238374   0.671   2.628   6.143 -0.0050 -0.4052 -0.0572
 5628TIP3    H138375   0.576   2.625   6.132 -0.2297  1.9373  0.6396
 5628TIP3    H238376   0.700   2.698   6.085  1.3432 -1.2268 -0.4133
 5629TIP3   OH238377   0.061   1.108   4.631  0.2464  0.2232 -0.4701
 5629TIP3    H138378  -0.010   1.069   4.682  0.9339  0.6079  0.8120
 5629TIP3    H238379   0.131   1.043   4.635 -0.3812 -0.6881 -2.7143
 5630TIP3   OH238380   0.851   0.299  11.488 -0.1589 -0.4667 -0.2763
 5630TIP3    H138381   0.796   0.239  11.437 -0.9000 -0.8645  0.9402
 5630TIP3    H238382   0.801   0.316  11.567  1.1671 -0.2640  0.5571
 5631TIP3   OH238383   0.777   1.380  13.261 -0.2484 -0.0009  0.3050
 5631TIP3    H138384   0.834   1.425  13.199 -0.2008  2.1231  1.7794
 5631TIP3    H238385   0.835   1.350  13.331 -0.4690 -1.1881 -0.0055
 5632TIP3   OH238386   6.710   4.314  12.958 -0.1868  0.5155  0.0490
 5632TIP3    H138387   6.768   4.339  13.030  0.7523 -0.6065 -0.2830
 5632TIP3    H238388   6.632   4.278  13.002  1.1421 -1.9074  0.5762
 5633TIP3   OH238389   0.693   2.740  15.476 -0.1938 -0.1327  0.0176
 5633TIP3    H138390   0.750   2.817  15.473 -0.6589  0.1935 -0.9570
 5633TIP3    H238391   0.605   2.775  15.462 -0.5166 -0.7462  0.4745
 5634TIP3   OH238392   2.479   5.147   1.140  0.0165 -0.1713 -0.1263
 5634TIP3    H138393   2.533   5.195   1.204  1.7373 -1.1849 -0.7438
 5634TIP3    H238394   2.419   5.095   1.193 -0.2352  0.8169  0.5923
 5635TIP3   OH238395   2.215   4.917  11.187 -0.0297 -0.0279  0.1222
 5635TIP3    H138396   2.212   4.887  11.277 -0.3097 -2.7234 -0.7011
 5635TIP3    H238397   2.131   4.892  11.150  0.2678  0.5877 -1.0279
 5636TIP3   OH238398   4.984   5.483   3.040 -0.8944  0.5839  0.0830
 5636TIP3    H138399   5.030   5.501   2.959 -1.2248 -0.4381 -0.3536
 5636TIP3    H238400   4.903   5.440   3.013 -1.4662  1.1004  0.9090
 5637TIP3   OH238401   0.420   5.271  14.790  0.3325 -0.0327  0.6135
 5637TIP3    H138402   0.500   5.229  14.758  0.7741  1.5859 -0.5068
 5637TIP3    H238403   0.416   5.354  14.743 -0.9395  0.8319  2.1599
 5638TIP3   OH238404   2.183   5.212  12.176  0.6487  0.7795  0.1257
 5638TIP3    H138405   2.166   5.168  12.259  2.0668 -1.2782 -0.5876
 5638TIP3    H238406   2.237   5.287  12.199 -0.9894  1.6555  1.2803
 5639TIP3   OH238407   1.305   0.169  13.192  0.4996  0.4986 -0.1098
 5639TIP3    H138408   1.214   0.168  13.223  1.0842  1.4769  1.8406
 5639TIP3    H238409   1.352   0.220  13.258  2.3374  0.7013 -1.4919
 5640TIP3   OH238410   4.212   1.822  12.989  0.0777 -0.1252  0.6009
 5640TIP3    H138411   4.252   1.759  12.929  0.6357  0.7691  0.0003
 5640TIP3    H238412   4.220   1.781  13.075  0.8444 -0.6840  0.2819
 5641TIP3   OH238413   5.698   3.036  14.907 -0.4677  0.3660  0.0180
 5641TIP3    H138414   5.615   3.065  14.945 -0.6753  0.7963 -0.7399
 5641TIP3    H238415   5.763   3.055  14.975 -1.0242 -0.2846  0.7465
 5642TIP3   OH238416   6.862   2.401  16.514  0.1061  0.1893 -1.2723
 5642TIP3    H138417   6.790   2.463  16.518 -0.4942 -0.5329  2.1997
 5642TIP3    H238418   6.939   2.451  16.542 -0.0255 -0.1782 -0.2272
 5643TIP3   OH238419   0.868   2.979   0.592 -0.4410  0.2451 -0.1172
 5643TIP3    H138420   0.894   3.016   0.676 -1.5079  0.7311  0.0150
 5643TIP3    H238421   0.912   3.034   0.527 -2.1427  1.9398  0.0687
 5644TIP3   OH238422   3.125   2.186  15.725 -0.0573  0.6495 -0.1993
 5644TIP3    H138423   3.047   2.241  15.718  0.5369  1.5382  0.0035
 5644TIP3    H238424   3.173   2.222  15.800  1.4899  1.3710 -1.4747
 5645TIP3   OH238425   6.694   4.116   2.476 -0.0578  0.2580 -0.4425
 5645TIP3    H138426   6.653   4.152   2.397 -0.3798  0.5433 -0.1477
 5645TIP3    H238427   6.717   4.192   2.528  0.6514  0.0862 -0.5020
 5646TIP3   OH238428   0.717   5.642  15.493 -0.1362 -0.4836  0.3792
 5646TIP3    H138429   0.643   5.610  15.441  1.1316  1.2632 -2.8013
 5646TIP3    H238430   0.782   5.572  15.486  0.2376 -0.0362 -0.9949
 5647TIP3   OH238431   5.205   5.215  12.010  0.2684 -0.2196  0.5514
 5647TIP3    H138432   5.254   5.137  11.982 -1.5659 -1.2701  0.0793
 5647TIP3    H238433   5.269   5.268  12.057  2.0906 -1.0199 -0.9164
 5648TIP3   OH238434   4.484   2.216  14.439  0.8405  0.3352  0.4967
 5648TIP3    H138435   4.484   2.306  14.471  0.5658 -0.1398  1.8875
 5648TIP3    H238436   4.574   2.200  14.411  1.0735  0.7775  0.9893
 5649TIP3   OH238437   6.823   5.384   4.138  0.1759  0.0021 -0.0032
 5649TIP3    H138438   6.891   5.401   4.072 -0.7703  1.6901 -0.6138
 5649TIP3    H238439   6.871   5.359   4.216  1.4256 -0.3429 -0.8450
 5650TIP3   OH238440   6.367   5.536  12.480 -0.2592 -0.2882  0.4066
 5650TIP3    H138441   6.429   5.599  12.515  0.0833 -0.2471 -0.2467
 5650TIP3    H238442   6.330   5.492  12.556 -2.0062  2.0686  1.0414
 5651TIP3   OH238443   2.116   6.168  10.866 -0.0884  0.4078 -0.1572
 5651TIP3    H138444   2.103   6.216  10.784  1.7381 -1.1502 -1.4657
 5651TIP3    H238445   2.181   6.101  10.844 -1.2327 -1.5571  2.0103
 5652TIP3   OH238446   1.278   1.266  11.252  0.4487  0.4352  0.6321
 5652TIP3    H138447   1.269   1.238  11.161 -0.5067  0.0585  0.8312
 5652TIP3    H238448   1.200   1.231  11.295 -0.5550  2.9773  1.0172
 5653TIP3   OH238449   3.887   0.284   0.958 -0.6384  0.1478  0.4365
 5653TIP3    H138450   3.903   0.378   0.956 -1.8904  0.4170  1.4013
 5653TIP3    H238451   3.971   0.244   0.938 -0.3718  1.4717 -1.2876
 5654TIP3   OH238452   1.254   1.472  13.578 -0.4246  0.0321 -0.3798
 5654TIP3    H138453   1.256   1.549  13.522  0.1675  0.6430  0.4601
 5654TIP3    H238454   1.344   1.440  13.579  0.0711  1.2845  1.8830
 5655TIP3   OH238455   4.335   5.072  16.039  0.1732  0.3977 -0.0727
 5655TIP3    H138456   4.240   5.062  16.039  0.1942  0.2000 -0.3738
 5655TIP3    H238457   4.351   5.154  16.085 -0.1079  0.0495  0.6604
 5656TIP3   OH238458   5.642   6.048   5.484  0.3239 -0.2791 -0.2399
 5656TIP3    H138459   5.623   5.965   5.442  1.4341 -0.0315 -1.2761
 5656TIP3    H238460   5.683   6.024   5.567  1.7759 -0.7964 -1.0718
 5657TIP3   OH238461   1.680   1.497  13.761 -0.0138 -0.4310 -0.4314
 5657TIP3    H138462   1.685   1.539  13.846 -1.8898 -0.0251 -0.4858
 5657TIP3    H238463   1.741   1.423  13.767 -1.0190 -1.1606  1.7057
 5658TIP3   OH238464   1.816   6.435  15.990  0.1957 -0.0951  0.4434
 5658TIP3    H138465   1.904   6.401  15.974  0.2226  0.5044 -0.7907
 5658TIP3    H238466   1.767   6.414  15.911 -0.8821 -0.7298  1.2595
 5659TIP3   OH238467   2.393   1.885   3.258  0.5293 -0.1075  0.2443
 5659TIP3    H138468   2.401   1.830   3.336  0.1354  0.5954  0.7850
 5659TIP3    H238469   2.449   1.842   3.193  0.7362 -0.7876  0.8601
 5660TIP3   OH238470   0.645   5.708  15.179 -0.5066  0.6350  0.0370
 5660TIP3    H138471   0.611   5.768  15.112 -1.1199  0.0148 -0.2207
 5660TIP3    H238472   0.586   5.720  15.253  0.1900  1.3425  0.4904
 5661TIP3   OH238473   5.441   4.877   5.942 -0.6389  0.5270 -0.2196
 5661TIP3    H138474   5.364   4.884   5.999 -0.8621  0.0006 -0.4578
 5661TIP3    H238475   5.490   4.802   5.976 -0.8313  0.1354 -0.7825
 5662TIP3   OH238476   1.820   2.983   5.084 -0.2607 -0.0446 -0.4305
 5662TIP3    H138477   1.900   2.932   5.098 -0.0743 -0.2906 -2.1255
 5662TIP3    H238478   1.850   3.068   5.054 -0.6075  0.6861  1.1993
 5663TIP3   OH238479   6.036   3.971  15.355 -0.7081  0.0585  0.1890
 5663TIP3    H138480   6.088   3.984  15.275 -0.7754 -0.1404  0.1135
 5663TIP3    H238481   6.020   4.060  15.387  0.5908  0.1021  0.8106
 5664TIP3   OH238482   6.599   5.509  10.402  0.2898  0.2927  0.2891
 5664TIP3    H138483   6.633   5.431  10.446 -1.3550 -0.6306  0.0284
 5664TIP3    H238484   6.671   5.571  10.404  1.8976 -1.4521 -0.0590
 5665TIP3   OH238485   3.461   6.723  13.351  0.0492  0.5702  0.4097
 5665TIP3    H138486   3.553   6.736  13.330 -0.2199  1.2739 -0.3963
 5665TIP3    H238487   3.460   6.646  13.408  0.6886 -3.3736 -4.2137
 5666TIP3   OH238488   2.601   0.997   3.009 -0.4973  0.3338  0.1636
 5666TIP3    H138489   2.583   0.986   2.916 -1.6296  1.2131  0.2580
 5666TIP3    H238490   2.695   1.015   3.014  0.2096 -2.6827 -0.5054
 5667TIP3   OH238491   5.837   3.891   5.141  0.2366  0.8612  0.4026
 5667TIP3    H138492   5.879   3.916   5.059 -0.9375  1.1816 -0.1203
 5667TIP3    H238493   5.897   3.923   5.209  0.9513  1.0837 -0.3117
 5668TIP3   OH238494   1.210   2.317   2.533  0.1618 -0.4156 -0.5420
 5668TIP3    H138495   1.275   2.366   2.583 -1.0343  0.4721  0.1909
 5668TIP3    H238496   1.141   2.380   2.514 -0.8965 -1.5344 -0.5657
 5669TIP3   OH238497   0.427   1.841  11.666  0.2642 -0.3564  0.3856
 5669TIP3    H138498   0.354   1.788  11.698  1.2632 -1.8380  0.2829
 5669TIP3    H238499   0.385   1.910  11.615 -1.0482 -1.9647 -0.8344
 5670TIP3   OH238500   3.602   1.751   2.300  0.8474 -0.2917 -0.1012
 5670TIP3    H138501   3.567   1.805   2.230  0.6529 -0.5492 -0.2047
 5670TIP3    H238502   3.557   1.667   2.290  1.0187 -0.4158  0.1637
 5671TIP3   OH238503   6.743   5.889   2.668  0.4830 -0.6091  0.4815
 5671TIP3    H138504   6.653   5.897   2.698 -0.1787  1.2602 -1.6900
 5671TIP3    H238505   6.755   5.796   2.650 -0.8443 -0.9445  1.2226
 5672TIP3   OH238506   6.199   2.971  16.836  0.2431  0.2013 -0.4978
 5672TIP3    H138507   6.252   2.900  16.801  1.1057 -0.7703  2.4828
 5672TIP3    H238508   6.116   2.929  16.861  0.5671  0.3156  0.8197
 5673TIP3   OH238509   4.723   0.975  15.232  0.2560 -0.4643 -0.1834
 5673TIP3    H138510   4.765   0.898  15.194 -0.8409 -0.7539 -0.8755
 5673TIP3    H238511   4.640   0.982  15.184  0.4474  1.2921 -0.2996
 5674TIP3   OH238512   1.462   2.834   3.367  0.3533 -0.8973  0.9013
 5674TIP3    H138513   1.519   2.758   3.380  0.6407 -1.4172 -2.3974
 5674TIP3    H238514   1.376   2.797   3.349  0.0599 -0.3397  1.1416
 5675TIP3   OH238515   1.614   0.847  13.493  0.2357 -0.1976 -0.0098
 5675TIP3    H138516   1.584   0.896  13.570  3.2993 -0.1868  1.3400
 5675TIP3    H238517   1.608   0.910  13.422  1.2396  1.2113  1.0879
 5676TIP3   OH238518   5.558   0.216  14.122 -0.2253  0.2401 -0.6747
 5676TIP3    H138519   5.631   0.196  14.181  1.8004  1.6222 -2.5454
 5676TIP3    H238520   5.529   0.130  14.090  0.6177 -0.3266  0.0291
 5677TIP3   OH238521   0.440   5.554   1.254 -0.1373 -0.4781  0.0588
 5677TIP3    H138522   0.511   5.542   1.318 -0.5489  0.5369  0.7494
 5677TIP3    H238523   0.383   5.620   1.295 -0.1935  0.5253 -1.5446
 5678TIP3   OH238524   2.118   5.387  10.515 -0.9040  0.0530 -0.5663
 5678TIP3    H138525   2.189   5.325  10.495 -0.5931  0.1071  0.3181
 5678TIP3    H238526   2.055   5.336  10.565 -1.0813  0.2285 -0.6093
 5679TIP3   OH238527   3.327   3.792  14.226  0.1121 -0.4536 -0.0257
 5679TIP3    H138528   3.366   3.824  14.144 -0.8663 -0.3570 -0.4602
 5679TIP3    H238529   3.401   3.789  14.287  0.7134  0.1926 -0.6945
 5680TIP3   OH238530   0.535   4.350   3.786  0.1321 -0.5163  0.4817
 5680TIP3    H138531   0.565   4.287   3.852  0.4488 -0.0714  0.7666
 5680TIP3    H238532   0.582   4.326   3.706  0.8434 -0.1557  0.7887
 5681TIP3   OH238533   1.249   4.820   3.483 -0.1060 -0.1611 -0.3679
 5681TIP3    H138534   1.231   4.817   3.389 -3.5756 -0.2189  0.1786
 5681TIP3    H238535   1.287   4.734   3.503 -0.6277 -0.6754 -1.4957
 5682TIP3   OH238536   6.775   3.618   4.686 -0.1991 -0.3451 -0.3089
 5682TIP3    H138537   6.807   3.534   4.719 -1.3759 -0.6835  0.0186
 5682TIP3    H238538   6.706   3.595   4.625 -1.1675  0.3974  0.4802
 5683TIP3   OH238539   3.691   0.769  14.348 -0.2515 -0.5580  0.0885
 5683TIP3    H138540   3.697   0.673  14.341  1.6817 -0.5785  1.4247
 5683TIP3    H238541   3.713   0.800  14.260  0.1768 -1.3157 -0.0832
 5684TIP3   OH238542   5.473   6.717   0.066 -0.5172 -0.6787 -0.1279
 5684TIP3    H138543   5.442   6.794   0.116  0.1036 -1.0964  0.9414
 5684TIP3    H238544   5.514   6.661   0.132  1.5473 -0.6602 -1.3037
 5685TIP3   OH238545   1.089   4.340  12.172 -0.1777  0.1676  0.1205
 5685TIP3    H138546   1.093   4.310  12.263 -1.8564 -0.8959 -0.1119
 5685TIP3    H238547   1.164   4.297  12.130 -0.3981 -0.7375  0.6277
 5686TIP3   OH238548   2.880   1.067   2.985  0.0792  0.1515 -0.2163
 5686TIP3    H138549   2.871   1.010   2.909 -1.3148 -0.3204  0.2720
 5686TIP3    H238550   2.885   1.155   2.949  0.6726 -0.1456 -0.8969
 5687TIP3   OH238551   5.811   6.144  15.457 -0.4059  0.5766  0.5347
 5687TIP3    H138552   5.768   6.101  15.384  1.6235 -2.8711  1.1681
 5687TIP3    H238553   5.894   6.176  15.421 -0.5974  1.3531  0.7570
 5688TIP3   OH238554   2.635   6.705  11.092 -0.2346  0.1902  0.1132
 5688TIP3    H138555   2.705   6.744  11.040  0.1501 -1.1003 -0.3461
 5688TIP3    H238556   2.559   6.707  11.034  0.0262 -0.6241 -0.2650
 5689TIP3   OH238557   3.529   4.261  16.374 -0.2713  0.5331  0.3861
 5689TIP3    H138558   3.599   4.243  16.437  0.2195 -0.2099 -0.3533
 5689TIP3    H238559   3.464   4.311  16.425 -0.2114 -0.6268  1.6692
 5690TIP3   OH238560   1.718   1.608   0.320  0.8693  0.5659  0.2242
 5690TIP3    H138561   1.811   1.620   0.299  1.1949 -0.3882  1.0409
 5690TIP3    H238562   1.707   1.514   0.329  0.3941  0.7678  2.4936
 5691TIP3   OH238563   4.917   4.148   5.064 -0.0110 -0.3788  0.6675
 5691TIP3    H138564   4.838   4.197   5.085  0.0747  0.1139 -0.1323
 5691TIP3    H238565   4.887   4.073   5.013  0.1765  0.8506 -1.3714
 5692TIP3   OH238566   0.846   4.072   0.557 -0.6092 -0.4860 -0.3219
 5692TIP3    H138567   0.890   3.988   0.566 -1.6566 -1.2209 -1.7095
 5692TIP3    H238568   0.793   4.080   0.637 -1.1434 -1.5439 -0.5619
 5693TIP3   OH238569   5.873   5.482  14.617 -0.4185  0.0493 -0.0327
 5693TIP3    H138570   5.854   5.402  14.568 -1.7113  0.2051  0.1795
 5693TIP3    H238571   5.966   5.474  14.641  0.1423 -0.2140 -2.1249
 5694TIP3   OH238572   0.654   3.482  16.494  0.0799 -0.0499 -0.5529
 5694TIP3    H138573   0.563   3.510  16.483 -0.1256 -1.2704 -2.2892
 5694TIP3    H238574   0.664   3.471  16.589 -1.4308  0.5121 -0.2901
 5695TIP3   OH238575   1.158   5.501  13.684 -0.4066 -0.4860  0.2388
 5695TIP3    H138576   1.077   5.544  13.709 -1.8104 -2.7686 -0.0679
 5695TIP3    H238577   1.166   5.517  13.590 -1.3413 -1.4820 -0.0276
 5696TIP3   OH238578   3.951   0.219  11.413 -0.1993 -0.0182 -0.3604
 5696TIP3    H138579   4.039   0.246  11.387 -0.7035 -0.2083 -2.4049
 5696TIP3    H238580   3.910   0.190  11.332 -2.2385  0.3135  0.5063
 5697TIP3   OH238581   0.248   0.883  12.248 -0.3622 -0.1892  0.2847
 5697TIP3    H138582   0.195   0.811  12.283 -1.5552  0.7080  0.3785
 5697TIP3    H238583   0.283   0.849  12.165 -1.4010 -0.6852  0.0343
 5698TIP3   OH238584   2.537   0.999   4.125 -0.1023 -0.1458 -0.4039
 5698TIP3    H138585   2.615   1.015   4.178  0.3203 -0.3246 -0.9652
 5698TIP3    H238586   2.480   0.946   4.181 -0.1824  0.6852  0.3194
 5699TIP3   OH238587   5.885   1.996  10.165  0.0663 -0.6896  0.0279
 5699TIP3    H138588   5.952   1.932  10.142  1.3205 -0.3113  2.3313
 5699TIP3    H238589   5.893   2.064  10.099 -0.2846 -2.1231 -1.5856
 5700TIP3   OH238590   1.929   6.017  14.541  0.0963  0.2000 -0.0426
 5700TIP3    H138591   1.876   5.938  14.554  0.0315  0.1453 -0.6217
 5700TIP3    H238592   1.915   6.041  14.449  0.9498  0.2794 -0.1597
 5701TIP3   OH238593   2.877   6.770  10.683 -0.6698  0.0817  0.7304
 5701TIP3    H138594   2.934   6.831  10.637  0.3330 -0.4981  1.1920
 5701TIP3    H238595   2.828   6.726  10.613  0.0770 -0.0468  0.2801
 5702TIP3   OH238596   2.261   5.395   4.718 -0.0734  0.2667  0.1163
 5702TIP3    H138597   2.298   5.369   4.634  1.1097 -3.8319  1.6950
 5702TIP3    H238598   2.320   5.463   4.750  2.3539 -1.4891 -0.3568
 5703TIP3   OH238599   6.606   4.591  14.424 -0.1831 -0.4534  0.3330
 5703TIP3    H138600   6.602   4.686  14.432 -1.5802 -0.4139 -0.4743
 5703TIP3    H238601   6.529   4.560  14.472  0.9181 -1.2813  1.6328
 5704TIP3   OH238602   2.888   6.813  11.588 -0.1521 -0.1602  0.3902
 5704TIP3    H138603   2.834   6.810  11.509  1.2040  0.3804 -0.5796
 5704TIP3    H238604   2.929   6.899  11.587  2.1962 -1.1988  0.0793
 5705TIP3   OH238605   4.328   0.008  10.893  0.3489  0.2109 -0.3391
 5705TIP3    H138606   4.367   0.001  10.806  0.6150 -1.2156 -0.1195
 5705TIP3    H238607   4.339   0.100  10.917  1.3338  0.3645 -1.3170
 5706TIP3   OH238608   3.095   3.004  13.334  0.2021  0.2310 -0.2479
 5706TIP3    H138609   3.134   3.060  13.267  0.2408  0.5635  0.0464
 5706TIP3    H238610   3.129   3.039  13.417  1.3838 -1.1244 -0.1167
 5707TIP3   OH238611   0.329   4.988   5.823  0.2566 -0.0665 -0.0311
 5707TIP3    H138612   0.341   4.904   5.868  1.6035 -0.5271 -1.1876
 5707TIP3    H238613   0.417   5.021   5.809 -0.2441  1.4084  0.0967
 5708TIP3   OH238614   1.636   5.700  10.802  0.0077  1.1626  0.3829
 5708TIP3    H138615   1.614   5.694  10.895 -0.2001 -0.0693  0.2732
 5708TIP3    H238616   1.731   5.716  10.801 -0.0170  1.3408  0.8101
 5709TIP3   OH238617   4.749   0.096  14.670 -0.1248  0.0816  0.3526
 5709TIP3    H138618   4.804   0.054  14.603  0.2450  0.2242  0.5637
 5709TIP3    H238619   4.704   0.166  14.623 -0.9150 -0.6793 -0.0526
 5710TIP3   OH238620   0.565   0.053   6.205  0.1789 -0.5255  0.0568
 5710TIP3    H138621   0.551   0.129   6.149 -0.3142 -0.0145  0.8467
 5710TIP3    H238622   0.479   0.033   6.240  0.7454  0.3577  2.1032
 5711TIP3   OH238623   3.094   1.925   1.977 -0.1182 -0.1245 -0.3414
 5711TIP3    H138624   3.016   1.959   2.021 -0.3561  0.6536 -1.3211
 5711TIP3    H238625   3.073   1.833   1.958 -0.2045 -0.3301  0.6982
 5712TIP3   OH238626   0.903   1.119  16.747  0.1118  0.1557 -0.2552
 5712TIP3    H138627   0.979   1.081  16.791  0.1503 -0.0057 -0.4589
 5712TIP3    H238628   0.873   1.050  16.687  1.6361  1.2637 -2.4382
 5713TIP3   OH238629   6.503   3.554   0.380  0.1847 -0.2786 -0.2764
 5713TIP3    H138630   6.506   3.459   0.369  0.9723 -0.4510  1.1630
 5713TIP3    H238631   6.584   3.586   0.341  0.0992 -0.2443 -0.4242
 5714TIP3   OH238632   1.310   4.036   1.612  0.3465 -0.2511 -0.2641
 5714TIP3    H138633   1.330   3.943   1.616  0.5212 -0.1782  0.6518
 5714TIP3    H238634   1.373   4.077   1.670 -1.4886  0.1360  1.5569
 5715TIP3   OH238635   3.559   0.455  11.828 -0.5526  0.0733  0.0475
 5715TIP3    H138636   3.476   0.427  11.790 -1.8712  0.7025  2.2712
 5715TIP3    H238637   3.559   0.550  11.819 -1.5631  0.4157  2.6241
 5716TIP3   OH238638   2.526   6.669  15.183  0.2993 -0.2578  0.1180
 5716TIP3    H138639   2.510   6.579  15.208 -3.2347 -0.1736 -1.3146
 5716TIP3    H238640   2.573   6.663  15.099 -2.5154 -0.9577 -1.5177
 5717TIP3   OH238641   3.137   0.437   4.254  0.3683 -0.3204  0.5237
 5717TIP3    H138642   3.070   0.495   4.219  1.0820 -1.0719 -2.2962
 5717TIP3    H238643   3.093   0.352   4.261  0.4000 -0.3073  0.9029
 5718TIP3   OH238644   4.546   3.330  14.729  0.3128 -0.2610  0.4220
 5718TIP3    H138645   4.506   3.392  14.791 -0.4261 -1.2769  0.9896
 5718TIP3    H238646   4.548   3.377  14.646 -0.4850  0.4358  0.7837
 5719TIP3   OH238647   2.182   4.898   3.542 -0.2113  0.2517  0.5944
 5719TIP3    H138648   2.234   4.824   3.574  0.2773 -0.1762 -1.1041
 5719TIP3    H238649   2.109   4.858   3.495  0.8024  0.7823 -1.5356
 5720TIP3   OH238650   3.178   2.358   0.254 -0.0405 -0.5153 -0.1052
 5720TIP3    H138651   3.204   2.450   0.257  2.4971 -1.1620  0.1403
 5720TIP3    H238652   3.255   2.310   0.285 -1.6411 -2.6857  0.7729
 5721TIP3   OH238653   4.929   6.518  10.871 -0.1460  0.3918  0.1068
 5721TIP3    H138654   5.000   6.576  10.840  0.7363 -0.0050  1.3215
 5721TIP3    H238655   4.932   6.443  10.811  0.9120  0.0788  0.5162
 5722TIP3   OH238656   1.818   5.706  12.466 -0.0600  0.7695 -0.2144
 5722TIP3    H138657   1.903   5.664  12.449  0.9946  2.3183  0.9549
 5722TIP3    H238658   1.791   5.741  12.381 -0.6456 -1.5889 -1.0749
 5723TIP3   OH238659   6.129   5.588   4.968 -0.2890 -0.0439 -0.2595
 5723TIP3    H138660   6.129   5.519   5.033 -1.7020 -1.6179 -1.8183
 5723TIP3    H238661   6.217   5.585   4.929 -0.5550 -1.4599 -0.7829
 5724TIP3   OH238662   2.413   3.163   5.900 -0.5360  0.8222 -0.1584
 5724TIP3    H138663   2.411   3.096   5.967  0.5009  1.7255  0.8186
 5724TIP3    H238664   2.388   3.244   5.946 -0.2619  1.3733 -0.9532
 5725TIP3   OH238665   3.067   6.787  16.620 -0.0708 -0.0023  0.4514
 5725TIP3    H138666   3.141   6.827  16.574 -0.1107  1.3260  1.4699
 5725TIP3    H238667   3.104   6.758  16.703 -0.5671  0.1555  0.7301
 5726TIP3   OH238668   5.673   6.225  16.007 -0.0515 -0.2948 -0.3285
 5726TIP3    H138669   5.616   6.301  15.989 -0.3606 -0.2565  0.7537
 5726TIP3    H238670   5.701   6.196  15.921 -1.8585 -0.4069 -0.9320
 5727TIP3   OH238671   5.463   4.666  13.289  0.6182 -0.4506  0.7795
 5727TIP3    H138672   5.437   4.645  13.378  0.8215 -1.2809  0.6496
 5727TIP3    H238673   5.410   4.610  13.233 -1.5103  1.9705  0.1884
 5728TIP3   OH238674   1.737   1.022  16.108 -0.0843 -0.0100  0.3779
 5728TIP3    H138675   1.808   0.970  16.070  0.8366  2.5226 -1.7295
 5728TIP3    H238676   1.658   0.971  16.093  0.9130 -1.4881 -0.0782
 5729TIP3   OH238677   5.977   5.253  14.475 -0.3229  0.0025 -0.2294
 5729TIP3    H138678   6.060   5.276  14.516 -1.0756 -0.6401  1.7838
 5729TIP3    H238679   5.971   5.310  14.398  2.7706 -1.1934 -1.4835
 5730TIP3   OH238680   4.086   4.968   4.125  0.3111 -0.1962 -0.2795
 5730TIP3    H138681   4.171   5.010   4.137 -0.4821  1.1262  1.0467
 5730TIP3    H238682   4.034   4.996   4.200 -1.0268 -1.7140 -0.5772
 5731TIP3   OH238683   2.006   5.519   4.818 -0.1207  0.5766 -0.0967
 5731TIP3    H138684   2.024   5.609   4.792 -0.1936  0.5002 -0.4233
 5731TIP3    H238685   2.093   5.477   4.819 -0.0589  0.7142  0.3068
 5732TIP3   OH238686   2.400   2.581  15.901  0.1680 -0.1906  0.3877
 5732TIP3    H138687   2.490   2.576  15.867  0.6535 -0.9670  1.7150
 5732TIP3    H238688   2.398   2.517  15.972 -1.2357  0.3433  0.8552
 5733TIP3   OH238689   5.450   5.106   4.673  0.3825 -0.1201 -0.0034
 5733TIP3    H138690   5.467   5.198   4.694 -1.0941  0.5364 -1.4157
 5733TIP3    H238691   5.357   5.094   4.692 -0.4607 -0.1392 -3.4383
 5734TIP3   OH238692   4.887   6.142   3.861  0.1127 -0.0381  0.2940
 5734TIP3    H138693   4.837   6.069   3.896 -0.9763  1.0131  1.0036
 5734TIP3    H238694   4.864   6.217   3.917 -1.3702  1.6333 -2.3651
 5735TIP3   OH238695   5.297   1.115  10.306 -0.5224  0.3189  0.1231
 5735TIP3    H138696   5.227   1.050  10.303 -0.7438  0.5825 -2.1883
 5735TIP3    H238697   5.282   1.170  10.230  0.6414  2.0824  1.0977
 5736TIP3   OH238698   6.683   1.095   4.785  0.3276  0.1112  0.4808
 5736TIP3    H138699   6.616   1.158   4.757 -0.2445  0.3345  2.2234
 5736TIP3    H238700   6.638   1.010   4.784 -0.1560  0.3048  1.9837
 5737TIP3   OH238701   5.494   0.078  13.024  0.1123  0.2102 -0.2773
 5737TIP3    H138702   5.434   0.149  13.048 -0.6107 -0.8512  1.2006
 5737TIP3    H238703   5.439   0.014  12.979  0.2060 -0.5544  0.6606
 5738TIP3   OH238704   5.877   0.208   3.676 -0.6804  0.4606  0.9119
 5738TIP3    H138705   5.844   0.222   3.765 -0.4475 -1.4235  1.3247
 5738TIP3    H238706   5.808   0.244   3.620 -2.3246 -1.1010  1.8159
 5739TIP3   OH238707   1.760   2.632  13.436  0.4225  0.6875  0.0712
 5739TIP3    H138708   1.799   2.642  13.349 -0.9206  1.3573 -0.4789
 5739TIP3    H238709   1.758   2.537  13.450  1.0096  0.5888 -0.4442
 5740TIP3   OH238710   6.075   0.652  13.769  0.1732 -0.7401 -0.6289
 5740TIP3    H138711   5.984   0.662  13.739  0.4929  0.2848 -1.3252
 5740TIP3    H238712   6.127   0.650  13.688  0.8296 -0.5556 -0.2183
 5741TIP3   OH238713   4.940   6.817  15.288  0.3599  0.0728 -0.0362
 5741TIP3    H138714   4.925   6.726  15.263  1.3819 -0.0713 -0.1922
 5741TIP3    H238715   5.034   6.830  15.276  0.1995  1.2173 -0.2190
 5742TIP3   OH238716   5.430   6.005  16.206 -0.1589 -0.0742 -0.2197
 5742TIP3    H138717   5.399   5.942  16.272 -0.4391  0.5633  0.2705
 5742TIP3    H238718   5.366   6.077  16.210  0.8925  0.8736  0.2001
 5743TIP3   OH238719   3.248   3.875   3.584  0.0076  0.0514  0.1570
 5743TIP3    H138720   3.281   3.944   3.641 -0.5922 -1.4622  2.4706
 5743TIP3    H238721   3.273   3.793   3.627 -2.0038 -1.1630 -0.8132
 5744TIP3   OH238722   5.926   0.617   4.949  0.0327  0.2391  0.3476
 5744TIP3    H138723   5.835   0.594   4.929  0.1487 -1.9927  2.0123
 5744TIP3    H238724   5.921   0.707   4.981 -1.2826  0.8266 -1.3057
 5745TIP3   OH238725   2.366   2.845   2.603 -0.0239 -0.1363  0.2538
 5745TIP3    H138726   2.403   2.821   2.518  1.7455 -1.0638  1.2251
 5745TIP3    H238727   2.275   2.818   2.598  0.4663 -1.7802 -0.7751
 5746TIP3   OH238728   0.705   1.466   2.848 -0.1353  0.5700  0.2879
 5746TIP3    H138729   0.640   1.523   2.888 -0.2914  0.3173  0.3936
 5746TIP3    H238730   0.769   1.449   2.917 -0.7374 -0.3814  0.6334
 5747TIP3   OH238731   4.561   6.079  11.353  0.5131 -0.2059 -0.0274
 5747TIP3    H138732   4.482   6.049  11.399 -0.3393  1.5439 -0.2677
 5747TIP3    H238733   4.619   6.003  11.353 -0.9409 -1.3693  0.6732
 5748TIP3   OH238734   6.026   0.549  12.410 -0.1789 -0.0112  0.2143
 5748TIP3    H138735   5.964   0.594  12.352 -1.5771 -1.1872  0.7253
 5748TIP3    H238736   6.112   0.578  12.380 -0.9132  0.6427 -1.4139
 5749TIP3   OH238737   5.619   2.425   2.375  0.0469 -0.5025 -0.7586
 5749TIP3    H138738   5.692   2.370   2.404  1.2210  1.1193 -0.5072
 5749TIP3    H238739   5.570   2.369   2.314  1.2131 -1.7968 -0.5631
 5750TIP3   OH238740   0.700   4.661  16.661  0.7655 -0.0070  0.1511
 5750TIP3    H138741   0.631   4.699  16.715  1.5290  0.9402  0.4861
 5750TIP3    H238742   0.695   4.567  16.679 -0.3988  0.0464  0.1996
 5751TIP3   OH238743   0.911   5.393   5.398  0.4367  0.1389 -0.0404
 5751TIP3    H138744   0.945   5.434   5.318 -0.2264 -1.3698 -1.1378
 5751TIP3    H238745   0.984   5.339   5.429 -0.2484 -1.6733 -1.3871
 5752TIP3   OH238746   5.804   0.340  14.889  0.0281 -0.1955 -0.1440
 5752TIP3    H138747   5.759   0.424  14.887  2.1293  1.0055 -0.6907
 5752TIP3    H238748   5.759   0.286  14.824 -1.2063  0.5754  0.0551
 5753TIP3   OH238749   6.634   5.808  16.944  0.0236 -0.1540  0.1999
 5753TIP3    H138750   6.703   5.861  16.905 -0.5398  1.0107  0.7339
 5753TIP3    H238751   6.588   5.868  17.003  0.9078 -1.8430  2.7686
 5754TIP3   OH238752   3.934   5.670   2.337  0.2031 -0.1088  0.1586
 5754TIP3    H138753   3.934   5.579   2.366 -1.7521  0.6865  3.1196
 5754TIP3    H238754   3.871   5.672   2.265  0.8043 -1.1680 -0.4316
 5755TIP3   OH238755   1.695   1.397  15.409  0.2346 -0.2220 -0.1257
 5755TIP3    H138756   1.706   1.344  15.488  1.7898 -1.7073 -1.2486
 5755TIP3    H238757   1.781   1.435  15.393  0.4673 -1.3761 -2.0007
 5756TIP3   OH238758   2.025   6.824  10.399 -0.5801  0.2514 -0.5094
 5756TIP3    H138759   2.034   6.919  10.402  1.0552  0.1210  0.9152
 5756TIP3    H238760   1.948   6.806  10.452  0.3902  0.7157  1.1379
 5757TIP3   OH238761   0.877   0.015   2.511 -0.0767 -0.0144 -0.3758
 5757TIP3    H138762   0.921   0.031   2.427  2.0426 -0.4056  0.6107
 5757TIP3    H238763   0.790  -0.018   2.486  0.2231  0.5551 -2.3946
 5758TIP3   OH238764   1.880   5.113  16.106 -0.3705  0.2960  0.0013
 5758TIP3    H138765   1.837   5.198  16.092 -2.2859 -0.6282  0.0002
 5758TIP3    H238766   1.928   5.098  16.024  0.8152  1.7852  0.3625
 5759TIP3   OH238767   4.542   3.316   5.383 -0.2355  0.5642  0.3052
 5759TIP3    H138768   4.624   3.360   5.404 -0.2547  1.6121 -1.5880
 5759TIP3    H238769   4.477   3.360   5.438  0.2892  0.5111  0.9746
 5760TIP3   OH238770   1.937   0.810   4.030  0.4811 -0.3042 -0.1451
 5760TIP3    H138771   2.030   0.815   4.008  0.3685  3.2873 -0.4456
 5760TIP3    H238772   1.893   0.851   3.955 -1.1880 -0.4930  0.6881
 5761TIP3   OH238773   6.086   6.042   4.826  0.1293 -0.4743 -0.1281
 5761TIP3    H138774   6.039   5.978   4.772 -0.6936 -0.4429  0.5329
 5761TIP3    H238775   6.109   6.112   4.766 -0.4626 -0.6032 -0.5129
 5762TIP3   OH238776   6.733   0.414   1.739 -0.0213  0.4718  0.7226
 5762TIP3    H138777   6.646   0.437   1.772 -0.3656  1.2934 -0.6766
 5762TIP3    H238778   6.743   0.321   1.760 -3.1034 -0.9430 -2.8352
 5763TIP3   OH238779   6.015   0.677   4.177  0.7454 -0.1009 -0.1120
 5763TIP3    H138780   6.024   0.688   4.083  0.0447  2.1766  0.0133
 5763TIP3    H238781   5.920   0.678   4.192  0.8267 -1.0416  0.5881
 5764TIP3   OH238782   5.216   6.347  14.575  0.0582 -0.2868 -0.5297
 5764TIP3    H138783   5.287   6.371  14.635 -0.5299  0.6750 -0.1892
 5764TIP3    H238784   5.176   6.270  14.614  1.1628 -1.1102 -0.9467
 5765TIP3   OH238785   6.206   2.294  14.656  0.1989 -0.3197 -0.0082
 5765TIP3    H138786   6.207   2.378  14.610  1.5629  0.6112  1.6128
 5765TIP3    H238787   6.202   2.317  14.749  1.4096 -2.0045  0.5176
 5766TIP3   OH238788   3.698   0.177  14.342  0.2912 -0.4919  0.2161
 5766TIP3    H138789   3.677   0.255  14.393 -0.4085  0.7523 -1.8292
 5766TIP3    H238790   3.627   0.172  14.277  1.6497 -1.3696 -1.2729
 5767TIP3   OH238791   5.897   3.144  12.765 -0.0584 -0.1700  0.1488
 5767TIP3    H138792   5.869   3.179  12.850 -1.4706 -0.5218 -0.1548
 5767TIP3    H238793   5.977   3.193  12.745 -0.5921  1.0713  0.9208
 5768TIP3   OH238794   6.689   0.081  13.792  0.0972 -0.3849 -0.7815
 5768TIP3    H138795   6.654   0.118  13.874 -0.2755 -0.3227 -0.9651
 5768TIP3    H238796   6.676  -0.013  13.801  0.6532 -0.4392 -0.4956
 5769TIP3   OH238797   3.043   4.481   3.774 -0.6786 -0.1586  0.3493
 5769TIP3    H138798   3.076   4.550   3.716 -0.6390  0.0514  0.6174
 5769TIP3    H238799   3.091   4.493   3.856  0.0819 -1.1658  0.0602
 5770TIP3   OH238800   4.886   1.722  11.815 -0.4203 -0.3945 -0.0864
 5770TIP3    H138801   4.915   1.694  11.902  0.7263  0.7398 -0.0713
 5770TIP3    H238802   4.968   1.737  11.767 -1.0392 -0.5098 -1.1978
 5771TIP3   OH238803   3.386   4.454   6.239 -0.6265 -0.2069  0.2786
 5771TIP3    H138804   3.307   4.443   6.186 -0.0870  0.8427 -0.7928
 5771TIP3    H238805   3.359   4.514   6.309 -0.9119 -0.2476  0.2072
 5772TIP3   OH238806   2.679   3.815   3.434  0.1941 -0.2063  0.4474
 5772TIP3    H138807   2.753   3.793   3.492  0.4476  1.2000  0.7078
 5772TIP3    H238808   2.660   3.734   3.387  1.3133 -0.8390  1.0411
 5773TIP3   OH238809   5.427   0.255   6.367  0.0836 -0.1941 -0.0770
 5773TIP3    H138810   5.377   0.327   6.328 -1.5529 -1.3807 -0.3039
 5773TIP3    H238811   5.515   0.265   6.333 -0.8038  0.0098 -2.4977
 5774TIP3   OH238812   5.919   6.320  16.094  0.4502 -0.1148 -0.0073
 5774TIP3    H138813   5.950   6.236  16.060  0.7723  0.5661 -1.5082
 5774TIP3    H238814   5.824   6.317  16.082  0.1772 -1.1128  2.0276
 5775TIP3   OH238815   3.855   2.123   2.664 -0.0341  0.3320 -0.2534
 5775TIP3    H138816   3.877   2.091   2.576 -0.8260 -2.2643  0.4150
 5775TIP3    H238817   3.858   2.046   2.720 -2.2823  1.3760  1.5021
 5776TIP3   OH238818   1.400   1.089   0.143  0.5952 -0.2675  0.4181
 5776TIP3    H138819   1.379   1.112   0.052  1.4475  0.4741  0.3944
 5776TIP3    H238820   1.325   1.037   0.173 -0.8513  1.5044  0.0501
 5777TIP3   OH238821   4.262   3.504   1.226  0.5474  0.5339 -0.0999
 5777TIP3    H138822   4.325   3.561   1.271  1.4204 -0.8719  0.5417
 5777TIP3    H238823   4.227   3.558   1.156  0.4165  2.2577  1.2160
 5778TIP3   OH238824   2.800   0.952  10.822 -0.2133 -0.1587  0.6046
 5778TIP3    H138825   2.782   0.919  10.910 -0.3800 -0.0130  0.6249
 5778TIP3    H238826   2.716   0.943  10.776  0.0761 -1.0072  0.2116
 5779TIP3   OH238827   3.436   2.233  14.588 -0.1844  0.2255 -0.3831
 5779TIP3    H138828   3.353   2.268  14.619 -0.3310  0.5564 -1.1340
 5779TIP3    H238829   3.489   2.310  14.567 -0.3616  0.0268 -1.6462
 5780TIP3   OH238830   0.882   6.866  13.421  0.0252 -0.5983 -0.6422
 5780TIP3    H138831   0.929   6.785  13.402 -0.9704 -1.5025  0.6011
 5780TIP3    H238832   0.845   6.853  13.508  0.4279  1.4840 -0.0887
 5781TIP3   OH238833   0.017   6.721  11.309  0.1631  0.7417  0.5712
 5781TIP3    H138834   0.051   6.698  11.222 -0.0372 -0.2417  0.7500
 5781TIP3    H238835   0.005   6.816  11.304 -0.8307  0.5916 -0.8535
 5782TIP3   OH238836   4.319   6.623  15.801  0.5932  0.3162 -0.1692
 5782TIP3    H138837   4.297   6.590  15.714  0.3169  1.4704 -0.5436
 5782TIP3    H238838   4.349   6.712  15.786 -1.1336  1.1617  1.1043
 5783TIP3   OH238839   4.055   3.773  11.684 -0.3174  0.4004 -1.2482
 5783TIP3    H138840   4.147   3.783  11.709 -0.5807  1.7103 -0.7145
 5783TIP3    H238841   4.056   3.765  11.589  0.3956 -0.3221 -1.1850
 5784TIP3   OH238842   5.698   5.301   5.180  0.1034 -0.0029 -0.1575
 5784TIP3    H138843   5.640   5.360   5.228 -1.4558 -1.3525 -0.2959
 5784TIP3    H238844   5.759   5.268   5.245  0.1552  0.7279  0.1775
 5785TIP3   OH238845   3.271   0.967  16.965 -0.3241 -0.1479 -0.0847
 5785TIP3    H138846   3.363   0.944  16.975 -0.0563  1.0243  0.2864
 5785TIP3    H238847   3.228   0.928  17.041  0.2216  1.0750  0.8673
 5786TIP3   OH238848   4.820   2.404   2.431  0.7217  0.2887  0.0765
 5786TIP3    H138849   4.877   2.420   2.356  0.6488 -0.3451 -0.1219
 5786TIP3    H238850   4.732   2.422   2.399  0.9658  5.1244  1.4097
 5787TIP3   OH238851   4.735   3.457   3.351 -0.2294 -0.2108 -0.4884
 5787TIP3    H138852   4.755   3.419   3.266 -1.0408 -1.3433 -0.2009
 5787TIP3    H238853   4.762   3.391   3.414  0.0717  0.4804  0.1281
 5788TIP3   OH238854   3.742   6.087   0.822  0.0561 -0.6622 -0.0689
 5788TIP3    H138855   3.782   6.000   0.820  2.2998  0.2655  0.7211
 5788TIP3    H238856   3.808   6.144   0.782 -0.1492  1.0811  1.8959
 5789TIP3   OH238857   0.555   2.093  12.400  0.3475 -0.0335 -0.2896
 5789TIP3    H138858   0.548   2.051  12.315  0.7734  1.1213 -0.9248
 5789TIP3    H238859   0.465   2.101  12.431  0.3430 -3.1472  0.7857
 5790TIP3   OH238860   3.792   3.481  13.754 -0.5919  0.2760  0.2836
 5790TIP3    H138861   3.812   3.436  13.836  0.2285  0.8059  0.3793
 5790TIP3    H238862   3.790   3.574  13.777 -0.7931  0.4001 -0.2095
 5791TIP3   OH238863   4.934   6.552   4.293 -0.8353  0.2186  0.2235
 5791TIP3    H138864   4.852   6.565   4.245  0.4058 -0.5618 -2.2995
 5791TIP3    H238865   5.000   6.597   4.240  0.9069 -2.1987  0.1703
 5792TIP3   OH238866   6.539   3.935  10.974  0.5641  0.1235 -0.4398
 5792TIP3    H138867   6.584   3.938  10.889  2.4963  1.4886  0.5738
 5792TIP3    H238868   6.513   4.025  10.991  1.3365  0.1147  0.9656
 5793TIP3   OH238869   1.120   4.312  12.979 -0.6484 -0.8293  0.0090
 5793TIP3    H138870   1.136   4.259  13.057  0.0109 -1.3877 -0.5014
 5793TIP3    H238871   1.108   4.401  13.012  0.7026 -0.8705  0.6593
 5794TIP3   OH238872   0.225   1.481  15.386  0.9962  0.2379 -0.1765
 5794TIP3    H138873   0.209   1.387  15.378  1.0709  0.2188 -0.1052
 5794TIP3    H238874   0.149   1.515  15.435  2.1075 -0.1732  1.9628
 5795TIP3   OH238875   4.693   4.724  14.578 -0.1744 -0.1460  0.5820
 5795TIP3    H138876   4.648   4.803  14.549  0.9797 -0.1606 -1.5052
 5795TIP3    H238877   4.639   4.652  14.543  1.2867 -0.1636 -1.8749
 5796TIP3   OH238878   0.408   3.360   0.181  0.0904 -0.0582  0.3783
 5796TIP3    H138879   0.385   3.430   0.120 -3.2992 -1.3957 -0.0452
 5796TIP3    H238880   0.475   3.399   0.238 -0.1463  2.7900 -1.1436
 5797TIP3   OH238881   2.698   0.800   1.406  0.1414 -0.2470  0.0576
 5797TIP3    H138882   2.690   0.851   1.487  2.1747 -0.0706  0.1852
 5797TIP3    H238883   2.774   0.744   1.420  0.4114 -0.3609 -1.6634
 5798TIP3   OH238884   6.354   0.323   1.301  0.1269 -0.0785  0.5487
 5798TIP3    H138885   6.378   0.305   1.392 -0.1324 -0.3477  0.5636
 5798TIP3    H238886   6.262   0.299   1.295  0.1371 -0.0402  0.2183
 5799TIP3   OH238887   3.473   0.039   1.041 -0.0737  0.7139 -0.1687
 5799TIP3    H138888   3.401  -0.022   1.028 -1.0035  2.0775 -1.8649
 5799TIP3    H238889   3.431   0.122   1.062  1.0288  1.4262 -0.6626
 5800TIP3   OH238890   3.984   1.464  13.571  0.1310  0.0301  0.2281
 5800TIP3    H138891   3.930   1.504  13.639 -0.0118 -0.1534  0.2211
 5800TIP3    H238892   4.073   1.467  13.606 -0.1475 -1.6667  1.1952
 5801TIP3   OH238893   1.786   3.201   4.284  0.0146  0.2929  0.6000
 5801TIP3    H138894   1.809   3.108   4.287  0.8001  0.4768  0.4439
 5801TIP3    H238895   1.860   3.243   4.240 -0.7141  0.8775 -0.1023
 5802TIP3   OH238896   2.144   5.129   3.280 -0.3214  0.3366  0.4528
 5802TIP3    H138897   2.168   5.156   3.369  4.1109  2.6758 -1.1498
 5802TIP3    H238898   2.206   5.059   3.259 -1.7290 -0.6231 -0.6582
 5803TIP3   OH238899   0.934   5.660   2.458 -0.0625 -0.1178  0.1594
 5803TIP3    H138900   0.965   5.742   2.497  2.9364 -0.7707 -0.5367
 5803TIP3    H238901   0.931   5.677   2.364  1.4559 -0.9871 -0.0793
 5804TIP3   OH238902   1.574   5.226   2.876  0.0590  0.1213 -0.7365
 5804TIP3    H138903   1.588   5.153   2.937 -0.2370 -0.5201 -1.4284
 5804TIP3    H238904   1.532   5.186   2.800  0.3110  0.9352 -1.3145
 5805TIP3   OH238905   0.943   4.560  13.811 -0.0527 -0.4364 -0.0003
 5805TIP3    H138906   1.001   4.525  13.744  0.1233 -0.3861  0.1247
 5805TIP3    H238907   0.870   4.499  13.814  1.7867 -2.7851  2.5732
 5806TIP3   OH238908   2.483   5.885   4.037  0.5346 -0.0007  0.3641
 5806TIP3    H138909   2.441   5.851   3.958  2.5930  1.8029 -1.6510
 5806TIP3    H238910   2.411   5.906   4.095 -1.1484 -0.3746 -1.4752
 5807TIP3   OH238911   3.724   1.482  12.762 -0.0860 -0.4183  0.2562
 5807TIP3    H138912   3.639   1.441  12.777 -2.0379  2.5264 -1.6189
 5807TIP3    H238913   3.748   1.456  12.674 -0.1586  0.4395 -0.0296
 5808TIP3   OH238914   0.602   2.703  13.836 -0.2767 -0.8228  0.4226
 5808TIP3    H138915   0.629   2.613  13.855 -1.5851 -0.8352  2.5984
 5808TIP3    H238916   0.511   2.707  13.864 -0.5059  0.9785 -0.4326
 5809TIP3   OH238917   6.724   3.515   6.475  0.4224 -0.2051 -0.3206
 5809TIP3    H138918   6.728   3.578   6.402  0.8737  0.5426  0.3347
 5809TIP3    H238919   6.811   3.518   6.514 -0.1491  0.2626  0.9610
 5810TIP3   OH238920   3.386   5.825  10.628 -0.1276  0.1264  0.3218
 5810TIP3    H138921   3.399   5.918  10.650 -1.8005  0.0486  1.8141
 5810TIP3    H238922   3.400   5.822  10.533 -0.9867  2.1042  0.0696
 5811TIP3   OH238923   3.239   2.490   2.165 -0.1469 -0.2980  0.0632
 5811TIP3    H138924   3.252   2.532   2.080 -0.6304 -1.4940 -0.6254
 5811TIP3    H238925   3.315   2.434   2.176 -0.0409 -0.0776  0.4635
 5812TIP3   OH238926   1.085   6.767   2.055  1.3768  0.0093  0.2418
 5812TIP3    H138927   1.068   6.715   2.134  0.0491  0.9633  0.6140
 5812TIP3    H238928   1.045   6.717   1.984  0.6070  0.2192  0.5153
 5813TIP3   OH238929   0.223   5.797  14.851 -0.3918 -1.0436 -0.2167
 5813TIP3    H138930   0.242   5.755  14.767  1.3546 -1.8161  0.5191
 5813TIP3    H238931   0.273   5.879  14.849 -0.2927 -1.0942  0.0785
 5814TIP3   OH238932   0.884   6.446   4.490  0.0126  0.4785  0.1262
 5814TIP3    H138933   0.880   6.408   4.403  3.1182  0.7571 -0.2533
 5814TIP3    H238934   0.867   6.539   4.477  0.2924  0.4903 -0.1466
 5815TIP3   OH238935   6.055   2.920   2.605  0.3582 -0.1261 -0.1842
 5815TIP3    H138936   6.115   2.986   2.637  0.8107 -0.3660 -0.5234
 5815TIP3    H238937   6.006   2.963   2.535  0.8314 -0.2139 -0.5803
 5816TIP3   OH238938   5.809   3.616  12.676 -0.2144 -0.1155 -0.0627
 5816TIP3    H138939   5.838   3.702  12.709 -3.4340  1.7246 -1.5302
 5816TIP3    H238940   5.764   3.576  12.749  1.6163 -0.8270  0.7446
 5817TIP3   OH238941   0.524   4.757   5.731  0.7535  0.5553  0.6629
 5817TIP3    H138942   0.447   4.768   5.786 -0.4593 -1.0119 -0.6288
 5817TIP3    H238943   0.574   4.838   5.743 -1.6650  2.1628  0.6337
 5818TIP3   OH238944   2.719   1.081   0.077 -0.2111 -0.6855  0.0160
 5818TIP3    H138945   2.626   1.085   0.053 -0.5831  0.2032  1.4435
 5818TIP3    H238946   2.723   1.124   0.162  1.4151 -1.3606  0.3136
 5819TIP3   OH238947   1.406   0.417   2.951 -0.0430  0.3547 -0.0348
 5819TIP3    H138948   1.425   0.331   2.914  1.2969  1.2298 -1.5478
 5819TIP3    H238949   1.311   0.417   2.964 -0.3213 -0.7472 -1.6622
 5820TIP3   OH238950   0.101   4.805  15.646 -0.1530  0.2988  0.2006
 5820TIP3    H138951   0.108   4.776  15.555 -0.7111 -0.0645  0.2666
 5820TIP3    H238952   0.009   4.791  15.668 -0.1678  1.0151  0.6109
 5821TIP3   OH238953   5.154   0.380   0.459 -0.5737  0.1325 -0.4617
 5821TIP3    H138954   5.083   0.316   0.467 -1.6918  1.5294  2.1706
 5821TIP3    H238955   5.110   0.465   0.468  1.2286  1.1267 -0.6327
 5822TIP3   OH238956   3.554   3.118   5.101  0.4524 -0.2861 -0.3398
 5822TIP3    H138957   3.614   3.093   5.172 -0.3867  1.5157  1.0816
 5822TIP3    H238958   3.558   3.045   5.040  1.5968 -1.7026  1.3235
 5823TIP3   OH238959   0.811   1.284  12.885 -0.9061  0.3922 -0.3720
 5823TIP3    H138960   0.833   1.376  12.869 -2.1372  0.8590  0.5178
 5823TIP3    H238961   0.807   1.245  12.797 -0.9603  1.3207 -0.8003
 5824TIP3   OH238962   4.091   6.104  16.201  0.1084  0.0594  0.5358
 5824TIP3    H138963   4.103   6.141  16.113  1.7371  0.8074  1.0342
 5824TIP3    H238964   4.080   6.180  16.258  1.3793 -0.2734  1.2790
 5825TIP3   OH238965   4.853   6.711   1.170  0.4317 -0.3187  0.0042
 5825TIP3    H138966   4.930   6.736   1.221  0.1414  2.0756 -0.5968
 5825TIP3    H238967   4.889   6.669   1.092  0.9586 -1.9037  1.0520
 5826TIP3   OH238968   3.342   2.047   6.169  0.1135  0.2850 -0.1910
 5826TIP3    H138969   3.435   2.028   6.159 -0.0044 -0.2863 -0.2248
 5826TIP3    H238970   3.340   2.125   6.225  0.5595 -0.9176  1.5740
 5827TIP3   OH238971   6.425   4.185  15.381 -0.4876  0.1505  0.1534
 5827TIP3    H138972   6.511   4.149  15.359 -1.0436 -0.2094 -1.6094
 5827TIP3    H238973   6.378   4.112  15.421 -0.6130 -0.2500 -0.6936
 5828TIP3   OH238974   3.501   0.242  14.174  0.1646  0.3383  0.3626
 5828TIP3    H138975   3.413   0.252  14.209  0.4197 -0.0827  1.1550
 5828TIP3    H238976   3.527   0.330  14.147 -1.5237  0.0898 -2.5090
 5829TIP3   OH238977   1.371   2.974  12.213 -0.0655  0.0203  0.2755
 5829TIP3    H138978   1.345   3.004  12.300  0.8527 -0.0829  0.6031
 5829TIP3    H238979   1.343   3.044  12.154  0.9484  0.9844  0.8916
 5830TIP3   OH238980   1.221   2.221  12.496 -0.4681 -0.4150  0.0232
 5830TIP3    H138981   1.179   2.254  12.417  0.6878 -0.1843 -0.5146
 5830TIP3    H238982   1.176   2.139  12.515 -2.0412  0.4473  0.2369
 5831TIP3   OH238983   3.719   3.073  13.703 -0.3840 -0.9616  0.1463
 5831TIP3    H138984   3.673   3.135  13.646 -1.7387 -3.0941 -1.2522
 5831TIP3    H238985   3.670   3.076  13.785 -2.4208 -2.2895 -0.9121
 5832TIP3   OH238986   3.933   6.049   0.366  0.2112 -0.8285  0.1057
 5832TIP3    H138987   3.998   5.990   0.406 -1.1537 -2.9852 -0.6445
 5832TIP3    H238988   3.944   6.132   0.412 -0.5929 -2.8076  4.3617
 5833TIP3   OH238989   5.444   1.188  13.576 -0.4388 -0.7819  0.3349
 5833TIP3    H138990   5.430   1.098  13.546 -0.4203 -1.2210  1.6190
 5833TIP3    H238991   5.417   1.187  13.668  0.7211  0.2332  0.6978
 5834TIP3   OH238992   2.113   4.538  16.768  0.1157  0.2699 -0.1249
 5834TIP3    H138993   2.021   4.513  16.762 -0.1811  1.3133 -0.0989
 5834TIP3    H238994   2.138   4.516  16.858  0.0585 -0.5211 -0.2920
 5835TIP3   OH238995   5.899   1.084  13.227 -0.5560  0.3606  0.1711
 5835TIP3    H138996   5.803   1.087  13.231 -0.5026  1.9608  1.4633
 5835TIP3    H238997   5.923   1.157  13.170 -0.1224 -1.3026 -1.8659
 5836TIP3   OH238998   3.700   6.736  16.370 -0.6200 -0.2015  0.7774
 5836TIP3    H138999   3.676   6.676  16.441  1.2527  0.2948  1.9129
 5836TIP3    H239000   3.749   6.806  16.414  3.6269 -1.5639 -1.2746
 5837TIP3   OH239001   0.811   3.519  13.606 -0.1108  0.1067 -0.1119
 5837TIP3    H139002   0.877   3.540  13.540  1.1670  2.1089  1.6747
 5837TIP3    H239003   0.729   3.550  13.569  0.2214 -0.6329 -1.5478
 5838TIP3   OH239004   4.311   0.845  13.639 -0.1961  0.3221  0.0723
 5838TIP3    H139005   4.266   0.857  13.556 -1.2505  1.1387  0.7382
 5838TIP3    H239006   4.309   0.750  13.655  0.4860  0.1019 -1.0650
 5839TIP3   OH239007   1.713   1.063   2.259  0.3071 -0.0211 -0.3702
 5839TIP3    H139008   1.770   1.109   2.198 -0.1559 -0.1563 -0.9112
 5839TIP3    H239009   1.640   1.031   2.205 -0.5865  0.6538  0.3982
 5840TIP3   OH239010   1.935   3.328   3.581  0.1673  0.2000 -0.0008
 5840TIP3    H139011   1.902   3.255   3.634  0.6221 -0.3986 -0.5287
 5840TIP3    H239012   1.989   3.378   3.642  0.1330 -0.1017  0.2835
 5841TIP3   OH239013   2.631   1.939  17.005 -0.4459 -0.1742 -0.0525
 5841TIP3    H139014   2.631   1.962  16.912  0.5944  0.0303 -0.0206
 5841TIP3    H239015   2.546   1.900  17.021 -1.3143  1.3675 -0.7039
 5842TIP3   OH239016   0.194   1.952   3.371  0.6895  0.0843  0.1177
 5842TIP3    H139017   0.155   2.039   3.372 -0.3494 -0.3394 -1.3308
 5842TIP3    H239018   0.135   1.898   3.424  0.4752 -0.0825 -0.2887
 5843TIP3   OH239019   0.625   2.198   4.907 -0.2493 -0.4900  0.0440
 5843TIP3    H139020   0.598   2.127   4.849  0.7762 -1.6479  0.9254
 5843TIP3    H239021   0.579   2.275   4.874 -0.1590 -1.2247 -1.9326
 5844TIP3   OH239022   6.814   6.367   1.404 -0.4264 -0.3727 -0.7837
 5844TIP3    H139023   6.885   6.333   1.350  1.0034 -1.1166  1.4187
 5844TIP3    H239024   6.845   6.453   1.434  1.1475 -1.9728  2.7299
 5845TIP3   OH239025   1.944   5.989  15.645  0.6806  0.0944  0.1503
 5845TIP3    H139026   1.927   6.083  15.639 -0.8880 -0.2328 -1.2127
 5845TIP3    H239027   1.883   5.957  15.711  0.8749 -0.0401  0.2666
 5846TIP3   OH239028   4.038   4.636   5.992 -0.9195 -0.2712  0.1253
 5846TIP3    H139029   3.985   4.702   5.948 -0.3286 -0.5869 -1.1052
 5846TIP3    H239030   4.107   4.687   6.035 -0.7478 -0.0454 -0.4072
 5847TIP3   OH239031   4.392   6.036   0.916 -0.4521 -0.2211  0.0239
 5847TIP3    H139032   4.404   6.108   0.977  0.8785 -0.3061 -0.0963
 5847TIP3    H239033   4.462   5.975   0.938 -0.3675 -0.5628 -1.1381
 5848TIP3   OH239034   2.850   4.612  13.201  0.4260  0.3329 -0.4013
 5848TIP3    H139035   2.828   4.598  13.293 -1.1336  2.0060 -0.4653
 5848TIP3    H239036   2.919   4.679  13.203  1.0487 -0.2886 -0.4482
 5849TIP3   OH239037   4.722   1.900   1.969  0.5672 -0.5087 -0.0048
 5849TIP3    H139038   4.632   1.900   2.000  0.7385  0.2401  0.5192
 5849TIP3    H239039   4.769   1.955   2.031  0.8851  1.2582 -1.7001
 5850TIP3   OH239040   2.846   2.241  14.321 -0.4594  0.2012  0.3495
 5850TIP3    H139041   2.828   2.213  14.231 -0.6530 -0.7609  0.6706
 5850TIP3    H239042   2.839   2.160  14.372 -1.3524  0.9190  1.3826
 5851TIP3   OH239043   1.211   2.440   1.806 -0.2590 -0.4866  0.1528
 5851TIP3    H139044   1.219   2.446   1.710 -0.6770 -0.8100  0.0919
 5851TIP3    H239045   1.198   2.347   1.822  0.3470 -0.5010  0.5732
 5852TIP3   OH239046   2.643   4.899   5.732 -0.3216 -0.6254  0.0231
 5852TIP3    H139047   2.643   4.866   5.821 -1.6070  1.5260  0.8958
 5852TIP3    H239048   2.596   4.983   5.737 -1.2801 -0.8779 -2.8409
 5853TIP3   OH239049   1.840   2.845   1.120 -0.0584  0.5493  0.2361
 5853TIP3    H139050   1.931   2.868   1.135 -0.0025 -0.8634  2.3645
 5853TIP3    H239051   1.805   2.918   1.068  1.9857  1.6151  0.2873
 5854TIP3   OH239052   1.688   6.338   1.838 -0.2135 -0.2675 -0.4375
 5854TIP3    H139053   1.701   6.321   1.745  2.8681  1.3554 -0.4382
 5854TIP3    H239054   1.748   6.278   1.882 -0.5603 -0.0050  0.4082
 5855TIP3   OH239055   5.653   5.015  11.339 -0.6422  0.2969  0.1583
 5855TIP3    H139056   5.581   5.076  11.327 -1.0024 -0.2647 -0.6039
 5855TIP3    H239057   5.720   5.043  11.276 -1.4606 -1.0461 -1.3679
 5856TIP3   OH239058   2.921   1.590  11.526 -0.1515  0.7961  0.4973
 5856TIP3    H139059   2.846   1.650  11.515  0.0719  0.8135 -1.1507
 5856TIP3    H239060   2.993   1.633  11.480  0.6527  0.3262  1.2759
 5857TIP3   OH239061   4.752   6.073   0.909 -0.2783 -0.0678 -0.6531
 5857TIP3    H139062   4.753   5.981   0.937 -0.3414  0.0175 -0.3720
 5857TIP3    H239063   4.775   6.122   0.987 -0.6124  0.1821 -0.7104
 5858TIP3   OH239064   5.246   3.018   0.503 -0.0684 -0.9117 -0.9963
 5858TIP3    H139065   5.297   3.045   0.580 -1.8798 -1.3999  0.4489
 5858TIP3    H239066   5.312   2.999   0.437  1.5218  1.0305 -0.1071
 5859TIP3   OH239067   2.108   6.709  10.155 -0.0889  0.2546  0.3612
 5859TIP3    H139068   2.056   6.629  10.149 -0.4882  0.5613 -0.5627
 5859TIP3    H239069   2.073   6.754  10.232 -0.4505 -0.0598  0.3867
 5860TIP3   OH239070   3.844   6.123  11.030  0.4495 -0.1661  0.3312
 5860TIP3    H139071   3.933   6.092  11.049  0.4492 -0.2100  0.2610
 5860TIP3    H239072   3.829   6.100  10.938  0.7772  0.8444  0.0135
 5861TIP3   OH239073   0.833   0.833   2.773  0.2744 -0.0279 -0.7375
 5861TIP3    H139074   0.878   0.759   2.815  0.3234  0.2540 -0.2771
 5861TIP3    H239075   0.839   0.816   2.679  0.3944 -0.5440 -0.6369
 5862TIP3   OH239076   0.789   6.678  11.098  0.1492 -0.3852  0.5342
 5862TIP3    H139077   0.698   6.688  11.125 -0.4596 -1.8763 -0.7662
 5862TIP3    H239078   0.828   6.621  11.164 -0.2098 -0.7203  0.4629
 5863TIP3   OH239079   5.362   0.977  15.875  0.1325  0.5179 -0.0473
 5863TIP3    H139080   5.277   1.021  15.880 -0.8686 -0.9881 -2.0442
 5863TIP3    H239081   5.361   0.933  15.789  3.4565  1.4298 -0.6991
 5864TIP3   OH239082   3.318   1.339   5.715 -0.2736 -0.8760  0.2018
 5864TIP3    H139083   3.244   1.305   5.764  0.7271 -0.3991  2.1582
 5864TIP3    H239084   3.281   1.407   5.659 -1.5105 -1.6759  0.0217
 5865TIP3   OH239085   2.166   1.708   2.054  0.6370 -0.0502 -0.5285
 5865TIP3    H139086   2.155   1.682   1.962  0.1612  1.0476 -0.7995
 5865TIP3    H239087   2.210   1.793   2.050 -0.8501  0.7977  0.1692
 5866TIP3   OH239088   3.125   5.373   5.033  0.3110  0.3295 -0.3464
 5866TIP3    H139089   3.095   5.334   5.115  0.0960 -0.8234 -0.9490
 5866TIP3    H239090   3.044   5.397   4.987  0.4358  1.3067 -0.0871
 5867TIP3   OH239091   4.423   6.214  12.526  0.2932  0.1409  0.0077
 5867TIP3    H139092   4.430   6.228  12.431 -1.2639  0.4364 -0.0899
 5867TIP3    H239093   4.501   6.163  12.548  0.9366  0.4921 -1.3480
 5868TIP3   OH239094   2.759   3.690   3.686  0.0185 -0.0829  0.0164
 5868TIP3    H139095   2.668   3.664   3.675  0.2079 -0.8116  0.1500
 5868TIP3    H239096   2.781   3.667   3.776 -0.2702  2.0088  0.6864
 5869TIP3   OH239097   4.008   4.379   6.091 -0.2030  0.3832 -0.3005
 5869TIP3    H139098   4.074   4.340   6.034  0.4220  0.6161  0.2437
 5869TIP3    H239099   3.995   4.467   6.057  0.8164  0.8354  0.4047
 5870TIP3   OH239100   6.142   4.066  14.645  0.2116  0.1700  0.1258
 5870TIP3    H139101   6.178   3.980  14.626  1.3548  0.4346  0.9749
 5870TIP3    H239102   6.055   4.048  14.682 -0.2700 -0.5113 -1.2814
 5871TIP3   OH239103   5.222   1.606  14.797  0.3844  0.0178  0.5574
 5871TIP3    H139104   5.233   1.515  14.824  2.2051 -0.2695 -0.9406
 5871TIP3    H239105   5.214   1.602  14.702 -2.5108  1.2391  0.6456
 5872TIP3   OH239106   4.754   5.454  14.106  0.4415  0.0291  0.3992
 5872TIP3    H139107   4.678   5.442  14.048 -0.0177  0.0416  0.9879
 5872TIP3    H239108   4.737   5.536  14.151  0.8910  0.1152  0.4144
 5873TIP3   OH239109   3.525   3.900  11.705 -0.1583  0.0133 -0.2945
 5873TIP3    H139110   3.555   3.991  11.702 -1.6421  0.6514  1.8391
 5873TIP3    H239111   3.529   3.871  11.613  1.6007  1.7534 -0.8587
 5874TIP3   OH239112   4.896   2.848  16.482  0.5100 -0.0173 -0.1476
 5874TIP3    H139113   4.953   2.775  16.457  0.4490  0.0572 -0.5112
 5874TIP3    H239114   4.842   2.864  16.404 -2.4332 -2.3031  1.2335
 5875TIP3   OH239115   2.366   3.601   4.591 -0.2977  0.1828  0.1527
 5875TIP3    H139116   2.425   3.573   4.661  0.8261 -0.3307 -0.9644
 5875TIP3    H239117   2.279   3.591   4.629  0.2821  0.0399  1.5203
 5876TIP3   OH239118   6.547   3.867  15.624 -0.0421  0.3039  0.3987
 5876TIP3    H139119   6.561   3.773  15.640  0.9208  0.3067 -0.3500
 5876TIP3    H239120   6.461   3.871  15.581  0.3732 -0.3461 -0.5219
 5877TIP3   OH239121   4.944   2.957   1.189 -0.7891 -0.1848  0.8063
 5877TIP3    H139122   4.864   2.909   1.171  0.3751 -0.9350 -3.2134
 5877TIP3    H239123   4.997   2.896   1.242 -1.5247 -1.0446  0.5736
 5878TIP3   OH239124   4.213   0.549  13.403 -0.3811  0.8613 -0.1540
 5878TIP3    H139125   4.148   0.512  13.344  0.2861 -3.1674  1.3139
 5878TIP3    H239126   4.189   0.642  13.409 -2.7312  0.6989 -3.6559
 5879TIP3   OH239127   5.446   4.002  15.618  0.3580  1.0678  0.0516
 5879TIP3    H139128   5.364   3.961  15.590  1.0582  0.1240 -0.6879
 5879TIP3    H239129   5.420   4.062  15.688 -0.8517  0.1196  0.4548
 5880TIP3   OH239130   5.678   3.233  11.061 -0.1337  0.3542 -0.0317
 5880TIP3    H139131   5.765   3.261  11.031 -0.3911  1.3728  0.1233
 5880TIP3    H239132   5.659   3.155  11.009  1.7646 -1.2006  1.4330
 5881TIP3   OH239133   6.160   1.596  13.855  0.3635 -0.0995 -0.4749
 5881TIP3    H139134   6.098   1.527  13.881  0.0317  0.0130 -0.9587
 5881TIP3    H239135   6.178   1.643  13.937  0.4125 -0.6131 -0.1853
 5882TIP3   OH239136   1.371   0.594  11.941  0.5058 -0.0990  0.1124
 5882TIP3    H139137   1.372   0.689  11.951  0.8817  0.0697 -1.3123
 5882TIP3    H239138   1.336   0.579  11.854 -0.2581 -1.3130  0.6039
 5883TIP3   OH239139   1.685   6.865   4.847  0.5333  0.4768  0.4642
 5883TIP3    H139140   1.735   6.922   4.905 -2.0411  1.8003  1.5691
 5883TIP3    H239141   1.671   6.918   4.768 -2.1941  1.7104  1.6432
 5884TIP3   OH239142   0.689   3.142  12.754  0.0874  0.4040 -0.3046
 5884TIP3    H139143   0.767   3.164  12.703  0.6024 -1.0908 -0.1956
 5884TIP3    H239144   0.660   3.226  12.789  2.0886  0.9135  0.2818
 5885TIP3   OH239145   5.628   4.528  12.741 -0.6846 -0.5863 -0.0232
 5885TIP3    H139146   5.667   4.500  12.658 -0.9146  0.1865 -0.3959
 5885TIP3    H239147   5.703   4.537  12.801 -0.0409  2.3237 -1.1229
 5886TIP3   OH239148   5.582   0.878   1.705 -0.5302  0.2603 -0.2082
 5886TIP3    H139149   5.652   0.932   1.670 -1.4204  0.5847 -1.5516
 5886TIP3    H239150   5.533   0.936   1.764  0.7561 -0.1893  1.3844
 5887TIP3   OH239151   2.296   4.324  13.768  0.5918 -0.1096 -0.3167
 5887TIP3    H139152   2.343   4.382  13.829  1.9153 -1.3296 -0.1303
 5887TIP3    H239153   2.364   4.271  13.727 -0.6630 -2.9422  0.9775
 5888TIP3   OH239154   1.261   6.049   2.816 -0.5627 -0.6193 -0.0460
 5888TIP3    H139155   1.338   5.999   2.790 -0.7659 -0.6535 -0.6143
 5888TIP3    H239156   1.296   6.133   2.845 -0.0879 -1.6027  2.4175
 5889TIP3   OH239157   5.070   1.535   3.569  0.1062  0.1069  0.6189
 5889TIP3    H139158   5.129   1.572   3.503 -1.4957 -0.5627 -1.2924
 5889TIP3    H239159   4.994   1.594   3.568 -0.4618 -0.6117  0.9422
 5890TIP3   OH239160   0.058   1.243   1.068 -0.3265  0.1944  0.2195
 5890TIP3    H139161   0.135   1.191   1.043 -0.4804  0.9835 -2.0873
 5890TIP3    H239162   0.003   1.182   1.118  0.3390 -1.3245 -0.8419
 5891TIP3   OH239163   4.922   0.997   1.814 -0.0773 -0.1259 -0.3651
 5891TIP3    H139164   4.922   1.085   1.851 -2.2757 -0.0041 -0.5294
 5891TIP3    H239165   4.849   0.997   1.753  0.8526 -1.6148 -1.5651
 5892TIP3   OH239166   4.413   3.391   1.010  0.3291  0.2510  0.6344
 5892TIP3    H139167   4.485   3.339   0.975  0.5166 -0.7997  2.4528
 5892TIP3    H239168   4.397   3.354   1.097 -1.1048  1.7390  1.0493
 5893TIP3   OH239169   2.719   0.635  11.650 -0.0644 -0.6902 -0.0047
 5893TIP3    H139170   2.738   0.541  11.653  1.7673 -0.4116 -1.0966
 5893TIP3    H239171   2.738   0.660  11.560  0.4160  0.8891  0.5012
 5894TIP3   OH239172   0.680   1.883  11.484  0.7667  0.5190 -0.0168
 5894TIP3    H139173   0.638   1.881  11.571  0.2341 -1.5179 -0.2899
 5894TIP3    H239174   0.754   1.823  11.492  0.3272 -0.1957 -1.1447
 5895TIP3   OH239175   1.840   4.050  14.386  0.2843  0.0766  0.3860
 5895TIP3    H139176   1.866   4.079  14.299  0.1479 -0.0533  0.3025
 5895TIP3    H239177   1.895   3.974  14.404 -0.0294 -0.1933  0.2125
 5896TIP3   OH239178   4.861   5.036  10.910  0.1889 -0.0723  0.3752
 5896TIP3    H139179   4.916   4.962  10.936  0.3302  0.2869  1.1169
 5896TIP3    H239180   4.907   5.075  10.836 -0.9326 -1.9501 -1.4204
 5897TIP3   OH239181   1.137   6.233   1.000  0.2446  0.1089 -0.1589
 5897TIP3    H139182   1.111   6.323   1.022  0.5196  0.5605 -1.5157
 5897TIP3    H239183   1.056   6.184   0.994  0.2127 -0.3271  2.8165
 5898TIP3   OH239184   5.621   0.679   3.540 -0.3088  0.2580  0.1364
 5898TIP3    H139185   5.686   0.711   3.477 -0.3055  0.0183  0.0201
 5898TIP3    H239186   5.563   0.622   3.489  0.3666 -0.8598  0.5832
 5899TIP3   OH239187   4.199   5.945   1.197  0.2956 -0.4261 -0.2387
 5899TIP3    H139188   4.271   5.884   1.181  0.1121 -0.7757  0.2314
 5899TIP3    H239189   4.121   5.891   1.196 -0.0160  0.0234 -1.1972
 5900TIP3   OH239190   5.059   0.684  10.285  0.0858 -0.0811 -0.2168
 5900TIP3    H139191   5.154   0.678  10.278  0.3448  2.5140  0.3172
 5900TIP3    H239192   5.028   0.690  10.195  0.5273  0.1457 -0.3562
 5901TIP3   OH239193   4.986   0.365  13.384  0.1290 -0.2456  0.5334
 5901TIP3    H139194   5.026   0.371  13.470 -2.0188  1.3076  1.5240
 5901TIP3    H239195   4.956   0.454  13.365 -1.5166 -1.0101 -0.7356
 5902TIP3   OH239196   3.451   2.880   2.021 -0.0348  0.3679  0.5087
 5902TIP3    H139197   3.544   2.861   2.006 -0.1687  0.9104 -1.2580
 5902TIP3    H239198   3.445   2.975   2.011 -0.8805  0.2592 -0.0972
 5903TIP3   OH239199   2.877   4.490  11.765  0.2488 -0.0935 -0.5709
 5903TIP3    H139200   2.859   4.421  11.829  0.3953 -1.5568 -2.0556
 5903TIP3    H239201   2.847   4.570  11.808 -2.5098 -1.3943  0.1511
 5904TIP3   OH239202   5.632   5.688   5.770  0.7852  0.1391 -0.2261
 5904TIP3    H139203   5.713   5.646   5.740  0.5908 -0.7318  0.4285
 5904TIP3    H239204   5.594   5.726   5.691  1.6471  0.2407 -0.6062
 5905TIP3   OH239205   2.591   3.903  16.697  0.4417  0.0788  0.3856
 5905TIP3    H139206   2.513   3.917  16.644  0.0516  0.8466  1.1333
 5905TIP3    H239207   2.589   3.973  16.763  1.0907 -0.6257  1.1926
 5906TIP3   OH239208   0.254   3.908  15.786  0.0781  0.0568  0.1948
 5906TIP3    H139209   0.207   3.990  15.799 -1.2233 -0.3609 -1.4140
 5906TIP3    H239210   0.340   3.923  15.824 -0.0811  2.2005 -0.1569
 5907TIP3   OH239211   2.625   2.099  16.111  0.3618  0.4385  0.0219
 5907TIP3    H139212   2.534   2.074  16.094 -0.1837  0.3619  2.6827
 5907TIP3    H239213   2.676   2.040  16.055 -1.1735 -0.5769 -0.3894
 5908TIP3   OH239214   4.118   5.818  15.922  0.1480  0.1732 -0.2261
 5908TIP3    H139215   4.105   5.728  15.954 -0.0566  0.6527  1.0934
 5908TIP3    H239216   4.039   5.836  15.870  1.0604 -1.0621 -2.1489
 5909TIP3   OH239217   3.057   5.967   1.369 -0.1500  0.2140  0.4038
 5909TIP3    H139218   3.023   5.932   1.451 -0.9558 -0.9871 -0.4098
 5909TIP3    H239219   3.081   6.057   1.389  2.6425 -0.8892  2.7810
 5910TIP3   OH239220   1.295   5.190  12.917  0.1967 -0.8112 -0.3374
 5910TIP3    H139221   1.228   5.122  12.906 -0.7154 -0.0592  0.4680
 5910TIP3    H239222   1.248   5.272  12.908  1.0279 -0.2641  0.1585
 5911TIP3   OH239223   0.366   2.270  14.592 -0.4378  0.3879  0.2006
 5911TIP3    H139224   0.452   2.240  14.562  1.1137  1.6631  2.9252
 5911TIP3    H239225   0.305   2.204  14.560  1.4519 -0.3132 -2.2780
 5912TIP3   OH239226   0.569   3.612  16.912 -0.3549 -0.4294 -0.3048
 5912TIP3    H139227   0.534   3.617  17.001  0.5044 -1.2284  0.0918
 5912TIP3    H239228   0.493   3.588  16.858 -1.3340  1.9345 -0.1261
 5913TIP3   OH239229   1.270   4.659   4.403 -0.2953  0.7799 -0.6332
 5913TIP3    H139230   1.282   4.705   4.320 -1.0703  1.7063 -0.2560
 5913TIP3    H239231   1.273   4.566   4.380 -2.0844  0.9995 -1.9665
 5914TIP3   OH239232   3.932   0.194   0.251 -0.5436 -0.3429  0.3870
 5914TIP3    H139233   4.010   0.248   0.239 -0.5497  0.0098  1.6930
 5914TIP3    H239234   3.897   0.222   0.336 -0.9359 -1.9190  0.7699
 5915TIP3   OH239235   3.403   2.851  15.095 -0.2969 -0.1053 -0.8223
 5915TIP3    H139236   3.314   2.854  15.131 -0.0822 -2.2068  0.0357
 5915TIP3    H239237   3.391   2.819  15.006 -0.4546  0.3816 -0.9783
 5916TIP3   OH239238   5.463   1.014   5.898  0.0159  0.8983  0.4711
 5916TIP3    H139239   5.537   1.065   5.866 -0.2332  1.7027  1.1396
 5916TIP3    H239240   5.409   0.998   5.821  1.8060 -1.3786 -0.4230
 5917TIP3   OH239241   0.443   3.276   0.764  0.1225  0.1139 -0.2273
 5917TIP3    H139242   0.349   3.292   0.773  0.2859  1.6620 -1.0168
 5917TIP3    H239243   0.484   3.347   0.812  0.9018 -0.4140 -0.1011
 5918TIP3   OH239244   4.654   4.477  11.030  0.0895  0.2099 -0.3350
 5918TIP3    H139245   4.663   4.544  11.098  0.2985  0.4610 -0.6080
 5918TIP3    H239246   4.672   4.523  10.948 -1.5775  0.2426 -0.7168
 5919TIP3   OH239247   1.496   6.583   0.248 -0.2071  0.4187  0.2086
 5919TIP3    H139248   1.430   6.614   0.310 -1.4915 -0.4403 -0.6864
 5919TIP3    H239249   1.491   6.488   0.254 -0.3127  0.3201 -1.1525
 5920TIP3   OH239250   3.174   1.489   5.973  0.2018  0.2358  0.0125
 5920TIP3    H139251   3.148   1.403   5.940 -1.1111  0.0798  1.3582
 5920TIP3    H239252   3.175   1.478   6.068 -1.2413  2.0208  0.2780
 5921TIP3   OH239253   6.747   5.961   5.819 -0.2121 -0.1291  0.2291
 5921TIP3    H139254   6.719   5.875   5.850 -0.5590 -0.1167 -0.0386
 5921TIP3    H239255   6.674   6.019   5.841 -0.0605  0.0604  0.2335
 5922TIP3   OH239256   0.081   1.882   0.745 -0.3749  0.2575 -0.0695
 5922TIP3    H139257   0.086   1.794   0.783 -0.6546  0.0218 -0.5646
 5922TIP3    H239258  -0.005   1.914   0.771 -0.5528  0.1095 -0.4646
 5923TIP3   OH239259   2.207   5.632   4.116 -0.2477  0.3505 -0.0987
 5923TIP3    H139260   2.184   5.700   4.179 -0.0443 -0.1455  0.5192
 5923TIP3    H239261   2.125   5.612   4.071 -0.1287  1.6406 -0.9283
 5924TIP3   OH239262   1.182   0.280   3.383 -0.0813 -0.5086 -0.1500
 5924TIP3    H139263   1.227   0.361   3.409  1.2537 -1.3188  0.1378
 5924TIP3    H239264   1.234   0.247   3.309 -1.0205 -0.7639 -0.7126
 5925TIP3   OH239265   1.126   5.777  14.412 -0.3181  0.2196  0.5561
 5925TIP3    H139266   1.151   5.851  14.468  0.1227 -0.0379  0.7085
 5925TIP3    H239267   1.107   5.817  14.327  1.9549  0.3187  0.0324
 5926TIP3   OH239268   0.460   6.810   5.757 -0.1675 -0.2964  0.1339
 5926TIP3    H139269   0.473   6.749   5.684  0.6872  1.2806 -1.0795
 5926TIP3    H239270   0.417   6.757   5.824 -0.4080 -1.9661 -1.2590
 5927TIP3   OH239271   6.295   3.313   2.591  0.9517  0.1509 -0.1969
 5927TIP3    H139272   6.304   3.375   2.663 -0.3113 -1.1570  1.1500
 5927TIP3    H239273   6.282   3.367   2.513  1.8327  1.5811  0.6206
 5928TIP3   OH239274   0.326   6.539  16.026  0.0197  0.5902  0.2619
 5928TIP3    H139275   0.379   6.478  16.078 -0.9549 -1.2323 -0.8107
 5928TIP3    H239276   0.267   6.579  16.090  1.9379  1.9495  1.3116
 5929TIP3   OH239277   6.338   3.293   0.875  0.0555 -0.5303  0.0995
 5929TIP3    H139278   6.410   3.230   0.876 -0.2925 -0.9260  1.5213
 5929TIP3    H239279   6.327   3.320   0.966 -1.5913 -0.4969 -0.0639
 5930TIP3   OH239280   0.428   0.385   6.346  0.5973  0.3615 -0.4358
 5930TIP3    H139281   0.477   0.451   6.297  2.0374 -1.0760 -1.0028
 5930TIP3    H239282   0.339   0.390   6.310  0.7389  1.7792 -0.6449
 5931TIP3   OH239283   5.113   4.208  15.493 -0.0339  0.1331 -0.2292
 5931TIP3    H139284   5.077   4.292  15.465 -3.3759 -1.4844 -1.3289
 5931TIP3    H239285   5.152   4.171  15.414  0.6503  0.2526  0.0441
 5932TIP3   OH239286   5.506   1.007   0.275 -0.1973 -0.2598 -0.4206
 5932TIP3    H139287   5.569   1.073   0.246 -1.2165  0.0626 -2.0281
 5932TIP3    H239288   5.521   0.933   0.218 -0.7161 -0.4948 -0.2580
 5933TIP3   OH239289   2.772   4.864  11.541 -0.6237 -0.1638  0.0264
 5933TIP3    H139290   2.835   4.897  11.605 -2.3726 -0.0063  1.7497
 5933TIP3    H239291   2.806   4.779  11.515  1.6934  1.0425 -1.1843
 5934TIP3   OH239292   4.295   3.833  13.517 -0.1049  0.0372  0.0473
 5934TIP3    H139293   4.301   3.885  13.437 -1.9470  0.6015  0.2333
 5934TIP3    H239294   4.288   3.898  13.587 -0.9556 -0.4598  0.4296
 5935TIP3   OH239295   3.511   0.745   4.144 -0.2592  0.2344 -0.0761
 5935TIP3    H139296   3.565   0.734   4.222 -1.2946  1.6217  0.8597
 5935TIP3    H239297   3.474   0.658   4.128  0.3995 -0.1903  0.6366
 5936TIP3   OH239298   1.063   5.289   4.727  0.3042  0.3186 -0.0950
 5936TIP3    H139299   1.068   5.371   4.678 -0.2539 -0.5808 -1.7698
 5936TIP3    H239300   0.990   5.301   4.787  0.5323  1.2074  0.0215
 5937TIP3   OH239301   1.273   3.996  11.997  0.4572 -0.2206 -0.2463
 5937TIP3    H139302   1.278   4.078  12.046 -2.7955  0.0646 -0.2017
 5937TIP3    H239303   1.210   3.943  12.045 -2.0184 -0.3783 -3.3987
 5938TIP3   OH239304   6.366   6.434   5.721 -0.2155 -0.3258  0.2278
 5938TIP3    H139305   6.319   6.512   5.752 -0.6436  0.1408 -1.5139
 5938TIP3    H239306   6.453   6.466   5.700  0.5227 -0.9267  2.1922
 5939TIP3   OH239307   5.293   3.907   4.142 -0.2524 -0.0120  0.3588
 5939TIP3    H139308   5.222   3.909   4.206 -0.5681  1.5825 -0.0091
 5939TIP3    H239309   5.278   3.983   4.086  1.6372  0.2681  0.1549
 5940TIP3   OH239310   4.501   6.355  10.732 -0.0627 -0.3627 -0.4035
 5940TIP3    H139311   4.486   6.367  10.826  4.1614  0.8960  0.2884
 5940TIP3    H239312   4.463   6.433  10.692 -0.2296  0.0158  0.4644
 5941TIP3   OH239313   3.465   6.164  12.675 -0.4375 -0.0388 -0.0376
 5941TIP3    H139314   3.486   6.256  12.688  2.4710 -0.7301  0.6598
 5941TIP3    H239315   3.401   6.144  12.744  1.9681  0.5310  2.5195
 5942TIP3   OH239316   5.376   4.497  15.003 -0.4123 -0.0614 -0.3580
 5942TIP3    H139317   5.314   4.432  15.034 -1.0053  0.6985  0.0680
 5942TIP3    H239318   5.349   4.579  15.044  0.3892  0.4407 -0.7938
 5943TIP3   OH239319   0.456   1.520  11.832 -0.5228 -0.0081  0.1877
 5943TIP3    H139320   0.400   1.447  11.857 -2.4937  1.3831  0.0425
 5943TIP3    H239321   0.514   1.533  11.907  0.0237 -1.8048  0.1358
 5944TIP3   OH239322   1.261   0.067   4.373  0.0824  0.7053 -0.0505
 5944TIP3    H139323   1.222  -0.013   4.409  0.7248 -0.6431 -2.1588
 5944TIP3    H239324   1.188   0.113   4.332  0.0121  0.2538 -0.4347
 5945TIP3   OH239325   2.339   5.839   2.835  0.0530 -0.3841 -0.4640
 5945TIP3    H139326   2.333   5.925   2.794  1.3100 -0.6880 -1.3560
 5945TIP3    H239327   2.347   5.777   2.762 -2.0836 -1.4213  0.1058
 5946TIP3   OH239328   5.664   2.413  10.370  0.4874 -0.0967  0.7856
 5946TIP3    H139329   5.687   2.468  10.445 -1.4418 -0.2974  1.5640
 5946TIP3    H239330   5.585   2.366  10.397 -0.0771 -0.4195 -1.2454
 5947TIP3   OH239331   3.202   2.298  10.850 -0.2031  0.3402  1.1390
 5947TIP3    H139332   3.244   2.314  10.765 -3.9908  0.1773 -0.9860
 5947TIP3    H239333   3.183   2.204  10.850 -1.1763  0.5244  1.6377
 5948TIP3   OH239334   5.496   2.404   5.300  0.2138  0.1791 -0.1132
 5948TIP3    H139335   5.472   2.497   5.302  0.1496  0.1613 -0.0661
 5948TIP3    H239336   5.413   2.358   5.287  0.1107  0.0662  0.8897
 5949TIP3   OH239337   6.043   3.978  14.091  0.4764 -0.8414  0.1489
 5949TIP3    H139338   6.103   4.052  14.080 -1.5554  0.9330  0.3788
 5949TIP3    H239339   6.029   3.973  14.186 -0.8689 -0.2353  0.0042
 5950TIP3   OH239340   0.614   0.941   2.354 -0.3718  0.0025 -0.0941
 5950TIP3    H139341   0.641   1.010   2.294 -0.1061 -0.0306 -0.0111
 5950TIP3    H239342   0.599   0.986   2.437  0.9101 -0.2064  0.2680
 5951TIP3   OH239343   6.116   5.670  13.448  0.1057 -0.0250 -0.5234
 5951TIP3    H139344   6.092   5.664  13.540 -0.3416 -0.8447 -0.6768
 5951TIP3    H239345   6.140   5.762  13.435  0.1719  0.0987  0.4007
 5952TIP3   OH239346   2.171   2.410  11.183 -0.3423  0.3830 -0.2102
 5952TIP3    H139347   2.129   2.476  11.239  0.7119  1.3654 -0.5478
 5952TIP3    H239348   2.169   2.330  11.236  0.0992  1.1485  0.9989
 5953TIP3   OH239349   6.200   3.762  11.046  0.5877  0.0759 -0.2200
 5953TIP3    H139350   6.158   3.846  11.026  0.6494  0.1671  0.0295
 5953TIP3    H239351   6.127   3.703  11.068  0.3859 -0.4218 -2.0409
 5954TIP3   OH239352   0.562   4.728   2.319 -0.2471  0.0393  0.6755
 5954TIP3    H139353   0.496   4.791   2.347 -0.0834  0.6397 -0.2611
 5954TIP3    H239354   0.607   4.771   2.246 -1.6185 -2.0382 -1.5256
 5955TIP3   OH239355   4.156   1.225   6.371  0.1268  0.1290 -0.2194
 5955TIP3    H139356   4.244   1.254   6.346  0.5510 -0.0153  1.0052
 5955TIP3    H239357   4.113   1.304   6.404  1.4292 -0.5142  3.5225
 5956TIP3   OH239358   1.560   1.222  13.464 -0.2782 -0.2244  0.0329
 5956TIP3    H139359   1.639   1.248  13.511  0.3545 -1.1899 -0.4551
 5956TIP3    H239360   1.581   1.136  13.428 -2.3942 -1.6925  1.9820
 5957TIP3   OH239361   3.511   6.512   0.670 -0.7732  0.0772  0.0120
 5957TIP3    H139362   3.555   6.594   0.691 -0.3974  0.0832 -0.7924
 5957TIP3    H239363   3.581   6.447   0.665 -0.9162 -0.0252 -0.6937
 5958TIP3   OH239364   3.742   2.103  11.568  0.3091 -0.0805  0.1037
 5958TIP3    H139365   3.782   2.100  11.655 -0.1987  1.0328  0.3914
 5958TIP3    H239366   3.713   2.013  11.552  0.1440 -0.2424  1.2101
 5959TIP3   OH239367   5.690   0.312  12.947 -0.1899 -0.2831 -0.5237
 5959TIP3    H139368   5.748   0.365  13.002 -0.5899 -0.4828  0.1004
 5959TIP3    H239369   5.625   0.374  12.914  0.2465 -0.0990 -1.0535
 5960TIP3   OH239370   1.485   6.517  11.191 -0.4905 -0.0569 -0.0078
 5960TIP3    H139371   1.523   6.434  11.219 -0.5647 -1.1056 -2.7250
 5960TIP3    H239372   1.395   6.496  11.169 -0.7146  0.9205 -0.0771
 5961TIP3   OH239373   2.327   0.975  14.253  0.0592 -0.1107  0.4675
 5961TIP3    H139374   2.359   0.893  14.291  0.8405  0.0420  0.1675
 5961TIP3    H239375   2.403   1.011  14.208  0.7132  2.4123  3.2628
 5962TIP3   OH239376   5.756   2.275  16.898  0.5297  0.0473 -0.1926
 5962TIP3    H139377   5.660   2.285  16.900  0.4883  0.0274 -1.3377
 5962TIP3    H239378   5.770   2.181  16.908  0.2570 -0.3408 -2.6374
 5963TIP3   OH239379   0.206   5.926   5.967 -1.0215  0.3614  0.4189
 5963TIP3    H139380   0.218   5.866   6.040 -2.1338  0.7901  0.9911
 5963TIP3    H239381   0.257   6.003   5.991  1.8724 -0.9253 -1.1334
 5964TIP3   OH239382   4.704   5.232   1.048 -0.7065  0.2660  0.1393
 5964TIP3    H139383   4.638   5.300   1.036 -2.2069 -1.3076 -1.0531
 5964TIP3    H239384   4.784   5.279   1.070 -1.6376  2.4097 -0.8328
 5965TIP3   OH239385   5.624   3.166   3.507 -0.6439 -0.0192  0.6335
 5965TIP3    H139386   5.667   3.096   3.556 -1.1064 -0.8621 -0.1492
 5965TIP3    H239387   5.543   3.128   3.475 -0.4853  0.5916 -0.5689
 5966TIP3   OH239388   1.161   5.124  14.762 -1.0082  0.2567 -0.0114
 5966TIP3    H139389   1.075   5.118  14.720  0.3377  0.9255 -3.1866
 5966TIP3    H239390   1.220   5.081  14.700  1.0577  0.3386  1.7959
 5967TIP3   OH239391   4.745   4.350  15.117 -0.0291 -0.2940  0.4119
 5967TIP3    H139392   4.780   4.316  15.035  0.1389 -2.6481  1.3980
 5967TIP3    H239393   4.669   4.402  15.092 -1.2132 -2.6384 -1.1255
 5968TIP3   OH239394   3.214   3.073   5.052 -0.5898 -0.7698  0.1123
 5968TIP3    H139395   3.221   2.978   5.062  0.5685 -0.6901  0.2080
 5968TIP3    H239396   3.254   3.092   4.967 -1.0896 -0.3989 -0.0427
 5969TIP3   OH239397   2.016   1.829  15.528  0.2224 -0.0246  0.4034
 5969TIP3    H139398   2.079   1.757  15.533  1.7183  1.2066  0.0106
 5969TIP3    H239399   2.000   1.841  15.435 -0.7372 -0.4277  0.5085
 5970TIP3   OH239400   5.743   0.131  11.663  0.8554  0.0915  0.1596
 5970TIP3    H139401   5.778   0.217  11.687  1.3924 -0.3278  0.9405
 5970TIP3    H239402   5.820   0.073  11.666  0.3481 -0.5707  0.4538
 5971TIP3   OH239403   1.235   2.629  14.089 -0.1079 -0.3535 -0.1965
 5971TIP3    H139404   1.307   2.572  14.062 -0.6181 -0.8438 -0.5446
 5971TIP3    H239405   1.157   2.573  14.086 -0.5880  0.3099 -0.3418
 5972TIP3   OH239406   0.785   6.804   5.274  0.0859  0.3076  0.9319
 5972TIP3    H139407   0.826   6.851   5.201  1.6309 -0.0883  1.5020
 5972TIP3    H239408   0.840   6.727   5.287  0.1195  0.5927  2.7935
 5973TIP3   OH239409   4.679   6.690   2.301  0.1554 -0.1370 -0.4620
 5973TIP3    H139410   4.631   6.680   2.383  0.9511 -1.9527 -0.1873
 5973TIP3    H239411   4.628   6.639   2.238 -0.0491  0.6476 -0.9456
 5974TIP3   OH239412   0.458   6.106   3.569  0.0466  0.1210 -0.0672
 5974TIP3    H139413   0.493   6.041   3.509  1.9487 -0.7812  1.8740
 5974TIP3    H239414   0.427   6.177   3.513  0.5285 -1.2237 -2.1261
 5975TIP3   OH239415   1.961   2.276   2.639 -0.4114 -0.2311  0.4531
 5975TIP3    H139416   2.016   2.209   2.680 -0.6917 -0.9179 -0.2771
 5975TIP3    H239417   2.013   2.356   2.644  0.4252 -0.7523  0.2732
 5976TIP3   OH239418   2.910   2.140   5.252 -0.1831 -0.0483  0.5741
 5976TIP3    H139419   2.901   2.210   5.187 -1.2425  1.4365  2.2445
 5976TIP3    H239420   2.934   2.063   5.200  1.8159  1.6687 -1.2721
 5977TIP3   OH239421   2.949   4.265   2.177  0.0147  0.6348 -0.1922
 5977TIP3    H139422   2.957   4.361   2.178 -1.6290  0.8398 -1.6140
 5977TIP3    H239423   2.989   4.239   2.094 -0.0080  0.1364 -0.0466
 5978TIP3   OH239424   4.155   2.738   4.351  0.1382 -0.3674  0.1400
 5978TIP3    H139425   4.162   2.774   4.439 -0.8117 -0.8801  0.4346
 5978TIP3    H239426   4.078   2.781   4.314  1.2223  0.7865 -0.9154
 5979TIP3   OH239427   1.487   2.170  15.236 -0.4971 -0.1099  0.2182
 5979TIP3    H139428   1.510   2.108  15.166 -0.4202  0.7520 -0.5382
 5979TIP3    H239429   1.461   2.115  15.310 -1.0373 -1.0307 -0.6437
 5980TIP3   OH239430   0.511   2.974  12.863  0.5972  0.0270 -0.0447
 5980TIP3    H139431   0.486   2.912  12.795  1.4464 -1.5053  0.9826
 5980TIP3    H239432   0.581   3.026  12.824  1.3778 -1.1316 -0.2048
 5981TIP3   OH239433   3.953   3.156  12.309  0.3914 -0.3376  0.3599
 5981TIP3    H139434   3.961   3.236  12.360  0.9611  0.4522 -0.9080
 5981TIP3    H239435   4.039   3.114  12.315  0.3213 -0.4779  0.4074
 5982TIP3   OH239436   0.058   3.929  11.577  0.3600 -0.2781  0.1364
 5982TIP3    H139437   0.153   3.918  11.574  0.4028  0.1850 -1.6591
 5982TIP3    H239438   0.024   3.865  11.515 -0.5443 -0.5852  0.9162
 5983TIP3   OH239439   4.850   1.869   5.281 -0.5340 -0.3114  0.2147
 5983TIP3    H139440   4.840   1.839   5.191 -2.9249  0.8192  0.0316
 5983TIP3    H239441   4.920   1.935   5.276  0.2250 -1.1442 -0.5542
 5984TIP3   OH239442   1.232   4.058   1.269  0.7136  0.1210 -0.2697
 5984TIP3    H139443   1.270   3.994   1.329 -0.9661 -0.6521  0.0272
 5984TIP3    H239444   1.306   4.113   1.242  1.9810 -1.1843  0.4088
 5985TIP3   OH239445   5.488   1.084   1.831  0.1978 -0.6462 -0.6318
 5985TIP3    H139446   5.447   1.153   1.779  1.6678 -1.1940 -2.6680
 5985TIP3    H239447   5.538   1.130   1.898  0.4405  0.2373 -1.4057
 5986TIP3   OH239448   4.041   4.577   4.533  0.2196  0.0433  0.0071
 5986TIP3    H139449   4.007   4.508   4.476 -1.3352  1.4092 -0.8064
 5986TIP3    H239450   3.964   4.625   4.561  1.2408  1.3813  0.6490
 5987TIP3   OH239451   5.172   0.910  11.180  0.1850 -0.4665  0.6366
 5987TIP3    H139452   5.202   0.875  11.096 -0.5536  0.1692  0.0910
 5987TIP3    H239453   5.252   0.941  11.223  0.3654  1.4114 -0.8904
 5988TIP3   OH239454   1.359   3.726   3.195 -0.2416  0.1791 -0.6600
 5988TIP3    H139455   1.428   3.765   3.248 -0.3182 -1.0263  0.3581
 5988TIP3    H239456   1.397   3.718   3.108  0.0332  1.7863 -0.7225
 5989TIP3   OH239457   1.404   4.550   2.844  0.5877  0.1466  0.7301
 5989TIP3    H139458   1.473   4.503   2.892  0.7250  0.8278  1.2118
 5989TIP3    H239459   1.436   4.555   2.754  1.0000  0.1354  0.8758
 5990TIP3   OH239460   5.008   5.551   4.601 -0.3078 -0.0725  0.1328
 5990TIP3    H139461   5.056   5.630   4.576 -1.1745  0.9898  1.6823
 5990TIP3    H239462   4.936   5.545   4.538 -0.5093  0.6642  0.2819
 5991TIP3   OH239463   3.502   2.274   3.699  0.0032 -0.1367 -0.0353
 5991TIP3    H139464   3.493   2.215   3.624 -5.7973 -1.4675  1.1939
 5991TIP3    H239465   3.484   2.361   3.664 -1.1288 -0.5355 -0.4973
 5992TIP3   OH239466   1.388   6.702  11.368  0.2200 -0.8364 -0.1462
 5992TIP3    H139467   1.429   6.779  11.407 -0.0251 -1.2079  0.8968
 5992TIP3    H239468   1.407   6.708  11.275  3.3161 -1.4049  0.3554
 5993TIP3   OH239469   3.919   0.659  11.478 -0.0489 -0.5030 -0.1993
 5993TIP3    H139470   3.939   0.722  11.409  0.3729  1.1524  1.3638
 5993TIP3    H239471   4.004   0.632  11.512 -0.2539 -1.0981 -0.1488
 5994TIP3   OH239472   2.589   1.068  14.757 -0.1398 -0.2606  0.0521
 5994TIP3    H139473   2.676   1.052  14.721  0.2631  1.8850 -0.0727
 5994TIP3    H239474   2.547   1.127  14.694 -1.5087 -0.8855  0.3473
 5995TIP3   OH239475   5.039   4.706  14.526  0.2145 -0.1403 -0.5301
 5995TIP3    H139476   5.035   4.622  14.572 -1.5507 -0.2975 -0.8795
 5995TIP3    H239477   5.020   4.683  14.435  0.9488  0.4992 -0.8509
 5996TIP3   OH239478   3.606   4.874   5.031  0.1947  0.1746  0.1424
 5996TIP3    H139479   3.561   4.808   4.978  0.7830 -0.1788  0.0796
 5996TIP3    H239480   3.692   4.837   5.048  0.3020  0.6455  0.6594
 5997TIP3   OH239481   0.399   5.753   3.847  0.1093  0.0475  0.4673
 5997TIP3    H139482   0.348   5.797   3.779 -0.8761 -1.4197  0.1959
 5997TIP3    H239483   0.441   5.824   3.896  0.6993  1.1524 -1.5270
 5998TIP3   OH239484   4.556   5.210  11.161 -0.5231  0.4430 -0.2389
 5998TIP3    H139485   4.500   5.187  11.236  0.9694  0.9107  1.0739
 5998TIP3    H239486   4.559   5.305  11.162  1.5271  0.4124  0.7138
 5999TIP3   OH239487   6.749   0.230  12.526 -0.0934 -0.5174  0.0260
 5999TIP3    H139488   6.693   0.306  12.510  0.1577 -0.1822  0.7063
 5999TIP3    H239489   6.750   0.183  12.442 -0.6592 -0.0485 -0.2539
 6000TIP3   OH239490   1.725   3.743   4.249 -0.0608 -0.6598  0.2727
 6000TIP3    H139491   1.727   3.750   4.344 -0.9264  0.1391  0.2449
 6000TIP3    H239492   1.797   3.683   4.228  1.0486  0.2514  1.3103
 6001TIP3   OH239493   0.384   1.748   4.851 -0.7429  0.1833  0.2458
 6001TIP3    H139494   0.430   1.832   4.847 -0.4074  0.0701  1.4054
 6001TIP3    H239495   0.431   1.693   4.788  1.5906 -0.3139  2.2579
 6002TIP3   OH239496   1.987   1.098   1.851 -0.0583  0.5374 -0.4433
 6002TIP3    H139497   1.925   1.026   1.861  0.0656  0.7343  3.4195
 6002TIP3    H239498   2.073   1.055   1.850  0.0192  0.5182  1.9132
 6003TIP3   OH239499   4.073   2.011  10.416  0.2448  0.1555 -0.8287
 6003TIP3    H139500   4.040   1.981  10.501  1.9732 -1.9182 -0.8008
 6003TIP3    H239501   3.996   2.016  10.360 -1.1892  3.0590  1.1697
 6004TIP3   OH239502   4.246   6.562   5.960 -0.5222  0.1269 -0.5284
 6004TIP3    H139503   4.291   6.492   6.006  0.3810 -0.0879 -1.6979
 6004TIP3    H239504   4.314   6.627   5.942 -1.3879  1.4701  0.7566
 6005TIP3   OH239505   5.400   3.604  12.849  0.2623 -0.4602  0.0242
 6005TIP3    H139506   5.357   3.620  12.934 -0.0877 -0.0322 -0.2257
 6005TIP3    H239507   5.335   3.557  12.798 -0.2026  0.7990 -0.5987
 6006TIP3   OH239508   6.144   4.188   5.622 -0.2938  0.4662 -0.0546
 6006TIP3    H139509   6.171   4.137   5.545  0.5647  0.7548  0.0445
 6006TIP3    H239510   6.061   4.229   5.596 -1.6072 -1.8294  0.2380
 6007TIP3   OH239511   4.635   3.926   5.621  0.0163 -0.0459  0.0069
 6007TIP3    H139512   4.633   3.882   5.536  2.1494  0.4861 -0.3639
 6007TIP3    H239513   4.543   3.944   5.641 -0.7783 -2.7139 -0.8130
 6008TIP3   OH239514   3.381   2.424  15.788 -0.3227  0.4899 -0.2222
 6008TIP3    H139515   3.372   2.498  15.847  0.3733  1.8332 -1.7252
 6008TIP3    H239516   3.371   2.347  15.844 -1.4516  1.6996  1.3218
 6009TIP3   OH239517   2.011   5.747  11.263 -0.0365  0.0832 -0.3044
 6009TIP3    H139518   2.043   5.693  11.191 -0.8709 -0.1373 -0.5181
 6009TIP3    H239519   2.081   5.744  11.329  1.1414  1.0114 -1.4514
 6010TIP3   OH239520   1.874   2.694  17.032  0.0113  0.0778  0.1471
 6010TIP3    H139521   1.803   2.747  17.068  0.2141  0.2684  0.2723
 6010TIP3    H239522   1.865   2.703  16.937  1.9460  2.9744  0.0998
 6011TIP3   OH239523   5.205   4.585   4.975  0.0020 -0.3494  0.2195
 6011TIP3    H139524   5.168   4.654   5.031  1.7673  0.7399  0.1137
 6011TIP3    H239525   5.168   4.504   5.010 -2.5320  0.6226  0.0482
 6012TIP3   OH239526   2.235   0.182  15.287  0.1839  0.2791  0.2539
 6012TIP3    H139527   2.309   0.140  15.244  0.3367  1.2766 -0.4921
 6012TIP3    H239528   2.244   0.158  15.379  1.2800  0.1601  0.1289
 6013TIP3   OH239529   3.902   1.876   1.335  0.2272  0.0270 -0.5889
 6013TIP3    H139530   3.848   1.828   1.272  0.7102 -1.4400  0.0594
 6013TIP3    H239531   3.841   1.900   1.406  0.2125 -0.7360 -0.3344
 6014TIP3   OH239532   5.222   2.832  13.555  0.5924  0.1431  0.1724
 6014TIP3    H139533   5.291   2.879  13.602 -0.1297  0.0669  1.3385
 6014TIP3    H239534   5.227   2.865  13.465 -0.9304  3.6924  1.2193
 6015TIP3   OH239535   6.019   5.112  12.360 -0.3701  0.0387  0.0735
 6015TIP3    H139536   5.963   5.047  12.316  0.9804  0.3367 -2.2279
 6015TIP3    H239537   6.081   5.059  12.411 -0.3921 -0.4078 -0.3559
 6016TIP3   OH239538   0.185   0.737   1.051  0.1405 -0.1860 -0.3711
 6016TIP3    H139539   0.133   0.680   1.108  1.9476 -0.9496  0.5971
 6016TIP3    H239540   0.195   0.686   0.970 -3.0623  1.2026 -1.8252
 6017TIP3   OH239541   2.121   4.462   1.657 -0.7204 -0.8223 -0.0188
 6017TIP3    H139542   2.197   4.483   1.603  0.0468  0.8534  1.6180
 6017TIP3    H239543   2.124   4.367   1.667 -0.3300 -1.0718 -2.0282
 6018TIP3   OH239544   1.215   6.579  12.972 -0.1076 -0.6967  0.0190
 6018TIP3    H139545   1.162   6.654  13.000 -0.4257 -0.4664 -1.1206
 6018TIP3    H239546   1.271   6.560  13.047 -0.4144  0.3264  0.5363
 6019TIP3   OH239547   1.831   3.231  16.235 -0.2509  0.2570 -0.2065
 6019TIP3    H139548   1.890   3.221  16.160 -0.0030  0.0915  0.0090
 6019TIP3    H239549   1.881   3.284  16.298  0.0896 -0.7735  0.4171
 6020TIP3   OH239550   1.391   1.576  16.776  0.0264  0.0204  0.7427
 6020TIP3    H139551   1.472   1.526  16.775 -0.0183 -0.0678  1.3122
 6020TIP3    H239552   1.419   1.667  16.766  0.2315  0.0252  1.2948
 6021TIP3   OH239553   0.970   3.523  14.048  0.4806  0.0064  0.2312
 6021TIP3    H139554   1.002   3.516  13.958  1.4868 -0.3108  0.6015
 6021TIP3    H239555   0.924   3.440  14.064  0.7144 -0.1372  0.1615
 6022TIP3   OH239556   6.148   1.948  15.256  0.4299  0.5913 -0.1213
 6022TIP3    H139557   6.154   1.943  15.351  1.6165 -0.9040 -0.2451
 6022TIP3    H239558   6.238   1.937  15.226  0.1531  1.6113 -1.4247
 6023TIP3   OH239559   2.293   2.085  15.856  0.5825  0.2397 -0.2225
 6023TIP3    H139560   2.208   2.130  15.858 -1.5554 -3.1294 -2.8709
 6023TIP3    H239561   2.290   2.025  15.930 -0.1526 -1.0398 -1.2596
 6024TIP3   OH239562   5.993   4.934  11.757  0.4027  0.0063 -0.3128
 6024TIP3    H139563   6.009   5.028  11.760 -0.6066  0.1788  0.1112
 6024TIP3    H239564   5.904   4.926  11.722 -0.6401 -0.6329  2.2939
 6025TIP3   OH239565   6.556   5.016  12.976 -0.6219  0.0012 -0.7823
 6025TIP3    H139566   6.484   4.975  13.025  0.4094 -0.8352  0.0983
 6025TIP3    H239567   6.544   5.110  12.990 -0.5063 -0.2081  0.9160
 6026TIP3   OH239568   5.952   4.661   5.709 -0.4446 -0.0204  0.3521
 6026TIP3    H139569   5.961   4.716   5.787  0.6842 -0.0322  0.2462
 6026TIP3    H239570   5.999   4.708   5.640 -0.0659 -0.7710  0.0797
 6027TIP3   OH239571   3.651   2.594   6.495  0.2166  0.1683  0.1002
 6027TIP3    H139572   3.718   2.647   6.540  1.0441 -1.1128  0.4273
 6027TIP3    H239573   3.665   2.505   6.527 -1.1396 -0.2686 -0.4500
 6028TIP3   OH239574   1.594   3.374  15.924 -0.0750 -0.1213  0.5421
 6028TIP3    H139575   1.641   3.456  15.937 -0.4764  0.1396  0.3873
 6028TIP3    H239576   1.587   3.336  16.012  0.6892 -0.3223  0.5243
 6029TIP3   OH239577   6.348   5.808   3.963 -0.0786 -0.1695 -0.3645
 6029TIP3    H139578   6.410   5.881   3.957 -0.3600 -0.0185 -1.9868
 6029TIP3    H239579   6.398   5.731   3.936 -0.5028 -0.0952 -1.3957
 6030TIP3   OH239580   2.836   4.383   3.604  0.0415 -0.0076 -0.4496
 6030TIP3    H139581   2.872   4.357   3.519 -0.7482  1.0029 -1.1247
 6030TIP3    H239582   2.907   4.432   3.646  0.8568 -1.5472  0.0127
 6031TIP3   OH239583   6.135   2.042  16.081 -0.5839  0.3610  0.0730
 6031TIP3    H139584   6.078   2.005  16.014  1.3538 -1.7212 -0.5287
 6031TIP3    H239585   6.222   2.043  16.041  0.0233  2.5241  1.3056
 6032TIP3   OH239586   0.964   6.729  15.667  0.2727  0.2586 -0.1781
 6032TIP3    H139587   0.950   6.635  15.665 -0.6579  0.3722  0.4314
 6032TIP3    H239588   1.014   6.745  15.747 -0.7393  0.4128  0.4407
 6033TIP3   OH239589   0.511   3.427  12.457  0.1942  0.2335 -0.4674
 6033TIP3    H139590   0.564   3.368  12.405 -0.2839 -1.6051  1.0187
 6033TIP3    H239591   0.458   3.475  12.393 -0.6871 -2.2324 -1.7027
 6034TIP3   OH239592   1.422   2.482   2.481 -0.5082  0.3830 -0.2851
 6034TIP3    H139593   1.399   2.533   2.403  0.5955  1.2742 -0.0571
 6034TIP3    H239594   1.494   2.425   2.453 -0.2247  0.5815  0.0245
 6035TIP3   OH239595   3.316   5.334   1.512  0.6759 -0.4693 -0.3436
 6035TIP3    H139596   3.344   5.257   1.562  0.8757 -0.0362  0.2318
 6035TIP3    H239597   3.220   5.328   1.512  0.5502  0.5269  1.7941
 6036TIP3   OH239598   2.768   4.962   3.478 -0.5982 -0.7245 -0.3005
 6036TIP3    H139599   2.760   4.881   3.427 -1.3177 -0.7501 -0.1438
 6036TIP3    H239600   2.704   5.022   3.439 -0.2118 -0.2867 -0.2862
 6037TIP3   OH239601   2.844   6.791   5.476  0.1087 -0.2531  0.0316
 6037TIP3    H139602   2.851   6.822   5.566  1.4736 -1.3101  0.3303
 6037TIP3    H239603   2.752   6.764   5.467  0.1907 -1.0998  1.4464
 6038TIP3   OH239604   6.429   4.202  10.915 -0.0333 -0.0051  0.2326
 6038TIP3    H139605   6.399   4.274  10.859  0.1943 -0.8235 -0.9796
 6038TIP3    H239606   6.412   4.233  11.004 -2.6531  0.3716 -0.3237
 6039TIP3   OH239607   1.395   4.803   2.934 -0.5675  0.2775  0.4702
 6039TIP3    H139608   1.307   4.841   2.928 -0.2723  0.8375 -1.0191
 6039TIP3    H239609   1.384   4.711   2.912 -1.0875 -0.1997  2.6187
 6040TIP3   OH239610   1.617   5.112   5.238  0.2592  0.0150  0.3546
 6040TIP3    H139611   1.575   5.175   5.180 -0.2815  0.6021  1.3519
 6040TIP3    H239612   1.690   5.077   5.187  0.1792  0.9672 -0.4372
 6041TIP3   OH239613   0.236   4.556   0.067  0.3520 -0.2750 -0.1886
 6041TIP3    H139614   0.272   4.644   0.078 -2.7256  0.9966  0.9935
 6041TIP3    H239615   0.306   4.497   0.094  2.5093  1.7716 -0.9979
 6042TIP3   OH239616   6.418   6.762   3.585 -0.2935  0.0602 -0.1140
 6042TIP3    H139617   6.489   6.819   3.557  1.2544 -1.6032  0.2600
 6042TIP3    H239618   6.387   6.721   3.504  0.6628 -0.8158 -0.0646
 6043TIP3   OH239619   1.143   2.082  11.215  0.1153  0.2494  0.6063
 6043TIP3    H139620   1.098   2.025  11.278  1.9896 -0.3378  1.4865
 6043TIP3    H239621   1.108   2.055  11.130 -0.3917 -0.9453  1.1610
 6044TIP3   OH239622   1.802   2.158   2.936  0.1076  0.1493  0.3353
 6044TIP3    H139623   1.780   2.205   3.016 -1.1762  1.2231 -0.5879
 6044TIP3    H239624   1.880   2.202   2.902 -0.6782  1.2298 -0.1570
 6045TIP3   OH239625   1.295   4.866  13.178  0.2110  0.2553  0.4125
 6045TIP3    H139626   1.287   4.947  13.228 -2.9393 -0.3082  1.0686
 6045TIP3    H239627   1.241   4.803  13.226  1.2776 -1.7925 -0.9385
 6046TIP3   OH239628   0.167   6.651   0.065 -0.1324  0.4835 -0.2200
 6046TIP3    H139629   0.240   6.597   0.094  1.1656  1.8190 -0.8493
 6046TIP3    H239630   0.090   6.594   0.072  0.6944 -0.4612  2.0196
 6047TIP3   OH239631   1.639   6.727   0.563 -0.8379 -0.1496  0.0797
 6047TIP3    H139632   1.664   6.805   0.513 -0.6582  0.6075  1.3083
 6047TIP3    H239633   1.555   6.701   0.526 -0.9725  0.7214 -0.2597
 6048TIP3   OH239634   5.806   5.338   5.459  0.0772  0.5714  0.2782
 6048TIP3    H139635   5.735   5.401   5.448  0.1339  0.4306 -1.0471
 6048TIP3    H239636   5.761   5.254   5.469  0.0199  0.7225  1.4071
 6049TIP3   OH239637   1.957   1.523  16.855 -0.0591  0.0170 -0.0796
 6049TIP3    H139638   1.999   1.498  16.938  2.0419 -0.7765 -1.2737
 6049TIP3    H239639   1.954   1.441  16.805  0.2917  0.7676 -1.3934
 6050TIP3   OH239640   0.251   5.060   6.448  0.6729  0.2238  0.3984
 6050TIP3    H139641   0.193   5.107   6.388  0.7933  0.5619  0.5405
 6050TIP3    H239642   0.252   5.114   6.527 -0.3341 -0.7564  1.1108
 6051TIP3   OH239643   0.077   3.404  13.857 -0.7134 -0.0023  0.0416
 6051TIP3    H139644   0.026   3.449  13.924  1.3247 -1.8263  3.0875
 6051TIP3    H239645   0.153   3.369  13.904  0.8891 -1.4642 -3.2697
 6052TIP3   OH239646   0.747   1.910   3.910 -0.3744  0.2041  0.1527
 6052TIP3    H139647   0.752   2.002   3.887  3.7135 -0.0166 -0.6403
 6052TIP3    H239648   0.786   1.905   3.998 -0.5530 -0.7433  0.1936
 6053TIP3   OH239649   2.753   5.811   2.924  0.7404 -0.3558 -0.5799
 6053TIP3    H139650   2.697   5.734   2.929  2.3891 -1.5149  0.9384
 6053TIP3    H239651   2.694   5.881   2.896 -1.4078 -1.5596  0.6646
 6054TIP3   OH239652   5.417   6.674  13.523 -0.0827 -0.0211 -0.8210
 6054TIP3    H139653   5.465   6.703  13.445  1.0613  2.4162  0.6637
 6054TIP3    H239654   5.372   6.753  13.554 -1.8675 -1.3356  0.0920
 6055TIP3   OH239655   2.601   4.791  12.998 -0.2324 -0.0251 -0.1180
 6055TIP3    H139656   2.603   4.700  13.028  1.4924 -0.1592 -0.5575
 6055TIP3    H239657   2.613   4.843  13.077 -2.8551 -0.0621  0.3859
 6056TIP3   OH239658   4.633   3.825  15.670 -0.0747 -0.1450 -0.1284
 6056TIP3    H139659   4.700   3.887  15.697 -0.0842  0.2071 -0.8635
 6056TIP3    H239660   4.664   3.740  15.701 -0.7247  0.3697  2.1043
 6057TIP3   OH239661   0.298   4.122   3.953 -0.4822  0.1822 -0.2052
 6057TIP3    H139662   0.322   4.059   4.022 -0.3034  0.3018 -0.1583
 6057TIP3    H239663   0.204   4.136   3.966 -0.4499  0.2062  0.0154
 6058TIP3   OH239664   4.699   0.463  16.724  0.1794  0.4834 -0.2532
 6058TIP3    H139665   4.726   0.376  16.752  1.6212  0.5636 -1.2687
 6058TIP3    H239666   4.681   0.454  16.630  0.9159  1.3787 -0.5004
 6059TIP3   OH239667   2.084   3.598   5.835  0.2483  0.0581 -0.4375
 6059TIP3    H139668   2.062   3.671   5.893  1.4768  0.5097 -0.5005
 6059TIP3    H239669   2.179   3.605   5.824  0.2538 -1.0197 -1.1692
 6060TIP3   OH239670   5.143   1.716   2.254 -0.2207  0.5896 -0.1847
 6060TIP3    H139671   5.092   1.682   2.328  0.5242 -0.1956 -0.0185
 6060TIP3    H239672   5.166   1.805   2.280  1.5570 -0.2399  1.3786
 6061TIP3   OH239673   3.959   4.552   0.277 -0.6920  0.2984 -0.1184
 6061TIP3    H139674   4.003   4.467   0.275 -1.5391 -0.1806  0.6842
 6061TIP3    H239675   4.030   4.616   0.276 -0.0343 -0.4180 -0.4313
 6062TIP3   OH239676   0.089   0.547   1.260 -0.2523 -0.7467  0.1946
 6062TIP3    H139677   0.067   0.568   1.351  0.4837  1.1983 -0.0108
 6062TIP3    H239678   0.012   0.574   1.210 -0.4258 -1.2629  0.1784
 6063TIP3   OH239679   2.042   5.919  12.223  0.2740  0.5041  0.3457
 6063TIP3    H139680   1.955   5.944  12.252  0.3716  0.2544  0.8790
 6063TIP3    H239681   2.062   5.977  12.150 -0.3578  0.5274  0.1937
 6064TIP3   OH239682   6.683   1.170   0.855  0.1813 -0.1473 -0.0795
 6064TIP3    H139683   6.743   1.100   0.880  2.4294  1.2456 -1.2479
 6064TIP3    H239684   6.721   1.250   0.893 -1.5456  0.6633  0.0558
 6065TIP3   OH239685   3.306   2.091   3.486  0.1170  0.0664 -0.4482
 6065TIP3    H139686   3.289   2.041   3.566 -0.6167 -0.7808 -1.1130
 6065TIP3    H239687   3.316   2.181   3.517  1.8341 -0.4989  0.8087
 6066TIP3   OH239688   1.482   2.660  14.836 -0.3964  0.3238 -0.0694
 6066TIP3    H139689   1.482   2.730  14.770  0.6859  1.7045  1.3031
 6066TIP3    H239690   1.448   2.703  14.915 -0.4679 -0.9417  0.6035
 6067TIP3   OH239691   6.737   0.819   1.736 -0.0869 -0.0661  0.3515
 6067TIP3    H139692   6.773   0.801   1.822  0.6147  0.9737  0.2927
 6067TIP3    H239693   6.642   0.808   1.747  0.1700 -2.5064  0.5854
 6068TIP3   OH239694   5.461   3.780   4.929  0.6489  0.1096 -0.2629
 6068TIP3    H139695   5.528   3.830   4.976 -0.8159  0.5986  1.4135
 6068TIP3    H239696   5.420   3.843   4.870  0.0497  0.4451  0.4967
 6069TIP3   OH239697   0.070   2.831  16.424 -0.6808  0.4531  0.1991
 6069TIP3    H139698   0.074   2.747  16.470 -2.8243  0.3597  0.3387
 6069TIP3    H239699   0.024   2.811  16.343 -1.3520  1.4948  0.3015
 6070TIP3   OH239700   1.003   1.686   6.414  0.1266 -1.0435  0.1503
 6070TIP3    H139701   0.931   1.727   6.366 -0.5891 -1.3428  0.9341
 6070TIP3    H239702   1.081   1.730   6.383 -0.4012 -0.6878 -0.6998
 6071TIP3   OH239703   5.530   3.157  11.614  0.0204  0.3331 -0.8989
 6071TIP3    H139704   5.487   3.189  11.535 -0.7527 -0.7299 -0.9272
 6071TIP3    H239705   5.473   3.185  11.685  0.6078  1.1098 -0.7271
 6072TIP3   OH239706   5.303   1.610  11.301 -0.3596 -0.5935  0.2247
 6072TIP3    H139707   5.365   1.652  11.241 -1.2409 -0.8698 -0.9358
 6072TIP3    H239708   5.353   1.540  11.343  0.0398 -1.0277 -0.9371
 6073TIP3   OH239709   1.030   5.349  15.734  0.2170  0.0081  0.0828
 6073TIP3    H139710   1.118   5.384  15.722  1.1921 -1.6503  1.8243
 6073TIP3    H239711   1.014   5.358  15.828 -0.8497 -1.1161  0.0255
 6074TIP3   OH239712   2.753   6.202  11.946  0.7375 -0.5724 -0.4213
 6074TIP3    H139713   2.773   6.290  11.914 -0.2645  0.1617  0.8633
 6074TIP3    H239714   2.808   6.192  12.023 -0.7863 -0.1477  0.7548
 6075TIP3   OH239715   3.280   0.524  13.169 -0.1324  0.5362 -0.0729
 6075TIP3    H139716   3.281   0.549  13.262 -1.1658  0.5240 -0.0571
 6075TIP3    H239717   3.329   0.442  13.166 -1.0603 -0.0639  0.6433
 6076TIP3   OH239718   0.276   2.448   2.625 -0.1292 -0.1877 -0.0218
 6076TIP3    H139719   0.266   2.453   2.530 -0.2940  1.6897  0.0463
 6076TIP3    H239720   0.363   2.409   2.638 -0.5792 -1.5321 -0.8948
 6077TIP3   OH239721   1.168   0.980  14.007 -0.1163 -0.4904  0.1604
 6077TIP3    H139722   1.243   0.941  14.052  0.8273  1.3500  0.2975
 6077TIP3    H239723   1.203   1.060  13.967 -1.8192 -0.0472 -0.5342
 6078TIP3   OH239724   1.766   0.083   3.492  0.3402 -0.0878 -0.6800
 6078TIP3    H139725   1.786  -0.008   3.514 -0.1047 -0.0204  0.0646
 6078TIP3    H239726   1.848   0.119   3.460  0.8194 -0.4422  0.1219
 6079TIP3   OH239727   4.320   4.326   3.845  0.1305 -0.9122  0.6961
 6079TIP3    H139728   4.343   4.385   3.774  0.5209 -0.7227  0.9784
 6079TIP3    H239729   4.250   4.272   3.809  0.4847 -0.9796  0.0859
 6080TIP3   OH239730   3.455   0.106   2.620 -0.0760  0.4899 -0.2322
 6080TIP3    H139731   3.546   0.135   2.622  0.1941 -0.3268 -0.2793
 6080TIP3    H239732   3.451   0.035   2.685 -1.1650  1.8741  1.2819
 6081TIP3   OH239733   2.590   6.720  12.989 -0.3511  0.3260  0.1425
 6081TIP3    H139734   2.526   6.765  13.045  0.7001  1.6882  0.3166
 6081TIP3    H239735   2.545   6.708  12.906 -1.2294  0.1806  0.6241
 6082TIP3   OH239736   3.705   1.131  12.815 -0.5210  0.4183 -0.1553
 6082TIP3    H139737   3.680   1.200  12.877 -0.4322 -0.6749  1.1575
 6082TIP3    H239738   3.630   1.070  12.816 -0.2949  0.1286 -0.7276
 6083TIP3   OH239739   0.120   6.255   1.251  0.1378  0.3261 -0.0494
 6083TIP3    H139740   0.203   6.290   1.220  0.1132  0.2610 -0.1886
 6083TIP3    H239741   0.113   6.169   1.211 -0.0957  0.4169 -0.2107
 6084TIP3   OH239742   4.188   1.820  13.693  0.2931  0.8868 -0.8819
 6084TIP3    H139743   4.116   1.847  13.637 -0.3575  2.3734  0.6005
 6084TIP3    H239744   4.196   1.889  13.758  0.2246 -1.2894  1.6217
 6085TIP3   OH239745   1.920   3.876  16.872 -0.2854 -0.0412 -0.4168
 6085TIP3    H139746   1.827   3.856  16.874  0.0414 -1.7919 -0.6993
 6085TIP3    H239747   1.937   3.922  16.954 -1.2798 -0.2748 -0.0740
 6086TIP3   OH239748   0.503   6.621  11.131  0.5703 -0.4257  0.3051
 6086TIP3    H139749   0.468   6.538  11.099  1.1405 -0.5416 -0.0308
 6086TIP3    H239750   0.444   6.687  11.095 -1.1113 -0.7699  2.2423
 6087TIP3   OH239751   4.044   5.600  11.377 -0.3534 -0.3424 -0.1751
 6087TIP3    H139752   3.972   5.567  11.324 -0.5425 -0.5796  0.2222
 6087TIP3    H239753   4.047   5.542  11.453  2.2533 -2.3159 -1.6177
 6088TIP3   OH239754   3.640   5.619  15.037  0.0374 -0.2263 -0.3114
 6088TIP3    H139755   3.699   5.599  14.964  0.6716 -0.5780  0.2791
 6088TIP3    H239756   3.691   5.677  15.094  0.4603 -1.8165  1.0317
 6089TIP3   OH239757   2.755   0.638   1.091 -0.4330 -0.0229 -0.1930
 6089TIP3    H139758   2.670   0.614   1.127 -1.1261  1.8789 -0.4662
 6089TIP3    H239759   2.793   0.555   1.061 -1.5171 -1.1147  1.2953
 6090TIP3   OH239760   6.094   0.177   3.387  0.4472 -0.0798 -0.1104
 6090TIP3    H139761   6.104   0.135   3.473  0.4414 -0.6829 -0.4018
 6090TIP3    H239762   6.047   0.258   3.406 -0.9379 -0.9371  0.2670
 6091TIP3   OH239763   1.235   3.760   4.039 -0.1258 -0.1642  0.7122
 6091TIP3    H139764   1.287   3.726   4.112 -0.8203 -1.9505  0.4223
 6091TIP3    H239765   1.144   3.750   4.068 -0.3822  0.8915  0.3359
 6092TIP3   OH239766   4.917   3.341  14.295  0.0891  0.3098 -0.5881
 6092TIP3    H139767   4.853   3.333  14.366  1.9826 -0.9330  1.0948
 6092TIP3    H239768   4.869   3.383  14.224 -1.9795  1.3974  1.3314
 6093TIP3   OH239769   3.380   6.216  16.442 -0.5039  0.4716 -0.2240
 6093TIP3    H139770   3.335   6.267  16.508  0.8979 -1.2109  2.1803
 6093TIP3    H239771   3.457   6.268  16.420  1.4330 -0.7777  2.9183
 6094TIP3   OH239772   5.387   3.204  12.832 -0.3898 -0.1517 -0.7303
 6094TIP3    H139773   5.406   3.114  12.805  0.6225  0.2703 -1.4964
 6094TIP3    H239774   5.407   3.204  12.926  1.9701 -0.1816 -1.1574
 6095TIP3   OH239775   0.338   5.139   4.427 -0.2535 -0.1917  0.0438
 6095TIP3    H139776   0.337   5.043   4.422  3.8812 -0.4713  0.9961
 6095TIP3    H239777   0.276   5.160   4.496 -1.5523 -2.1128 -0.4563
 6096TIP3   OH239778   4.600   5.454   5.654 -0.4504  0.2237  0.0313
 6096TIP3    H139779   4.617   5.485   5.743  0.3100 -1.4059  0.4969
 6096TIP3    H239780   4.552   5.525   5.613  0.0353  1.4272  1.4363
 6097TIP3   OH239781   0.398   4.443   5.756  0.0410 -0.2511  0.0592
 6097TIP3    H139782   0.414   4.476   5.845 -1.2700  0.0818  0.1916
 6097TIP3    H239783   0.467   4.482   5.704  1.3849 -1.1723  1.0811
 6098TIP3   OH239784   0.791   6.517   1.256 -0.3653 -0.1796 -0.1119
 6098TIP3    H139785   0.817   6.437   1.301  3.2319 -0.0137 -1.5986
 6098TIP3    H239786   0.734   6.486   1.185 -0.2910 -1.2485  0.2748
 6099TIP3   OH239787   4.016   6.237   0.095 -0.0593  0.1073  0.1679
 6099TIP3    H139788   4.076   6.302   0.058  0.2554  0.0476  0.5540
 6099TIP3    H239789   3.978   6.192   0.019  0.9594 -0.3681 -0.0798
 6100TIP3   OH239790   1.992   0.821  11.444 -0.0661  0.0303 -0.1430
 6100TIP3    H139791   2.019   0.848  11.531  1.0240  0.0238 -0.4723
 6100TIP3    H239792   1.896   0.830  11.445 -0.3032 -1.8611  1.6899
 6101TIP3   OH239793   1.457   3.823  13.272 -0.2224  0.0649 -0.1300
 6101TIP3    H139794   1.527   3.806  13.210  1.1294  1.3855  0.9544
 6101TIP3    H239795   1.453   3.918  13.278 -1.0640 -0.0196  0.9806
 6102TIP3   OH239796   2.924   5.597   1.889 -0.0960 -0.1010  0.1519
 6102TIP3    H139797   3.011   5.628   1.912 -0.6493  3.2069 -1.5695
 6102TIP3    H239798   2.879   5.586   1.973  1.4298 -0.1438  0.9960
 6103TIP3   OH239799   2.730   2.951   4.373 -0.2790 -0.0736  0.2966
 6103TIP3    H139800   2.789   3.008   4.323 -2.8902  3.0733  0.5201
 6103TIP3    H239801   2.680   2.904   4.306 -0.8845  0.9987 -0.0262
 6104TIP3   OH239802   5.951   3.759  13.967 -0.0707 -0.2627 -0.1811
 6104TIP3    H139803   6.007   3.822  14.012  1.7200 -2.0178  0.1587
 6104TIP3    H239804   5.932   3.800  13.883  0.7129  0.8847  0.1746
 6105TIP3   OH239805   5.299   5.094  15.319 -0.4113 -0.4119 -0.4363
 6105TIP3    H139806   5.247   5.160  15.274 -1.6895 -0.5834  0.7208
 6105TIP3    H239807   5.235   5.027  15.344  0.7651 -1.8545 -1.1411
 6106TIP3   OH239808   3.557   2.550   3.332 -0.0312 -0.1988  0.3968
 6106TIP3    H139809   3.535   2.529   3.423  1.0432  0.5609  0.8365
 6106TIP3    H239810   3.638   2.502   3.315  1.0008  1.4264  0.5708
 6107TIP3   OH239811   6.860   3.700  13.811  0.5704 -0.0395  0.0087
 6107TIP3    H139812   6.827   3.611  13.798  0.2514  0.0381  0.2652
 6107TIP3    H239813   6.798   3.755  13.764  1.2099 -0.0049 -0.8268
 6108TIP3   OH239814   5.710   6.402   6.323  0.0842  0.2183 -0.0426
 6108TIP3    H139815   5.782   6.457   6.292 -2.0973  2.3970 -1.5803
 6108TIP3    H239816   5.634   6.430   6.272 -2.1996 -0.9879  2.4451
 6109TIP3   OH239817   6.877   3.866   3.980 -0.3650 -0.3570 -0.4666
 6109TIP3    H139818   6.849   3.853   4.070  0.0518 -2.6910 -0.6197
 6109TIP3    H239819   6.886   3.961   3.971 -1.7213  0.0145  1.5172
 6110TIP3   OH239820   1.423   4.268   5.343 -0.3956 -0.1518 -0.3418
 6110TIP3    H139821   1.504   4.217   5.333  0.1721  0.0977  2.3609
 6110TIP3    H239822   1.447   4.342   5.399 -1.9409  1.4094 -1.6139
 6111TIP3   OH239823   2.256   1.659   6.016  0.5106  0.2369 -0.1355
 6111TIP3    H139824   2.346   1.689   6.035 -0.1671  1.8735  0.7567
 6111TIP3    H239825   2.200   1.726   6.056 -1.1233 -0.8074 -0.5804
 6112TIP3   OH239826   4.219   6.284  11.339 -0.1504 -0.0679  0.2281
 6112TIP3    H139827   4.230   6.373  11.373  0.1891 -0.2251  0.5404
 6112TIP3    H239828   4.278   6.280  11.264  0.7645 -0.4128  0.9540
 6113TIP3   OH239829   6.073   3.028   0.103 -0.0110 -0.4863 -0.1470
 6113TIP3    H139830   6.128   3.103   0.084  0.1922 -0.5119  0.3275
 6113TIP3    H239831   6.122   2.953   0.070 -0.9992 -0.2736 -2.2511
 6114TIP3   OH239832   3.060   5.192  13.230  0.2630 -0.4586 -0.2737
 6114TIP3    H139833   3.004   5.260  13.267  0.9447  0.1204 -0.2844
 6114TIP3    H239834   3.033   5.112  13.276 -2.3841 -0.7519 -2.1031
 6115TIP3   OH239835   2.307   6.088  16.604 -0.1607  0.3845 -0.5631
 6115TIP3    H139836   2.253   6.013  16.629  1.9533 -0.9069  0.4147
 6115TIP3    H239837   2.270   6.117  16.521 -1.6530 -1.1332 -0.4842
 6116TIP3   OH239838   0.307   1.390  14.609 -0.0136  0.5148 -0.3599
 6116TIP3    H139839   0.375   1.330  14.639  0.9470  0.3587 -2.5734
 6116TIP3    H239840   0.225   1.354  14.642  0.6579 -1.3274 -0.5747
 6117TIP3   OH239841   4.264   4.163   5.792 -0.6015  0.2598  0.4380
 6117TIP3    H139842   4.336   4.194   5.737 -0.9057 -0.7442 -0.5779
 6117TIP3    H239843   4.284   4.196   5.880  0.5432  0.8682 -0.0348
 6118TIP3   OH239844   1.072   1.067   3.716  0.3518  0.2241  0.5828
 6118TIP3    H139845   1.096   1.035   3.803  1.4101 -1.3678 -0.2501
 6118TIP3    H239846   1.022   0.996   3.677  0.1232  0.8039 -0.2122
 6119TIP3   OH239847   0.752   5.928   3.978  0.3372  0.1128 -0.0526
 6119TIP3    H139848   0.660   5.925   3.951  0.3214  1.2742 -0.1775
 6119TIP3    H239849   0.764   5.849   4.030 -0.8156  0.1011  0.2224
 6120TIP3   OH239850   6.721   6.014   6.264  0.4819  0.2419 -0.5890
 6120TIP3    H139851   6.803   5.966   6.277  0.5952  0.5680 -0.0725
 6120TIP3    H239852   6.729   6.052   6.177  0.4064 -0.6352 -0.9923
 6121TIP3   OH239853   3.349   6.007  12.262  0.1852  0.2272  0.2711
 6121TIP3    H139854   3.286   5.996  12.333  1.4278  2.5386  1.8569
 6121TIP3    H239855   3.305   6.066  12.200  0.2598  0.7545  0.7108
 6122TIP3   OH239856   5.329   6.658  11.025  0.8301 -0.1202  0.2933
 6122TIP3    H139857   5.347   6.571  10.989  1.3838  0.6971 -1.5325
 6122TIP3    H239858   5.288   6.641  11.110  0.2592 -2.1592 -0.3370
 6123TIP3   OH239859   1.755   2.961   5.683 -0.0569  0.3683  0.5785
 6123TIP3    H139860   1.845   2.985   5.661  0.3136 -2.3681 -1.5409
 6123TIP3    H239861   1.746   2.982   5.776  2.8429  0.5232  0.9190
 6124TIP3   OH239862   4.121   3.201   2.002 -0.2334 -0.1798 -0.3098
 6124TIP3    H139863   4.189   3.214   2.068 -1.1919 -1.4494  0.9963
 6124TIP3    H239864   4.084   3.288   1.988  2.7767  0.9422 -2.4426
 6125TIP3   OH239865   5.729   0.833   2.201  0.7273  0.8529  0.5175
 6125TIP3    H139866   5.790   0.906   2.185  0.0381  1.7370  1.8063
 6125TIP3    H239867   5.658   0.872   2.252 -0.6078 -0.3144 -0.3874
 6126TIP3   OH239868   3.860   4.956   1.292  0.0281  0.1851 -0.0671
 6126TIP3    H139869   3.901   5.030   1.248  1.7496 -0.6743 -0.0053
 6126TIP3    H239870   3.770   4.985   1.311  0.5555  2.1019 -0.3370
 6127TIP3   OH239871   1.920   2.342   5.324 -0.1433  0.9907  0.5520
 6127TIP3    H139872   1.897   2.319   5.414  1.5191  0.1606  0.8064
 6127TIP3    H239873   1.855   2.297   5.271  0.4347 -0.7721  1.2539
 6128TIP3   OH239874   2.628   5.599   1.960  0.0419  0.4188 -0.3159
 6128TIP3    H139875   2.655   5.573   2.049 -1.4875 -1.6531 -0.3898
 6128TIP3    H239876   2.673   5.537   1.903 -1.5721 -0.4242 -0.7158
 6129TIP3   OH239877   1.530   6.379  14.424 -0.4990  0.4566 -0.1281
 6129TIP3    H139878   1.573   6.319  14.485  0.0116  1.7077  0.7812
 6129TIP3    H239879   1.593   6.390  14.353 -0.6751 -0.2145 -0.3975
 6130TIP3   OH239880   4.038   4.309   5.478  0.3570  0.1704  0.0285
 6130TIP3    H139881   4.016   4.366   5.552 -1.0823  0.5371 -0.6334
 6130TIP3    H239882   3.953   4.292   5.436  1.1982  0.3455 -1.8055
 6131TIP3   OH239883   2.674   4.781   3.304  0.2027 -0.3919 -0.4143
 6131TIP3    H139884   2.633   4.840   3.241 -0.4662  0.6126  0.9128
 6131TIP3    H239885   2.604   4.758   3.364  0.9863 -0.7437  0.3833
 6132TIP3   OH239886   0.321   3.284   1.051 -0.3827 -0.8658 -0.4202
 6132TIP3    H139887   0.257   3.253   0.987  3.8541 -4.0856 -3.7940
 6132TIP3    H239888   0.306   3.230   1.128 -3.4799  0.7036  0.2204
 6133TIP3   OH239889   2.322   4.975  16.725  0.7433  0.5741  0.0814
 6133TIP3    H139890   2.376   4.910  16.769 -3.4045 -0.6538  4.0078
 6133TIP3    H239891   2.333   5.055  16.777  1.1497  1.3517 -1.1218
 6134TIP3   OH239892   1.932   1.400   5.475  0.6085 -0.3706  0.2978
 6134TIP3    H139893   1.975   1.320   5.443  0.6063  0.5139 -2.1926
 6134TIP3    H239894   1.846   1.400   5.433  0.9813  1.3730 -0.5808
 6135TIP3   OH239895   3.766   3.650   0.958 -0.0208  0.1354 -0.7578
 6135TIP3    H139896   3.718   3.595   0.895 -1.3661 -0.3819  0.6463
 6135TIP3    H239897   3.794   3.726   0.907 -1.7821  0.1352 -1.8265
 6136TIP3   OH239898   2.559   3.169   2.623  0.0911 -0.0551  0.3662
 6136TIP3    H139899   2.608   3.168   2.705  1.5624 -0.2228 -0.4582
 6136TIP3    H239900   2.489   3.106   2.635  0.2861 -0.0722  1.4879
 6137TIP3   OH239901   4.603   5.883  15.247 -0.3043 -0.0875  0.1558
 6137TIP3    H139902   4.566   5.799  15.221 -0.4118  0.1752 -0.5519
 6137TIP3    H239903   4.618   5.874  15.341 -0.0653 -0.9914  0.0471
 6138TIP3   OH239904   0.578   2.641  16.843  0.0821  0.7585 -0.8712
 6138TIP3    H139905   0.578   2.579  16.916  3.1505 -0.1344 -1.4943
 6138TIP3    H239906   0.585   2.727  16.885  0.3513  0.3521 -0.0627
 6139TIP3   OH239907   1.604   5.276  15.405  0.2214  0.1409 -0.0216
 6139TIP3    H139908   1.562   5.197  15.438  1.0793  0.6954  2.6838
 6139TIP3    H239909   1.656   5.247  15.330  0.2257 -1.7837  0.6837
 6140TIP3   OH239910   5.981   3.990  13.778  0.4251 -0.4454 -0.0756
 6140TIP3    H139911   5.906   4.035  13.818  1.0281  0.3759  0.1726
 6140TIP3    H239912   6.048   3.990  13.847  0.5494 -1.4501 -0.1873
 6141TIP3   OH239913   4.761   4.728   0.941 -0.3999  0.2009 -0.1154
 6141TIP3    H139914   4.674   4.736   0.902 -0.1574 -1.0755 -0.9818
 6141TIP3    H239915   4.779   4.815   0.978 -2.0860  0.4534  0.2120
 6142TIP3   OH239916   4.286   1.628  12.836 -0.5317  0.4295  0.2267
 6142TIP3    H139917   4.321   1.547  12.874  0.2924 -0.0618 -1.4569
 6142TIP3    H239918   4.217   1.597  12.776 -0.3476  0.9803 -0.2745
 6143TIP3   OH239919   5.524   4.335  10.725 -0.0971  0.3965  0.5568
 6143TIP3    H139920   5.460   4.314  10.657  0.2161  0.1195  0.3438
 6143TIP3    H239921   5.578   4.256  10.732 -0.0090  0.4931  0.9947
 6144TIP3   OH239922   6.194   0.562  16.182 -0.1169  0.2423  0.0689
 6144TIP3    H139923   6.175   0.474  16.150  0.7724  0.0422  0.0693
 6144TIP3    H239924   6.145   0.569  16.264 -2.7324  0.8891 -1.4278
 6145TIP3   OH239925   4.985   3.988   1.597 -0.1381 -0.2095 -0.0778
 6145TIP3    H139926   5.001   3.894   1.603  2.6005  0.1303 -0.7016
 6145TIP3    H239927   5.039   4.026   1.666  2.9838  1.1375 -2.9281
 6146TIP3   OH239928   2.159   2.964  13.219 -0.0279 -0.4260 -0.3654
 6146TIP3    H139929   2.092   3.028  13.195 -0.8490 -0.8662  0.6847
 6146TIP3    H239930   2.227   3.016  13.262 -0.2441 -0.1294 -0.3728
 6147TIP3   OH239931   2.552   2.106   0.704 -0.1173 -0.3090 -0.1689
 6147TIP3    H139932   2.537   2.188   0.657 -1.6050  1.1850  2.6406
 6147TIP3    H239933   2.468   2.061   0.702 -0.0688 -0.4550  0.5744
 6148TIP3   OH239934   3.388   5.328  16.773 -0.0399 -0.3925 -0.0027
 6148TIP3    H139935   3.363   5.420  16.775 -0.4570 -0.5211  0.9950
 6148TIP3    H239936   3.378   5.297  16.863 -1.1842 -1.7492 -0.5517
 6149TIP3   OH239937   3.343   0.015   5.502 -0.6415 -0.2276  0.0559
 6149TIP3    H139938   3.336  -0.068   5.454  1.4402 -0.2294 -0.3782
 6149TIP3    H239939   3.417   0.001   5.562 -1.2751  0.8004  1.1008
 6150TIP3   OH239940   0.464   6.457  13.214 -0.0432  0.0953  0.2324
 6150TIP3    H139941   0.456   6.538  13.265  3.1661  0.9922 -0.4442
 6150TIP3    H239942   0.489   6.486  13.126  0.7282 -1.6015 -0.1611
 6151TIP3   OH239943   4.636   3.077  15.036 -0.0190  0.0265  0.0803
 6151TIP3    H139944   4.694   3.145  15.003  2.3076 -1.9120 -0.1428
 6151TIP3    H239945   4.554   3.122  15.055  1.3709  2.8392 -0.0854
 6152TIP3   OH239946   1.112   1.900  11.643 -0.3948  0.3782 -0.0856
 6152TIP3    H139947   1.195   1.948  11.636 -1.3220  2.3762  1.6342
 6152TIP3    H239948   1.091   1.876  11.553  1.4215  0.9030 -0.7049
 6153TIP3   OH239949   1.644   6.839  13.458  0.0889 -0.4201  0.1915
 6153TIP3    H139950   1.671   6.919  13.413  0.1201  0.6484  1.9858
 6153TIP3    H239951   1.651   6.861  13.551 -3.6181 -1.2313  0.8112
 6154TIP3   OH239952   0.745   0.353   5.706 -0.0984  0.3332  0.4277
 6154TIP3    H139953   0.770   0.301   5.782  1.4487  0.3362 -0.0467
 6154TIP3    H239954   0.720   0.289   5.639 -1.3296  0.3272  0.8672
 6155TIP3   OH239955   6.348   0.185   3.178  0.4106  0.0237 -0.7083
 6155TIP3    H139956   6.328   0.140   3.096 -0.1399  1.2959 -1.3020
 6155TIP3    H239957   6.263   0.195   3.220  0.6426 -0.2633 -0.1615
 6156TIP3   OH239958   5.525   6.008   1.820  0.6844 -0.2905  0.0423
 6156TIP3    H139959   5.579   6.085   1.805 -0.4434  0.7026  0.8264
 6156TIP3    H239960   5.585   5.941   1.852  1.6929  0.2228 -0.7283
 6157TIP3   OH239961   0.701   6.215  13.834 -0.0579  0.4839 -0.6004
 6157TIP3    H139962   0.739   6.133  13.866  0.1768  0.8204 -0.0058
 6157TIP3    H239963   0.701   6.205  13.738  1.4261  0.4217 -0.6154
 6158TIP3   OH239964   1.716   1.701   4.982  0.0374 -0.0489 -0.1260
 6158TIP3    H139965   1.775   1.776   4.992 -0.9150  0.8768 -1.0755
 6158TIP3    H239966   1.703   1.668   5.070  1.8774 -0.2214  0.1154
 6159TIP3   OH239967   5.571   5.519  12.240  0.1300 -0.2276  0.1790
 6159TIP3    H139968   5.596   5.491  12.328 -1.4824  1.6733  1.2968
 6159TIP3    H239969   5.608   5.606  12.231 -0.8575  0.1361 -0.4970
 6160TIP3   OH239970   6.700   0.995   5.294 -0.5351 -0.1089 -1.3827
 6160TIP3    H139971   6.761   0.931   5.257 -0.2358 -0.3198 -0.5437
 6160TIP3    H239972   6.645   1.021   5.220  0.8247  0.3927 -2.2535
 6161TIP3   OH239973   6.391   5.249  13.260 -0.5817  0.1375 -0.4761
 6161TIP3    H139974   6.355   5.161  13.251  1.0370 -0.4800 -1.2484
 6161TIP3    H239975   6.326   5.296  13.313 -1.3515 -1.5730  0.1689
 6162TIP3   OH239976   0.452   0.196  13.613  0.4265  0.4149 -0.0013
 6162TIP3    H139977   0.454   0.106  13.580  0.3415  1.1920 -2.2625
 6162TIP3    H239978   0.538   0.208  13.654  0.1061 -0.9413  1.1689
 6163TIP3   OH239979   6.557   0.332  16.144 -0.0622  0.2022  0.4740
 6163TIP3    H139980   6.467   0.299  16.150  0.4078 -0.8747  2.2703
 6163TIP3    H239981   6.602   0.268  16.089 -0.2375  0.3875  0.1131
 6164TIP3   OH239982   0.429   2.384  14.161  0.1605  0.2717  0.6202
 6164TIP3    H139983   0.389   2.452  14.215 -1.2237  1.4096 -1.6840
 6164TIP3    H239984   0.358   2.322  14.144  0.7770 -0.4702  0.6814
 6165TIP3   OH239985   4.645   5.721   5.081 -0.5454  0.4646  0.1207
 6165TIP3    H139986   4.631   5.655   5.149  0.1849  0.4795  0.3004
 6165TIP3    H239987   4.690   5.792   5.127 -0.0299  0.4669 -0.3868
 6166TIP3   OH239988   0.599   1.995  15.760  0.2572 -0.6753 -0.0304
 6166TIP3    H139989   0.562   2.081  15.778  1.1097 -0.6509  1.8448
 6166TIP3    H239990   0.690   2.012  15.735  0.2461 -0.9876 -0.2941
 6167TIP3   OH239991   3.012   0.565  10.987  0.4177  0.2261 -0.1713
 6167TIP3    H139992   3.107   0.564  10.975  0.3920  0.7720 -0.4945
 6167TIP3    H239993   2.999   0.547  11.080  0.9723  2.4790  0.4031
 6168TIP3   OH239994   0.373   4.933  13.077  0.0739 -0.1868  0.2893
 6168TIP3    H139995   0.367   4.849  13.032 -1.9155  0.3530 -0.5938
 6168TIP3    H239996   0.321   4.921  13.157  0.0654  0.0977  0.3289
 6169TIP3   OH239997   3.473   2.324   2.161 -0.4511 -0.4229  0.4605
 6169TIP3    H139998   3.542   2.352   2.101 -0.5828  1.1217  1.0033
 6169TIP3    H239999   3.509   2.246   2.204  1.2502  0.7468  1.2459
 6170TIP3   OH240000   1.829   6.782   2.372 -0.3515 -0.0475  0.3383
 6170TIP3    H140001   1.758   6.754   2.315  0.9213 -1.5712 -0.5973
 6170TIP3    H240002   1.815   6.876   2.383 -0.0562  0.6122 -3.4713
 6171TIP3   OH240003   5.217   6.622   1.628 -0.8715 -0.5001 -0.4013
 6171TIP3    H140004   5.304   6.583   1.639 -0.7463 -0.2355 -0.4532
 6171TIP3    H240005   5.163   6.551   1.594 -0.8586 -0.8719  0.3373
 6172TIP3   OH240006   5.761   5.260  15.595 -0.0139 -0.1121 -0.9218
 6172TIP3    H140007   5.735   5.189  15.653 -1.4667 -1.0041 -2.5508
 6172TIP3    H240008   5.734   5.340  15.640  0.8609 -0.6046  0.5494
 6173TIP3   OH240009   1.960   4.737  14.815  0.2280 -0.5573  0.1712
 6173TIP3    H140010   2.049   4.713  14.841  0.1448 -2.0470 -0.7938
 6173TIP3    H240011   1.905   4.710  14.889  0.4414 -0.7977  0.2429
 6174TIP3   OH240012   4.821   4.424  14.428  0.1284 -0.0059  0.0003
 6174TIP3    H140013   4.856   4.478  14.357  0.7919 -1.2301 -0.6227
 6174TIP3    H240014   4.899   4.392  14.474 -0.2613 -0.4687  0.3444
 6175TIP3   OH240015   6.781   0.763  16.483  0.3494  0.2272 -0.0231
 6175TIP3    H140016   6.855   0.746  16.540 -0.0826  0.4612  0.6191
 6175TIP3    H240017   6.725   0.686  16.492 -0.7310  1.1306  1.4992
 6176TIP3   OH240018   5.676   1.132  11.007  0.2780 -0.2111 -0.0619
 6176TIP3    H140019   5.743   1.186  10.964  0.4974 -0.7313 -0.3781
 6176TIP3    H240020   5.629   1.090  10.935  1.5165 -2.1446  0.1982
 6177TIP3   OH240021   0.973   2.430  13.580 -0.2978 -0.1449  0.7259
 6177TIP3    H140022   1.044   2.396  13.635  0.0206  0.9038  0.9818
 6177TIP3    H240023   1.008   2.427  13.491  0.0265  0.2883  0.8424
 6178TIP3   OH240024   2.853   3.488   5.464  0.0107 -0.6327  0.3007
 6178TIP3    H140025   2.795   3.504   5.389  0.0179 -0.1421  0.3979
 6178TIP3    H240026   2.940   3.479   5.425  0.1205  0.3112  0.3061
 6179TIP3   OH240027   6.158   5.117   3.359  0.4462 -0.2635  0.3131
 6179TIP3    H140028   6.226   5.124   3.426  0.5491 -0.9937  0.2897
 6179TIP3    H240029   6.128   5.026   3.364  1.6329 -0.8303 -1.7298
 6180TIP3   OH240030   4.228   2.762   5.333 -0.0636 -0.0813  0.4081
 6180TIP3    H140031   4.194   2.674   5.319  1.4349 -0.4271 -1.5001
 6180TIP3    H240032   4.171   2.799   5.400 -2.6717 -1.4001 -0.9154
 6181TIP3   OH240033   0.692   2.388   1.427 -0.2526  0.8009  0.0235
 6181TIP3    H140034   0.678   2.413   1.336 -2.2864 -0.1187  0.0529
 6181TIP3    H240035   0.619   2.331   1.449  0.1259  1.0700  2.2705
 6182TIP3   OH240036   1.829   5.360  14.497 -0.3480  0.0495 -0.1815
 6182TIP3    H140037   1.814   5.444  14.453 -1.9396  0.2282  0.6184
 6182TIP3    H240038   1.770   5.299  14.452 -0.8585 -0.1096  0.6691
 6183TIP3   OH240039   5.730   4.899  11.586 -0.1552  0.3694 -0.4106
 6183TIP3    H140040   5.701   4.922  11.497  0.4783 -0.0155 -0.7204
 6183TIP3    H240041   5.707   4.807  11.596  0.9475  0.0547 -0.6624
 6184TIP3   OH240042   3.991   3.459   3.574  0.4117 -0.5082 -0.1848
 6184TIP3    H140043   3.928   3.386   3.573  1.2507 -1.2961 -2.3681
 6184TIP3    H240044   4.072   3.420   3.606  0.4958 -0.1642  0.0226
 6185TIP3   OH240045   4.152   6.135  14.904 -0.2284 -0.3124  0.8707
 6185TIP3    H140046   4.232   6.171  14.942 -0.3804  0.9863  0.0226
 6185TIP3    H240047   4.182   6.074  14.836  0.0589  0.5809  0.1815
 6186TIP3   OH240048   2.392   3.595  15.189 -0.6197  0.2109 -0.0881
 6186TIP3    H140049   2.308   3.555  15.213 -0.9856  0.9811 -0.0762
 6186TIP3    H240050   2.450   3.573  15.262 -1.5572  2.0090  1.2899
 6187TIP3   OH240051   3.989   3.743  13.493 -0.3162  0.2893 -0.4419
 6187TIP3    H140052   3.929   3.810  13.460 -1.4211 -0.4143  0.0794
 6187TIP3    H240053   4.059   3.792  13.537 -0.6043  1.1172 -0.8986
 6188TIP3   OH240054   1.166   4.068  16.011  0.4246  0.1511  0.4335
 6188TIP3    H140055   1.133   4.128  15.944  0.3853  1.4818  1.6119
 6188TIP3    H240056   1.242   4.026  15.969  0.6042  1.2025 -0.3321
 6189TIP3   OH240057   4.534   5.286  12.875 -0.0095 -0.2888 -0.2931
 6189TIP3    H140058   4.482   5.350  12.923 -0.6507 -0.3447 -0.8758
 6189TIP3    H240059   4.474   5.211  12.864  0.8346 -1.1307  0.6659
 6190TIP3   OH240060   4.202   2.046   5.004 -0.2620 -0.4312 -0.0806
 6190TIP3    H140061   4.266   1.995   5.053 -0.4452 -1.0802 -0.5035
 6190TIP3    H240062   4.252   2.087   4.934 -0.2373 -0.6007 -0.1619
 6191TIP3   OH240063   4.530   6.373  11.516  0.2586 -0.2975  0.1733
 6191TIP3    H140064   4.498   6.390  11.428  0.2209 -0.0852  0.2278
 6191TIP3    H240065   4.463   6.316  11.555 -0.1282  0.2603  0.3343
 6192TIP3   OH240066   0.167   3.409   2.392 -0.4976  0.2350  0.3067
 6192TIP3    H140067   0.243   3.357   2.417 -0.7301 -0.1147  0.3004
 6192TIP3    H240068   0.098   3.344   2.375 -1.2154  0.6032  1.6855
 6193TIP3   OH240069   3.654   1.380  15.615  0.0823 -0.1733  0.2106
 6193TIP3    H140070   3.560   1.399  15.616 -0.3184 -2.0367  0.2006
 6193TIP3    H240071   3.670   1.338  15.531  1.0093  0.3955  0.0771
 6194TIP3   OH240072   1.288   2.589   5.479 -0.1529 -0.0674 -0.6584
 6194TIP3    H140073   1.270   2.512   5.426 -1.3246  0.5316 -1.1777
 6194TIP3    H240074   1.259   2.565   5.567 -0.0154 -0.4058 -0.7073
 6195TIP3   OH240075   6.708   4.475   3.578 -0.6865  0.4608  0.1792
 6195TIP3    H140076   6.717   4.387   3.614 -0.2936  0.8960  1.2138
 6195TIP3    H240077   6.618   4.501   3.600 -1.0734  0.0310 -0.8411
 6196TIP3   OH240078   5.564   5.808   3.824  0.3402  0.3186 -0.5897
 6196TIP3    H140079   5.598   5.896   3.836 -1.0192  0.6442  1.4091
 6196TIP3    H240080   5.642   5.752   3.818  1.2106  1.5690 -1.5390
 6197TIP3   OH240081   3.558   0.942  15.590  0.0856 -0.7716 -0.1990
 6197TIP3    H140082   3.621   0.976  15.526 -2.6572  3.7004 -0.9393
 6197TIP3    H240083   3.586   0.978  15.673 -0.7106  0.1749 -0.3220
 6198TIP3   OH240084   3.489   5.246   3.579  0.1715  0.3052  0.2462
 6198TIP3    H140085   3.545   5.184   3.533 -1.3282 -1.2314  0.3775
 6198TIP3    H240086   3.531   5.331   3.566  1.9198 -0.6335 -0.5376
 6199TIP3   OH240087   1.009   1.212  15.724  0.7577  0.2635  0.7642
 6199TIP3    H140088   0.961   1.249  15.650 -0.2072 -0.7609  0.8505
 6199TIP3    H240089   0.941   1.172  15.778  1.5684  0.0578  1.6516
 6200TIP3   OH240090   2.209   2.217  15.597 -0.0244  0.4230 -0.4221
 6200TIP3    H140091   2.289   2.269  15.587 -0.2818  1.6059  2.5854
 6200TIP3    H240092   2.241   2.132  15.628  0.1174  1.0145  1.1460
 6201TIP3   OH240093   5.125   5.839   1.121 -0.9253  0.3777 -0.7715
 6201TIP3    H140094   5.162   5.899   1.185  0.5400  0.5561 -1.7269
 6201TIP3    H240095   5.037   5.872   1.106 -0.6815  1.3703 -0.1411
 6202TIP3   OH240096   6.193   6.838  16.694 -0.0276  0.1020 -0.8536
 6202TIP3    H140097   6.111   6.797  16.667 -0.1018 -0.3801  0.0451
 6202TIP3    H240098   6.201   6.816  16.787  1.3777 -0.3176 -1.0434
 6203TIP3   OH240099   2.277   0.800  12.808 -0.2738  0.3819  0.2495
 6203TIP3    H140100   2.274   0.705  12.798  1.3375  0.4082 -0.7529
 6203TIP3    H240101   2.226   0.817  12.887 -0.4388 -1.3294  0.5492
 6204TIP3   OH240102   5.037   4.521  14.719  0.6300 -0.7235 -0.3701
 6204TIP3    H140103   4.971   4.571  14.766  1.0942  2.1025 -2.4328
 6204TIP3    H240104   5.001   4.432  14.714 -2.3307  0.3580 -0.1764
 6205TIP3   OH240105   5.067   3.211   0.107  0.0676 -0.2321  0.0031
 6205TIP3    H140106   5.150   3.242   0.142  0.0303 -0.3978  0.2380
 6205TIP3    H240107   5.032   3.285   0.057 -0.0983  0.1481  0.6807
 6206TIP3   OH240108   1.326   5.771   5.106  0.1279 -0.1304 -0.2731
 6206TIP3    H140109   1.395   5.729   5.157 -2.1690 -3.0581  0.7312
 6206TIP3    H240110   1.334   5.734   5.018  0.3746  0.2126 -0.3950
 6207TIP3   OH240111   1.949   6.027   2.675 -0.1384  0.0635  0.6734
 6207TIP3    H140112   1.913   6.116   2.676 -2.3573 -0.7798  0.6280
 6207TIP3    H240113   1.964   6.006   2.767  0.0052  0.3160  0.7107
 6208TIP3   OH240114   1.357   2.860  16.501 -0.1963  0.5339 -0.6530
 6208TIP3    H140115   1.283   2.916  16.477 -0.7450  0.2997  0.4023
 6208TIP3    H240116   1.333   2.825  16.587  0.9385  0.0788 -0.5047
 6209TIP3   OH240117   5.270   1.632   4.582  0.2424  0.2408  0.3009
 6209TIP3    H140118   5.315   1.548   4.573 -0.0001 -0.0365  1.4587
 6209TIP3    H240119   5.185   1.610   4.618 -0.3770  0.8716 -0.7255
 6210TIP3   OH240120   5.551   6.450  15.940  0.2452  0.3719 -0.1757
 6210TIP3    H140121   5.478   6.495  15.982  1.2819  2.7065 -0.7334
 6210TIP3    H240122   5.530   6.451  15.847 -0.1617 -1.2226 -0.1302
 6211TIP3   OH240123   3.480   1.019   5.002  0.3035  0.0534  0.3233
 6211TIP3    H140124   3.553   1.023   4.941 -1.0857 -0.1009 -1.4548
 6211TIP3    H240125   3.503   1.078   5.073  1.5480  1.0603 -0.8748
 6212TIP3   OH240126   4.797   1.727   0.792  0.5528 -0.5481  0.1765
 6212TIP3    H140127   4.747   1.684   0.862 -0.2853 -0.7801 -0.5387
 6212TIP3    H240128   4.793   1.665   0.719 -0.4889  0.6346 -0.8063
 6213TIP3   OH240129   4.296   4.015   4.339  0.0999 -0.1322 -0.1282
 6213TIP3    H140130   4.381   4.056   4.353  0.6651 -1.4579  0.5530
 6213TIP3    H240131   4.280   3.965   4.419 -1.7386  0.7577  0.1302
 6214TIP3   OH240132   6.215   1.224   1.585 -1.0780 -0.4076  0.1434
 6214TIP3    H140133   6.153   1.248   1.653 -0.4804 -0.7091  0.8052
 6214TIP3    H240134   6.232   1.131   1.599  1.7287  0.2371  1.8464
 6215TIP3   OH240135   1.391   5.648   2.409  0.5145  0.3439 -0.4202
 6215TIP3    H140136   1.469   5.667   2.461 -0.3695 -0.0166  1.1165
 6215TIP3    H240137   1.384   5.553   2.409 -1.6869  0.3734  2.3664
 6216TIP3   OH240138   1.969   0.260   5.222  0.2822  0.1192 -0.2411
 6216TIP3    H140139   1.877   0.251   5.246  0.3571  0.5253  0.2163
 6216TIP3    H240140   1.975   0.221   5.136 -0.3000 -0.0131 -0.2267
 6217TIP3   OH240141   4.367   5.034   6.275  0.6547 -0.3035 -0.2270
 6217TIP3    H140142   4.388   5.059   6.365  0.4167 -0.4098 -0.1400
 6217TIP3    H240143   4.374   5.116   6.226  0.7331 -0.2344 -0.1022
 6218TIP3   OH240144   0.750   3.587   2.797  0.5545  0.1432 -0.1380
 6218TIP3    H140145   0.754   3.596   2.892  1.3250  1.1848 -0.2550
 6218TIP3    H240146   0.784   3.670   2.763  0.1778 -0.1632 -1.3269
 6219TIP3   OH240147   0.932   1.877  12.931 -0.1283 -0.1012 -0.1958
 6219TIP3    H140148   0.983   1.849  13.007 -1.1725  0.1450  0.6236
 6219TIP3    H240149   0.955   1.969  12.918  1.5263 -0.6387 -1.4288
 6220TIP3   OH240150   1.210   0.827   1.091 -0.3947 -0.3806  1.0424
 6220TIP3    H140151   1.141   0.822   1.157 -1.3174 -1.1673  0.0529
 6220TIP3    H240152   1.199   0.914   1.053 -1.3550 -0.7601  0.3901
 6221TIP3   OH240153   0.284   2.837   1.363  0.2014 -0.5581  0.5107
 6221TIP3    H140154   0.333   2.867   1.440  0.2240  1.9916 -0.3987
 6221TIP3    H240155   0.212   2.900   1.354  1.1143  0.2275 -2.4397
 6222TIP3   OH240156   4.873   1.504  13.051 -0.5953 -0.8754 -0.2475
 6222TIP3    H140157   4.787   1.547  13.050  0.7819  2.2679  2.1598
 6222TIP3    H240158   4.877   1.462  13.137  0.8452  0.4057  0.3414
 6223TIP3   OH240159   3.990   0.732   5.359 -0.1221  0.4648  0.0654
 6223TIP3    H140160   3.937   0.684   5.296  1.0273  0.2824 -0.8054
 6223TIP3    H240161   3.936   0.807   5.385 -2.3971 -1.7539  2.2623
 6224TIP3   OH240162   5.565   0.753  16.412 -0.3164 -0.0673 -0.3037
 6224TIP3    H140163   5.513   0.703  16.350  1.6741 -4.0731  0.8871
 6224TIP3    H240164   5.642   0.780  16.363 -0.4730  0.1047 -0.4587
 6225TIP3   OH240165   4.090   1.683   5.636 -0.3870  0.2270 -0.2460
 6225TIP3    H140166   4.057   1.718   5.719 -0.1116 -0.1025  0.0052
 6225TIP3    H240167   4.011   1.657   5.588 -0.4875 -1.1165  0.5954
 6226TIP3   OH240168   3.192   5.970  12.483  0.5364  0.1571 -0.5403
 6226TIP3    H140169   3.113   5.943  12.438  3.1774 -2.1574 -4.4309
 6226TIP3    H240170   3.205   5.904  12.552  0.9226 -1.7850 -2.3905
 6227TIP3   OH240171   0.548   2.318  10.532 -0.2343  0.0374 -0.3762
 6227TIP3    H140172   0.480   2.260  10.498  0.4497  0.4285 -2.5586
 6227TIP3    H240173   0.509   2.405  10.530  0.2578  0.2567 -1.5890
 6228TIP3   OH240174   2.500   2.721  14.198 -0.4321  0.0139  0.1756
 6228TIP3    H140175   2.480   2.795  14.256  0.3258  0.0780  0.3653
 6228TIP3    H240176   2.565   2.756  14.137 -0.3389 -0.3962  0.0394
 6229TIP3   OH240177   2.201   4.014   1.198  0.1619  0.1081 -0.0618
 6229TIP3    H140178   2.106   4.014   1.205  0.1493 -1.1649  0.1248
 6229TIP3    H240179   2.224   3.921   1.190  1.2592  0.4898 -1.9441
 6230TIP3   OH240180   1.971   4.153   0.444 -0.0223  0.8600 -0.0171
 6230TIP3    H140181   1.952   4.130   0.353 -0.9168 -0.0528  0.3702
 6230TIP3    H240182   1.973   4.248   0.445  1.9589  0.8933 -1.3523
 6231TIP3   OH240183   3.129   0.437   5.207  0.5768  0.0886 -0.1004
 6231TIP3    H140184   3.204   0.479   5.164  1.6685 -0.9344  0.7407
 6231TIP3    H240185   3.168   0.383   5.276 -0.8168 -1.7505 -0.6717
 6232TIP3   OH240186   1.403   0.506  15.917  0.4756 -0.0530 -0.2151
 6232TIP3    H140187   1.445   0.558  15.849  1.8786  2.0061  2.0524
 6232TIP3    H240188   1.436   0.417  15.902  1.3858  0.4910 -1.7186
 6233TIP3   OH240189   4.340   6.315   4.192  0.2900  0.4359 -0.3840
 6233TIP3    H140190   4.421   6.353   4.228  1.0233 -1.0557 -0.3569
 6233TIP3    H240191   4.311   6.378   4.127  0.7616  1.6264  0.5164
 6234TIP3   OH240192   4.990   4.774  13.196 -0.4359  0.2175 -0.1468
 6234TIP3    H140193   5.040   4.737  13.124  0.8097 -2.2469  1.8198
 6234TIP3    H240194   4.907   4.728  13.194  0.5255 -1.7308  1.3551
 6235TIP3   OH240195   6.708   5.619  16.714  0.1000  0.0571  0.0334
 6235TIP3    H140196   6.749   5.692  16.667  1.1420  0.7445  1.8797
 6235TIP3    H240197   6.664   5.660  16.788 -0.1763 -1.0974  0.5298
 6236TIP3   OH240198   4.404   5.237   2.266 -0.6420 -0.4862  0.0169
 6236TIP3    H140199   4.323   5.284   2.244  0.4154  0.8068 -1.3296
 6236TIP3    H240200   4.438   5.283   2.342  0.9424  1.8078 -1.9204
 6237TIP3   OH240201   2.656   1.895  13.991 -0.3916 -0.0428  0.0278
 6237TIP3    H140202   2.637   1.802  14.003  0.7460 -0.1562  1.2059
 6237TIP3    H240203   2.670   1.905  13.897 -2.7073 -0.6015 -0.4170
 6238TIP3   OH240204   4.839   0.997  15.807 -0.4310  0.0307 -0.3090
 6238TIP3    H140205   4.876   0.996  15.895  2.2380 -1.9626 -1.2948
 6238TIP3    H240206   4.851   1.087  15.776 -0.8467  0.5969  1.1003
 6239TIP3   OH240207   2.899   5.448  15.908  0.8853  0.3588 -0.3002
 6239TIP3    H140208   2.918   5.541  15.897  0.0796  0.3521 -2.0640
 6239TIP3    H240209   2.836   5.428  15.839  1.7716 -1.7125 -0.5877
 6240TIP3   OH240210   4.601   5.222   5.487  0.0387  0.8038 -0.4026
 6240TIP3    H140211   4.593   5.305   5.533  0.0172 -0.3531  1.8221
 6240TIP3    H240212   4.655   5.168   5.544  2.3010  0.0818 -3.0252
 6241TIP3   OH240213   4.720   6.191  13.964  0.4320 -1.0364 -0.1505
 6241TIP3    H140214   4.798   6.151  13.925  0.1555 -1.1510 -0.6010
 6241TIP3    H240215   4.698   6.264  13.905  0.4312 -0.7590  0.1919
 6242TIP3   OH240216   6.283   4.440   4.494  0.4221  0.6637  0.2974
 6242TIP3    H140217   6.218   4.464   4.427  0.7924  0.2252 -0.2206
 6242TIP3    H240218   6.231   4.408   4.567 -0.0130  1.5880  0.4058
 6243TIP3   OH240219   2.508   2.566   3.963  0.7730 -0.3677  0.2900
 6243TIP3    H140220   2.517   2.482   4.007 -0.6346 -1.3099 -1.1204
 6243TIP3    H240221   2.417   2.592   3.978  0.8838  0.3691 -0.2212
 6244TIP3   OH240222   6.142   1.750  12.459 -0.1352 -0.4182 -0.0704
 6244TIP3    H140223   6.102   1.718  12.378  0.3178 -0.7920 -0.1510
 6244TIP3    H240224   6.080   1.815  12.492 -1.2224 -1.5602  0.2471
 6245TIP3   OH240225   6.103   0.539   4.721  0.1283  0.1079 -0.7868
 6245TIP3    H140226   6.048   0.588   4.781 -0.1036 -2.2824  1.1099
 6245TIP3    H240227   6.048   0.466   4.692  1.9195 -1.8632  0.4881
 6246TIP3   OH240228   6.212   0.952  12.162 -0.0715  0.4851 -0.6917
 6246TIP3    H140229   6.298   0.964  12.201 -0.3458  1.5110 -0.3580
 6246TIP3    H240230   6.153   0.943  12.237 -0.0143 -2.4473 -0.9060
 6247TIP3   OH240231   6.108   2.668   3.488 -0.5560  0.2541 -0.8797
 6247TIP3    H140232   6.103   2.756   3.524 -1.0811  0.2507 -0.9364
 6247TIP3    H240233   6.161   2.677   3.409 -0.2804  0.4459 -0.6758
 6248TIP3   OH240234   1.070   2.786  15.721  0.1116  0.2130 -0.6575
 6248TIP3    H140235   1.146   2.837  15.748  0.0176 -0.5669  1.2634
 6248TIP3    H240236   0.996   2.846  15.730  0.3742  0.7158 -1.7055
 6249TIP3   OH240237   3.046   4.331  12.265 -0.4122 -0.3136  0.4796
 6249TIP3    H140238   3.026   4.338  12.358 -1.6500 -2.6428  0.4610
 6249TIP3    H240239   2.963   4.308  12.224  0.4454 -0.9843 -0.9739
 6250TIP3   OH240240   4.160   2.448   1.676 -0.1362 -0.0453  0.3182
 6250TIP3    H140241   4.188   2.517   1.736  2.2581 -0.1860 -0.5419
 6250TIP3    H240242   4.154   2.492   1.591  1.0271 -0.7643 -0.1585
 6251TIP3   OH240243   6.470   5.403   4.776 -0.9220 -0.6289 -0.3942
 6251TIP3    H140244   6.376   5.385   4.768 -0.2700 -4.8018 -0.9752
 6251TIP3    H240245   6.490   5.457   4.700 -2.6171 -0.9389 -1.1219
 6252TIP3   OH240246   1.601   2.800   6.632 -0.1206  0.1314 -1.0296
 6252TIP3    H140247   1.609   2.805   6.537  0.2023 -0.3374 -1.0276
 6252TIP3    H240248   1.685   2.765   6.661 -1.1552 -2.2700 -0.7803
 6253TIP3   OH240249   2.511   3.599   3.651  0.1190  0.1948 -0.1166
 6253TIP3    H140250   2.521   3.527   3.589  0.1470 -0.0500  0.1696
 6253TIP3    H240251   2.481   3.558   3.732 -2.2458  0.7513 -0.6171
 6254TIP3   OH240252   3.668   0.976   3.233 -0.0601 -0.0027 -0.1562
 6254TIP3    H140253   3.657   1.067   3.205 -2.8689 -0.5203 -1.0599
 6254TIP3    H240254   3.681   0.928   3.151 -0.5747 -0.6388  0.1295
 6255TIP3   OH240255   6.276   1.259  13.582  0.2683 -0.5063  0.3786
 6255TIP3    H140256   6.282   1.325  13.651  0.5784 -1.1819  1.0081
 6255TIP3    H240257   6.194   1.279  13.537 -0.1838 -0.3453  1.2486
 6256TIP3   OH240258   3.825   3.779   1.209  0.3576  0.0098  0.6415
 6256TIP3    H140259   3.913   3.816   1.198 -0.1524  1.1348  0.2147
 6256TIP3    H240260   3.820   3.709   1.145  0.3614  1.0480 -0.5195
 6257TIP3   OH240261   1.241   2.741  11.111 -0.7654 -0.1642 -0.2457
 6257TIP3    H140262   1.183   2.812  11.083 -2.0054 -1.5708 -1.3833
 6257TIP3    H240263   1.280   2.773  11.192 -1.0917  1.9059 -0.8391
 6258TIP3   OH240264   4.873   4.448   0.334  0.0856 -0.3436 -0.3244
 6258TIP3    H140265   4.899   4.403   0.253  0.6016  0.1257 -0.4178
 6258TIP3    H240266   4.838   4.532   0.304  1.5657  0.4174  0.0273
 6259TIP3   OH240267   0.582   6.476   4.797 -0.6578 -0.2894  0.1243
 6259TIP3    H140268   0.523   6.551   4.784  1.0817  1.3665  1.1669
 6259TIP3    H240269   0.651   6.510   4.854  1.4451 -2.0452 -1.2342
 6260TIP3   OH240270   3.390   4.518   1.258 -0.3997 -0.1842 -0.0402
 6260TIP3    H140271   3.437   4.507   1.176  0.7092 -1.0283  0.6722
 6260TIP3    H240272   3.343   4.435   1.270 -0.0959 -0.2903  0.4475
 6261TIP3   OH240273   1.875   1.577   3.126 -0.2274  0.1749  0.6082
 6261TIP3    H140274   1.830   1.641   3.070 -0.6397  0.1906  0.9532
 6261TIP3    H240275   1.933   1.629   3.181 -0.4789  0.2458  0.8095
 6262TIP3   OH240276   4.669   4.474  14.046  0.2843 -0.3862 -0.5257
 6262TIP3    H140277   4.696   4.382  14.049 -2.7801 -1.4147 -1.5348
 6262TIP3    H240278   4.733   4.515  13.987  0.8997 -2.1605 -1.1697
 6263TIP3   OH240279   0.549   1.356  15.107 -0.5211 -0.0306 -0.0955
 6263TIP3    H140280   0.634   1.355  15.150 -0.0274 -0.7632 -1.0372
 6263TIP3    H240281   0.531   1.449  15.092 -0.6980  0.2476  1.6102
 6264TIP3   OH240282   2.241   6.535  12.733 -0.1116  0.0656 -0.1167
 6264TIP3    H140283   2.335   6.550  12.724 -0.2825  1.5230  0.3224
 6264TIP3    H240284   2.233   6.441  12.750  1.2747 -0.0239  0.1271
 6265TIP3   OH240285   5.886   4.176   4.415  0.2202  0.2725 -1.0384
 6265TIP3    H140286   5.822   4.165   4.345  0.7421 -2.5221 -1.2140
 6265TIP3    H240287   5.970   4.149   4.376  0.8444  0.4494  0.1347
 6266TIP3   OH240288   4.009   6.822   0.533 -0.3199  0.1960  0.5100
 6266TIP3    H140289   4.009   6.816   0.437 -0.8016 -1.8616  0.5898
 6266TIP3    H240290   3.962   6.903   0.552 -0.1570  0.6629 -0.9936
 6267TIP3   OH240291   1.081   6.231  12.087  0.0667 -0.6739  0.1002
 6267TIP3    H140292   1.031   6.223  12.169 -0.5139  0.8578 -0.0610
 6267TIP3    H240293   1.122   6.146  12.075  0.0616 -0.9706  1.9291
 6268TIP3   OH240294   2.244   1.676  15.134 -0.0873 -0.1607 -0.2149
 6268TIP3    H140295   2.169   1.734  15.146  0.8532  1.2490 -0.8733
 6268TIP3    H240296   2.206   1.595  15.100 -1.2526  0.8030 -1.3261
 6269TIP3   OH240297   1.805   2.728  16.115  0.0268 -0.1026  0.0793
 6269TIP3    H140298   1.882   2.739  16.059 -0.0574 -3.2930 -0.8693
 6269TIP3    H240299   1.841   2.726  16.204  0.3091  3.6811  0.1967
 6270TIP3   OH240300   6.403   6.394  14.207  0.1090  0.8273 -0.3295
 6270TIP3    H140301   6.331   6.376  14.268  0.4280  0.0663 -0.1683
 6270TIP3    H240302   6.455   6.462  14.250  2.1231 -1.8526  1.8008
 6271TIP3   OH240303   1.218   5.029  16.088  0.3844 -0.3211 -0.3150
 6271TIP3    H140304   1.196   5.040  15.995 -0.5846 -1.1248 -0.2008
 6271TIP3    H240305   1.242   5.117  16.117 -0.1607  0.1129 -1.1249
 6272TIP3   OH240306   3.849   5.070   5.565  0.0485  0.1161  0.8509
 6272TIP3    H140307   3.780   5.116   5.614 -1.8181 -0.5183 -1.0279
 6272TIP3    H240308   3.858   5.121   5.484  1.6260  0.0210  0.9470
 6273TIP3   OH240309   0.906   3.852  14.489  0.2614  0.0900 -0.3005
 6273TIP3    H140310   0.879   3.926  14.433  1.1302  1.5655  1.1416
 6273TIP3    H240311   0.837   3.787  14.478 -0.5424  1.1159 -1.6219
 6274TIP3   OH240312   3.154   1.050   4.070 -0.2676 -0.7127  0.7397
 6274TIP3    H140313   3.177   1.031   3.979  0.5807  1.4478  0.4329
 6274TIP3    H240314   3.210   0.991   4.122 -0.4231 -1.6274 -0.1027
 6275TIP3   OH240315   3.999   3.906  16.105 -0.6507 -0.3814 -0.5858
 6275TIP3    H140316   3.958   3.959  16.037 -1.1994 -0.6417 -0.4678
 6275TIP3    H240317   3.984   3.816  16.077 -1.1139 -0.4997  0.0024
 6276TIP3   OH240318   0.285   5.359  16.946 -0.7162  0.2038  0.1718
 6276TIP3    H140319   0.340   5.348  16.869  0.4913 -0.0391  1.0295
 6276TIP3    H240320   0.247   5.273  16.962 -0.0415 -0.0413  0.5051
 6277TIP3   OH240321   1.745   4.636   4.052  0.4084  0.3994  0.1423
 6277TIP3    H140322   1.739   4.592   4.137  0.6771  0.5038  0.2195
 6277TIP3    H240323   1.671   4.697   4.051 -1.0590 -1.3134 -0.7265
 6278TIP3   OH240324   6.171   3.289   5.523  0.2525 -0.0251 -0.0479
 6278TIP3    H140325   6.198   3.256   5.608  1.6780  1.8807  0.3201
 6278TIP3    H240326   6.253   3.293   5.473 -0.1278  1.3699 -0.5882
 6279TIP3   OH240327   5.803   5.658   3.023 -0.4094  0.1331 -0.6602
 6279TIP3    H140328   5.864   5.700   2.962  0.3642 -0.9316 -0.6384
 6279TIP3    H240329   5.856   5.594   3.070 -0.5178  2.1048  2.4689
 6280TIP3   OH240330   0.267   2.653  12.642 -0.1551 -0.0285  0.1345
 6280TIP3    H140331   0.215   2.729  12.614 -0.2946 -0.2332 -0.1632
 6280TIP3    H240332   0.346   2.691  12.680 -0.5085  0.2842  0.5627
 6281TIP3   OH240333   4.355   5.048  11.633  0.0059  0.1347 -0.1114
 6281TIP3    H140334   4.437   5.098  11.622  0.4654 -0.8057 -1.1450
 6281TIP3    H240335   4.383   4.964  11.669 -0.6555  0.2416  0.6745
 6282TIP3   OH240336   5.045   5.713  15.785 -0.0072 -0.2564 -0.3576
 6282TIP3    H140337   4.983   5.778  15.751 -1.3918 -0.8330  0.9742
 6282TIP3    H240338   4.991   5.649  15.831  1.5010 -1.3405  0.0035
 6283TIP3   OH240339   2.384   3.741   1.246  0.0418 -0.2399 -0.2079
 6283TIP3    H140340   2.408   3.672   1.308  0.1547 -1.5426 -1.6350
 6283TIP3    H240341   2.409   3.822   1.290 -0.1953 -1.0685  1.5814
 6284TIP3   OH240342   1.850   0.108  16.585 -0.2922  0.6152 -0.4030
 6284TIP3    H140343   1.863   0.178  16.649 -0.0768 -0.1060  0.3647
 6284TIP3    H240344   1.925   0.114  16.527 -1.1414  2.1011 -1.4111
 6285TIP3   OH240345   5.043   6.605  10.301 -0.0102  0.2572 -0.4374
 6285TIP3    H140346   4.954   6.572  10.305 -0.6122  1.8794  2.4123
 6285TIP3    H240347   5.094   6.543  10.353  0.0399  0.5867 -0.0882
 6286TIP3   OH240348   5.318   0.734   5.246 -1.0236 -0.1479 -0.2377
 6286TIP3    H140349   5.347   0.708   5.334 -2.6454 -0.6782  0.1743
 6286TIP3    H240350   5.260   0.663   5.218 -0.1646 -0.2276 -1.9666
 6287TIP3   OH240351   1.458   0.730   0.942  0.6107  0.7157  0.2323
 6287TIP3    H140352   1.531   0.791   0.957  1.3284 -0.3326  1.1631
 6287TIP3    H240353   1.391   0.758   1.004 -0.4005  2.5230 -1.5215
 6288TIP3   OH240354   3.272   4.975  14.350 -0.5270 -0.0784  0.4614
 6288TIP3    H140355   3.226   5.026  14.283  0.5096  2.3311  1.4261
 6288TIP3    H240356   3.342   4.931  14.303  0.1639  1.5540 -0.1314
 6289TIP3   OH240357   0.022   6.817   2.002  0.6366  0.3100 -0.0981
 6289TIP3    H140358   0.100   6.771   2.032  0.0631 -0.6647 -0.0482
 6289TIP3    H240359  -0.012   6.763   1.931  1.0045  1.6786 -1.3874
 6290TIP3   OH240360   6.813   6.351  11.465  0.1114 -0.4333  0.1532
 6290TIP3    H140361   6.830   6.363  11.558 -0.2315  0.1240  0.1468
 6290TIP3    H240362   6.894   6.380  11.422  0.0677 -0.1725  0.2482
 6291TIP3   OH240363   5.414   1.139  15.246  0.5648 -0.1438 -0.0513
 6291TIP3    H140364   5.447   1.225  15.220 -1.0518  0.0213 -1.7700
 6291TIP3    H240365   5.427   1.083  15.169  1.1498 -1.3282  0.8720
 6292TIP3   OH240366   6.625   3.222   1.003  0.0441 -0.9306 -0.4310
 6292TIP3    H140367   6.576   3.203   1.083  1.7727  0.9993  1.1982
 6292TIP3    H240368   6.684   3.147   0.993  0.6785 -0.6335  0.8549
 6293TIP3   OH240369   3.613   1.547   2.588 -0.3677 -0.6085 -0.0301
 6293TIP3    H140370   3.547   1.496   2.541  1.4385 -2.9448 -0.2556
 6293TIP3    H240371   3.644   1.489   2.657 -0.7752  1.6274  2.1596
 6294TIP3   OH240372   5.629   4.991   2.099 -0.4150 -0.0966 -0.1318
 6294TIP3    H140373   5.704   5.035   2.139  0.3987 -0.3398 -1.3257
 6294TIP3    H240374   5.569   5.062   2.076 -0.1391  0.1888  0.0229
 6295TIP3   OH240375   1.058   1.666  12.063 -0.0483  0.1659  0.5701
 6295TIP3    H140376   1.013   1.654  11.980  0.3440  1.3888  0.1487
 6295TIP3    H240377   1.054   1.761  12.079 -1.8192 -0.2072  2.9341
 6296TIP3   OH240378   5.751   2.409  11.911 -0.1536 -0.8746  0.3673
 6296TIP3    H140379   5.817   2.478  11.908 -0.1840 -0.8000  1.1761
 6296TIP3    H240380   5.745   2.378  11.821 -0.5078  0.5115 -0.1111
 6297TIP3   OH240381   5.786   2.953  14.126  0.3249  0.3487  0.2395
 6297TIP3    H140382   5.850   2.948  14.197  1.5192  0.5222 -0.7783
 6297TIP3    H240383   5.797   2.871  14.078  0.0407  0.5409 -0.1651
 6298TIP3   OH240384   3.164   3.275  15.754  0.8900 -0.4565  0.4550
 6298TIP3    H140385   3.259   3.278  15.742  0.7591  0.1675 -0.5302
 6298TIP3    H240386   3.130   3.247  15.669  0.1650 -0.2423  0.6691
 6299TIP3   OH240387   5.957   3.129  14.755 -0.4289 -0.3800  0.3726
 6299TIP3    H140388   5.961   3.225  14.748 -1.2364 -0.4800 -2.3521
 6299TIP3    H240389   5.889   3.113  14.821 -0.3889  0.9098  0.7594
 6300TIP3   OH240390   3.894   3.924  11.035  0.3851 -0.7998  0.4442
 6300TIP3    H140391   3.951   3.895  10.964  0.9304 -2.9894  1.6876
 6300TIP3    H240392   3.811   3.880  11.018 -0.0598  0.0953  0.2247
 6301TIP3   OH240393   0.780   5.962   5.071 -0.6262  0.3058 -0.1947
 6301TIP3    H140394   0.814   5.893   5.128 -0.7375 -0.6311 -1.2284
 6301TIP3    H240395   0.687   5.943   5.062 -0.6205  0.4742 -0.6471
 6302TIP3   OH240396   2.870   0.107   4.752 -0.5356  0.4733 -0.0983
 6302TIP3    H140397   2.866   0.202   4.742  0.7473  0.5767  0.2362
 6302TIP3    H240398   2.850   0.091   4.844  1.1303  0.5890  0.3114
 6303TIP3   OH240399   3.261   0.574  13.438  0.1491  0.2886  0.6441
 6303TIP3    H140400   3.273   0.556  13.532  1.2918  1.1833  0.6931
 6303TIP3    H240401   3.254   0.669  13.433  2.1504  0.4368 -0.3537
 6304TIP3   OH240402   1.936   3.658  13.188  1.0848 -0.0776  0.0587
 6304TIP3    H140403   2.003   3.672  13.255  0.5400 -0.1710  0.6250
 6304TIP3    H240404   1.860   3.627  13.236  0.0903  1.5948 -0.3932
 6305TIP3   OH240405   1.493   0.570   0.116 -0.0095  0.1923 -0.0982
 6305TIP3    H140406   1.515   0.560   0.208  0.2892 -0.2773 -0.2192
 6305TIP3    H240407   1.557   0.517   0.069  0.7608  1.5614 -0.6817
 6306TIP3   OH240408   1.608   2.896  15.685  0.0076  0.1871  0.4560
 6306TIP3    H140409   1.567   2.814  15.713  0.3673 -0.3920 -0.6630
 6306TIP3    H240410   1.672   2.869  15.620  1.2214  1.2095  1.1818
 6307TIP3   OH240411   6.085   5.114  16.955  0.7931  0.0862 -0.3007
 6307TIP3    H140412   6.103   5.144  17.044  0.7908 -0.2457 -0.1896
 6307TIP3    H240413   6.000   5.154  16.933 -0.8929 -2.4670  1.0886
 6308TIP3   OH240414   0.115   1.359   4.483  0.1173 -0.3905  0.1085
 6308TIP3    H140415   0.141   1.421   4.551  0.7768  0.5513 -0.9868
 6308TIP3    H240416   0.102   1.277   4.531  2.2270 -0.1860  1.1648
 6309TIP3   OH240417   3.829   1.164   5.068  0.2272 -0.5644 -0.6828
 6309TIP3    H140418   3.739   1.194   5.050  0.7113  1.4782  0.0480
 6309TIP3    H240419   3.873   1.168   4.984  0.2264  0.6688 -0.6333
 6310TIP3   OH240420   2.399   4.978  15.809 -0.4990 -0.0703 -0.7741
 6310TIP3    H140421   2.487   4.961  15.775  0.7996  1.8943  1.3439
 6310TIP3    H240422   2.385   4.910  15.874  0.9713  1.4898  1.3142
 6311TIP3   OH240423   4.772   6.175   1.164  0.2693  0.5858  0.1745
 6311TIP3    H140424   4.705   6.155   1.230 -0.1080  1.8113  0.1878
 6311TIP3    H240425   4.838   6.226   1.211  0.9632 -0.1446  0.0280
 6312TIP3   OH240426   3.138   1.953  15.273 -0.2441 -0.3189  0.7836
 6312TIP3    H140427   3.227   1.942  15.306  0.6360  1.3911 -0.8067
 6312TIP3    H240428   3.127   2.048  15.265 -0.4474 -0.4914 -3.2539
 6313TIP3   OH240429   1.259   2.597  12.556  0.1359 -0.3321  0.1093
 6313TIP3    H140430   1.194   2.562  12.617 -0.5792 -0.7247 -0.8551
 6313TIP3    H240431   1.327   2.530  12.553 -0.4979 -0.9587 -0.5704
 6314TIP3   OH240432   0.254   0.859  10.159  0.2300 -0.3038  0.4031
 6314TIP3    H140433   0.328   0.828  10.211 -0.1855  0.5500  1.5564
 6314TIP3    H240434   0.275   0.951  10.141  0.0686 -0.4219 -0.4228
 6315TIP3   OH240435   1.193   4.120  14.890 -0.4188  0.3367 -0.2389
 6315TIP3    H140436   1.109   4.160  14.866 -1.6576 -1.7684  0.3555
 6315TIP3    H240437   1.193   4.035  14.846  0.7003 -0.3533  1.0133
 6316TIP3   OH240438   0.897   3.256   2.996 -0.9896 -0.4387  0.0884
 6316TIP3    H140439   0.980   3.290   2.965 -2.0351  0.5079 -1.8761
 6316TIP3    H240440   0.919   3.204   3.074  1.0255  2.2719  1.4733
 6317TIP3   OH240441   4.431   1.946  13.191 -0.2980  0.4547 -0.3546
 6317TIP3    H140442   4.517   1.986  13.203 -0.5162  0.7288  0.3493
 6317TIP3    H240443   4.379   2.014  13.148 -0.4774  0.6930  0.2323
 6318TIP3   OH240444   2.465   5.438   5.794 -0.1728  0.0437 -0.4284
 6318TIP3    H140445   2.475   5.468   5.703 -1.9863 -0.4435 -0.8347
 6318TIP3    H240446   2.406   5.503   5.834  0.8733  0.4377  0.5204
 6319TIP3   OH240447   0.211   2.266  10.701 -0.4128 -0.5835  0.1789
 6319TIP3    H140448   0.139   2.268  10.764 -1.2263  0.1664 -0.7304
 6319TIP3    H240449   0.223   2.358  10.675  0.0362 -0.8510 -0.5968
 6320TIP3   OH240450   4.555   5.336   2.867 -0.0296  0.5743 -0.1170
 6320TIP3    H140451   4.591   5.421   2.839  0.1587  0.3706 -0.5047
 6320TIP3    H240452   4.631   5.278   2.869 -0.2955  0.1952 -0.7282
 6321TIP3   OH240453   4.616   5.719   1.184  0.8313 -0.1603  0.4977
 6321TIP3    H140454   4.643   5.645   1.239 -2.5980 -1.7908  0.2363
 6321TIP3    H240455   4.621   5.795   1.243  1.9722 -1.0226  1.5646
 6322TIP3   OH240456   0.038   4.800   3.467 -0.1633  0.1394  0.5937
 6322TIP3    H140457   0.114   4.814   3.524 -0.7303  0.6882  1.2252
 6322TIP3    H240458   0.056   4.716   3.425  1.1565  0.6053  0.1512
 6323TIP3   OH240459   0.572   3.324  13.107  0.6935 -0.2773 -0.2210
 6323TIP3    H140460   0.614   3.256  13.054  1.8444 -0.4602  0.8820
 6323TIP3    H240461   0.572   3.401  13.051  0.7387 -0.7931 -0.9463
 6324TIP3   OH240462   3.126   1.149   5.426 -0.2081 -0.0016  0.2236
 6324TIP3    H140463   3.136   1.088   5.353  0.7984  0.3864  0.0285
 6324TIP3    H240464   3.079   1.223   5.389 -0.5962 -0.2419  0.2286
 6325TIP3   OH240465   6.822   2.162   3.437  0.1304 -0.4817  0.0184
 6325TIP3    H140466   6.787   2.248   3.411  0.2148 -0.6121 -0.5365
 6325TIP3    H240467   6.785   2.147   3.524  0.9755  0.6048  0.5996
 6326TIP3   OH240468   2.785   3.036   3.782  0.2420 -0.8548  0.3288
 6326TIP3    H140469   2.738   3.118   3.796 -0.1352 -1.1365  0.7537
 6326TIP3    H240470   2.876   3.056   3.804 -0.1739 -1.0532  2.4623
 6327TIP3   OH240471   3.541   1.501   2.201 -0.8059  0.0468  0.4805
 6327TIP3    H140472   3.515   1.433   2.139  0.1019 -0.0988  0.2465
 6327TIP3    H240473   3.637   1.501   2.198 -0.7831  0.9768  0.8666
 6328TIP3   OH240474   6.673   5.706  15.561  0.0793 -0.4942 -0.1277
 6328TIP3    H140475   6.648   5.675  15.648  0.9381 -0.8297 -0.0003
 6328TIP3    H240476   6.732   5.639  15.527 -2.3919 -1.8280 -2.1301
 6329TIP3   OH240477   6.202   6.141   0.813  0.5014  0.2303 -0.6264
 6329TIP3    H140478   6.165   6.055   0.832  0.4077  0.0344 -1.6881
 6329TIP3    H240479   6.239   6.133   0.725  1.9530  0.7850 -0.1126
 6330TIP3   OH240480   5.683   3.649  16.432 -0.3407 -0.0106 -0.3964
 6330TIP3    H140481   5.673   3.741  16.455 -1.7414 -0.3329  0.4573
 6330TIP3    H240482   5.673   3.646  16.337 -1.1158  0.6442 -0.3495
 6331TIP3   OH240483   2.483   5.754  14.393  0.4532  0.0194 -0.8019
 6331TIP3    H140484   2.418   5.707  14.340  0.6553  0.0475 -1.0774
 6331TIP3    H240485   2.431   5.809  14.451  0.2342  0.6365 -1.5633
 6332TIP3   OH240486   0.273   2.364   5.617  0.0976  0.2071 -0.5330
 6332TIP3    H140487   0.363   2.380   5.647  0.1252  1.4815 -1.2281
 6332TIP3    H240488   0.283   2.306   5.541  0.5190  1.7909 -1.7480
 6333TIP3   OH240489   5.531   3.706  14.070 -0.0004  0.4237  0.1121
 6333TIP3    H140490   5.439   3.699  14.093 -0.0938 -2.4635 -0.7706
 6333TIP3    H240491   5.578   3.685  14.151 -0.1750 -0.4377 -0.0020
 6334TIP3   OH240492   4.981   2.379  13.269 -0.4317 -0.0100 -0.2071
 6334TIP3    H140493   5.051   2.438  13.241 -0.2406  0.8282  1.8382
 6334TIP3    H240494   5.023   2.293  13.275  0.2981  0.3672  0.3830
 6335TIP3   OH240495   1.013   3.585   3.710 -0.3705  0.2969  0.0048
 6335TIP3    H140496   0.923   3.583   3.741 -1.0073 -1.4173 -1.7475
 6335TIP3    H240497   1.014   3.655   3.645 -0.0504  1.2357  0.9936
 6336TIP3   OH240498   5.423   1.415  13.416 -0.2362  0.0726  0.2760
 6336TIP3    H140499   5.487   1.417  13.344 -0.2426  1.1890  0.2736
 6336TIP3    H240500   5.453   1.346  13.474 -0.2778 -0.9131 -0.8447
 6337TIP3   OH240501   3.936   1.574   2.157 -0.3113 -0.5352 -0.2725
 6337TIP3    H140502   3.998   1.629   2.205 -1.3637  0.0549  0.4351
 6337TIP3    H240503   3.900   1.515   2.223 -1.4974  0.0387 -0.3809
 6338TIP3   OH240504   2.814   0.399   3.454  0.0797 -0.0381  0.1841
 6338TIP3    H140505   2.869   0.442   3.519 -0.2311 -1.0579  1.1562
 6338TIP3    H240506   2.762   0.469   3.416  0.6141  0.6424  0.6836
 6339TIP3   OH240507   1.818   0.897  12.389 -0.1037  0.5336  0.0828
 6339TIP3    H140508   1.771   0.907  12.306 -1.0051  0.9881  0.6232
 6339TIP3    H240509   1.779   0.820  12.430 -0.9635  1.3656  0.8874
 6340TIP3   OH240510   5.066   1.522  15.392  0.1149 -0.0580  0.0631
 6340TIP3    H140511   5.079   1.435  15.356  1.5091 -0.4956  1.5139
 6340TIP3    H240512   5.007   1.509  15.466 -0.6489  0.4395 -0.4395
 6341TIP3   OH240513   6.754   1.383  10.632  0.0396 -0.2264 -0.2458
 6341TIP3    H140514   6.687   1.348  10.573 -1.8780 -0.8386  2.1331
 6341TIP3    H240515   6.740   1.478  10.631  1.3636  0.0005 -2.2192
 6342TIP3   OH240516   0.217   2.447  13.127 -0.1339  0.0303 -0.3365
 6342TIP3    H140517   0.142   2.506  13.122  0.3019  0.5878 -0.3861
 6342TIP3    H240518   0.203   2.384  13.056  0.0669  0.8694 -1.1433
 6343TIP3   OH240519   5.765   6.631  16.029  0.5369 -0.3707 -0.2000
 6343TIP3    H140520   5.843   6.578  16.015 -0.9235 -2.9024  0.6541
 6343TIP3    H240521   5.692   6.578  15.997 -0.8670  2.1844 -1.6232
 6344TIP3   OH240522   2.564   3.569   0.369 -0.0671  0.1398  0.3915
 6344TIP3    H140523   2.579   3.486   0.414 -0.1771  0.3817  0.8693
 6344TIP3    H240524   2.536   3.543   0.281 -2.6702 -0.3966  1.2935
 6345TIP3   OH240525   5.550   2.884   2.102  0.1429  0.2171 -0.1905
 6345TIP3    H140526   5.538   2.964   2.154  1.4345  1.4852 -1.7315
 6345TIP3    H240527   5.643   2.884   2.080 -0.6039  0.9051 -4.1543
 6346TIP3   OH240528   3.952   1.944  12.977 -0.1842  0.6278 -0.2417
 6346TIP3    H140529   3.883   1.878  12.980 -0.9616  1.4574  1.3573
 6346TIP3    H240530   4.034   1.894  12.977 -0.7538 -0.3350 -0.6356
 6347TIP3   OH240531   0.420   2.618  13.215 -0.0828  0.1298  0.0249
 6347TIP3    H140532   0.341   2.567  13.198 -0.6158  1.2625 -1.1359
 6347TIP3    H240533   0.466   2.620  13.131 -0.4976  2.2060 -0.1979
 6348TIP3   OH240534   0.589   0.455   4.105 -0.3236  0.4787 -0.3189
 6348TIP3    H140535   0.641   0.534   4.119 -0.3412  0.6403 -1.0771
 6348TIP3    H240536   0.641   0.385   4.143  0.5218  0.6165 -1.1750
 6349TIP3   OH240537   1.370   0.379   0.657  0.1040 -0.2432 -0.0037
 6349TIP3    H140538   1.453   0.368   0.609  0.3664  0.9711  0.1327
 6349TIP3    H240539   1.376   0.467   0.694 -0.6775 -0.6529  1.1483
 6350TIP3   OH240540   6.637   4.046  14.313  0.0466  0.2685  0.0250
 6350TIP3    H140541   6.644   3.958  14.277  1.5585  0.7757 -0.9931
 6350TIP3    H240542   6.671   4.039  14.402  1.3380  0.0523 -0.4705
 6351TIP3   OH240543   4.408   3.005   0.943 -0.8889 -0.1973  0.4139
 6351TIP3    H140544   4.417   2.955   0.862  0.1730  1.6515 -0.6805
 6351TIP3    H240545   4.498   3.022   0.971 -1.2315  0.4631  1.1667
 6352TIP3   OH240546   0.997   6.274  14.412 -0.7330  0.0303 -0.1563
 6352TIP3    H140547   1.086   6.266  14.376 -0.7592  1.1827 -0.5093
 6352TIP3    H240548   0.992   6.364  14.443 -0.8020 -0.8482  2.5725
 6353TIP3   OH240549   4.607   6.227   1.759 -0.1795 -0.0985 -0.2644
 6353TIP3    H140550   4.545   6.154   1.769  0.7304 -0.9484 -0.6672
 6353TIP3    H240551   4.688   6.186   1.729 -0.4484  1.3693 -3.3462
 6354TIP3   OH240552   6.864   0.221  16.683 -0.1170 -0.2685  0.2964
 6354TIP3    H140553   6.817   0.179  16.755 -0.6199 -3.1327 -1.5427
 6354TIP3    H240554   6.797   0.240  16.618  0.7852 -1.7721 -1.1684
 6355TIP3   OH240555   3.905   3.056   3.177  0.1980 -0.3377  0.4000
 6355TIP3    H140556   3.911   3.001   3.098 -0.4704  1.0664 -0.6832
 6355TIP3    H240557   3.835   3.016   3.229  1.1202 -1.6887  0.6406
 6356TIP3   OH240558   3.940   4.676   3.937  0.3018 -0.3473  0.1360
 6356TIP3    H140559   3.944   4.636   3.850  0.9633  3.0726 -1.5732
 6356TIP3    H240560   4.032   4.680   3.965  0.1219 -1.1177  0.8492
 6357TIP3   OH240561   6.092   4.011  11.790  0.1732 -0.5459 -0.1300
 6357TIP3    H140562   6.141   3.946  11.739 -0.4176 -0.2032 -1.1690
 6357TIP3    H240563   6.141   4.020  11.871  2.3204  0.4138 -1.4634
 6358TIP3   OH240564   1.319   1.373   5.608 -0.1995  0.5800 -0.2222
 6358TIP3    H140565   1.273   1.353   5.527 -4.1015 -0.7119  2.0637
 6358TIP3    H240566   1.340   1.288   5.646 -0.1819  1.1025  0.9900
 6359TIP3   OH240567   0.387   6.109   1.180  0.3183 -0.7907  0.4001
 6359TIP3    H140568   0.414   6.044   1.245  0.1916  0.2476  1.5254
 6359TIP3    H240569   0.412   6.193   1.218  0.4106 -0.1616 -0.9984
 6360TIP3   OH240570   1.438   1.984   2.130 -0.4019 -0.1358  0.2600
 6360TIP3    H140571   1.367   1.921   2.119 -0.5319  0.0571  0.0015
 6360TIP3    H240572   1.400   2.054   2.182 -1.4413  1.6263 -2.6763
 6361TIP3   OH240573   1.452   6.389   0.026  0.5268 -0.9402 -0.2332
 6361TIP3    H140574   1.505   6.313   0.002 -0.0781 -1.5588  0.3528
 6361TIP3    H240575   1.394   6.357   0.095 -1.1821 -0.5094 -1.4201
 6362TIP3   OH240576   2.686   4.522  14.603  0.5611 -0.1664  0.3411
 6362TIP3    H140577   2.756   4.483  14.550  0.1419  0.8051 -0.9750
 6362TIP3    H240578   2.618   4.455  14.605  0.5658 -0.2091 -0.4141
 6363TIP3   OH240579   0.486   1.082  16.354 -0.1707  0.4621 -0.3310
 6363TIP3    H140580   0.459   1.116  16.269  0.4943  1.2559 -0.2344
 6363TIP3    H240581   0.582   1.085  16.352 -0.1101 -0.8083 -0.0713
 6364TIP3   OH240582   6.763   0.258   0.399  0.5504 -0.2812 -0.6545
 6364TIP3    H140583   6.849   0.219   0.381  0.4530 -0.6612 -0.3240
 6364TIP3    H240584   6.701   0.201   0.353  0.1662 -2.0957  1.8728
 6365TIP3   OH240585   2.687   1.372   2.180  0.1413  0.4788  0.1752
 6365TIP3    H140586   2.596   1.397   2.195  0.2058  0.7559  0.1005
 6365TIP3    H240587   2.697   1.289   2.227 -0.6222 -0.4298 -1.1969
 6366TIP3   OH240588   0.121   4.306   0.623 -0.5398 -0.2144 -0.2385
 6366TIP3    H140589   0.149   4.311   0.715 -0.1756  1.8670 -0.4209
 6366TIP3    H240590   0.028   4.326   0.626 -0.6951 -0.9078 -0.2648
 6367TIP3   OH240591   1.617   6.382  14.924  0.0757  0.2213 -0.1228
 6367TIP3    H140592   1.649   6.365  14.836  0.5528  0.9632 -0.1069
 6367TIP3    H240593   1.696   6.388  14.978 -0.2087 -0.1959  0.3526
 6368TIP3   OH240594   4.025   2.290  10.965 -0.1884  0.4195 -0.2416
 6368TIP3    H140595   4.110   2.302  11.006  0.4768 -0.8915 -1.1859
 6368TIP3    H240596   4.001   2.199  10.982 -0.4623  0.1887 -1.6631
 6369TIP3   OH240597   5.267   0.829   1.587  0.2687  0.0799 -0.0045
 6369TIP3    H140598   5.338   0.767   1.568  0.3222  0.1233  0.0516
 6369TIP3    H240599   5.304   0.915   1.565 -0.1649 -0.0043 -1.0761
 6370TIP3   OH240600   2.337   2.067  14.300 -0.5560  0.1307  0.5032
 6370TIP3    H140601   2.310   2.114  14.379  1.1251  0.6527  0.8195
 6370TIP3    H240602   2.427   2.097  14.285 -0.8785  0.1237 -1.6868
 6371TIP3   OH240603   2.388   5.506  14.644  0.2226 -0.2961  0.1646
 6371TIP3    H140604   2.407   5.450  14.569 -1.1862 -0.5638 -0.0093
 6371TIP3    H240605   2.312   5.466  14.686 -0.6691  1.3429  0.1844
 6372TIP3   OH240606   0.096   4.338  16.184  0.2450  0.4513 -0.6071
 6372TIP3    H140607   0.025   4.386  16.141  0.2158  0.2394 -0.7959
 6372TIP3    H240608   0.158   4.406  16.211  0.4456  0.5645 -1.3180
 6373TIP3   OH240609   5.730   2.497  14.550 -0.3464  0.0099 -0.1841
 6373TIP3    H140610   5.667   2.556  14.506 -0.0128  1.8694  1.6802
 6373TIP3    H240611   5.815   2.522  14.513 -0.2772  0.2454  0.1337
 6374TIP3   OH240612   4.885   4.790  16.225  0.2804 -0.5002 -0.8087
 6374TIP3    H140613   4.862   4.732  16.298 -0.2524 -0.0827 -0.6374
 6374TIP3    H240614   4.879   4.734  16.147  2.5140 -1.3980 -0.4101
 6375TIP3   OH240615   5.461   5.087   4.414 -0.1435 -0.6205 -0.2491
 6375TIP3    H140616   5.490   5.081   4.505 -1.2040  0.6715  0.2091
 6375TIP3    H240617   5.489   5.005   4.374  0.7367 -1.0200  1.1203
 6376TIP3   OH240618   5.957   6.435  11.701  0.5046  0.0518 -0.3443
 6376TIP3    H140619   5.880   6.427  11.645 -0.6285  1.8268  0.8633
 6376TIP3    H240620   5.955   6.357  11.757 -0.3093 -0.0159 -0.4637
 6377TIP3   OH240621   1.600   2.837  10.355 -0.3838 -0.0760 -0.4601
 6377TIP3    H140622   1.640   2.888  10.425 -0.4903  0.3895 -0.7365
 6377TIP3    H240623   1.669   2.776  10.327 -0.9730 -1.7547  1.4755
 6378TIP3   OH240624   5.953   5.299  16.391  0.0663  0.0347  0.3121
 6378TIP3    H140625   5.941   5.264  16.303  0.0036 -0.2600  0.4350
 6378TIP3    H240626   6.048   5.292  16.406  0.4352  2.3253 -0.6378
 6379TIP3   OH240627   5.662   1.236   3.567  0.0822 -0.2071 -0.1273
 6379TIP3    H140628   5.572   1.266   3.553  0.2470  0.3936  0.0570
 6379TIP3    H240629   5.652   1.151   3.610 -0.3975 -0.4751 -0.7369
 6380TIP3   OH240630   1.427   5.479  13.066 -0.3524 -0.7710 -0.2777
 6380TIP3    H140631   1.466   5.520  13.143  0.3647  0.0320 -1.0468
 6380TIP3    H240632   1.390   5.552  13.016 -0.4962 -1.2412 -0.8710
 6381TIP3   OH240633   1.815   1.344  15.686  0.0765 -0.1196 -0.4268
 6381TIP3    H140634   1.853   1.411  15.743  0.8178 -0.7612 -0.1550
 6381TIP3    H240635   1.856   1.263  15.714 -0.4179 -0.6123 -1.1147
 6382TIP3   OH240636   5.659   5.112  12.927 -0.0710  0.2042  0.4770
 6382TIP3    H140637   5.721   5.161  12.873 -0.1678  0.2305  0.3894
 6382TIP3    H240638   5.693   5.022  12.928 -1.5769 -0.5069 -2.0386
 6383TIP3   OH240639   4.757   5.869   1.371 -0.5566 -0.4094  0.1536
 6383TIP3    H140640   4.779   5.838   1.459 -2.5536 -1.0195  0.4991
 6383TIP3    H240641   4.731   5.960   1.384  0.8959  0.0523 -0.1139
 6384TIP3   OH240642   1.914   0.499  12.158  0.8879 -0.0974 -0.3360
 6384TIP3    H140643   1.986   0.556  12.186 -1.3560  2.2490  1.1271
 6384TIP3    H240644   1.877   0.466  12.240 -1.0060  0.5391 -0.8837
 6385TIP3   OH240645   6.812   5.171  12.038 -0.8593 -0.3437 -0.2552
 6385TIP3    H140646   6.832   5.100  11.977 -0.5303  0.0349 -0.5868
 6385TIP3    H240647   6.748   5.132  12.099  1.1266 -1.7207  1.0892
 6386TIP3   OH240648   1.693   1.705   1.167 -0.4089  0.5846 -0.5116
 6386TIP3    H140649   1.760   1.667   1.111 -0.9816 -0.6531 -0.3873
 6386TIP3    H240650   1.643   1.630   1.199 -1.1863  1.4037  0.2473
 6387TIP3   OH240651   6.490   1.289   3.153  0.0295  0.0626 -0.0951
 6387TIP3    H140652   6.585   1.304   3.151  0.2310 -1.1478 -0.4327
 6387TIP3    H240653   6.473   1.259   3.243  0.0468 -0.1516 -0.1620
 6388TIP3   OH240654   4.026   1.975  12.439 -0.1723  0.2676  0.7244
 6388TIP3    H140655   4.058   1.956  12.527  1.1284 -1.9875 -0.1328
 6388TIP3    H240656   3.933   1.996  12.451 -0.0320 -0.0063  2.6185
 6389TIP3   OH240657   1.367   2.469  13.549 -0.3403  0.2053 -0.5019
 6389TIP3    H140658   1.390   2.559  13.526  0.3618 -0.3063 -1.8482
 6389TIP3    H240659   1.442   2.437  13.599 -0.5753  0.3433 -0.0522
 6390TIP3   OH240660   3.171   0.429   2.090  0.2701  0.5928  0.3711
 6390TIP3    H140661   3.221   0.360   2.046 -1.3188 -0.2116 -0.2803
 6390TIP3    H240662   3.123   0.472   2.019 -1.6748 -0.1504  1.1610
 6391TIP3   OH240663   3.348   3.996  15.277 -0.6972 -0.6905 -0.1943
 6391TIP3    H140664   3.349   4.064  15.345  0.2684 -0.3187 -0.5755
 6391TIP3    H240665   3.258   3.999  15.243 -0.9929 -0.3983  0.5799
 6392TIP3   OH240666   0.776   4.261   0.122  0.3097  0.2583  0.0596
 6392TIP3    H140667   0.801   4.185   0.176 -1.2217  0.2746  0.8620
 6392TIP3    H240668   0.845   4.325   0.137 -0.0969  0.2838  2.1147
 6393TIP3   OH240669   0.897   5.711   1.479  0.4513  0.7845 -0.2758
 6393TIP3    H140670   0.860   5.680   1.397  1.2791  1.7311 -1.0318
 6393TIP3    H240671   0.859   5.653   1.546  0.8354 -0.9028 -1.4525
 6394TIP3   OH240672   6.592   2.208  14.987  0.1004  0.0847 -0.0624
 6394TIP3    H140673   6.604   2.141  15.055  1.2567  1.6617  1.4036
 6394TIP3    H240674   6.501   2.233  14.995  0.2160  0.2534  0.9625
 6395TIP3   OH240675   1.577   4.328  13.514  0.3604  0.0792  0.1417
 6395TIP3    H140676   1.521   4.257  13.546  0.8670  0.6615  2.5162
 6395TIP3    H240677   1.665   4.304  13.544  0.6250  1.4402  0.4989
 6396TIP3   OH240678   6.874   0.740  15.903 -0.3522 -0.4745  0.5621
 6396TIP3    H140679   6.849   0.736  15.995  0.2705  0.2814  0.7813
 6396TIP3    H240680   6.794   0.762  15.857 -0.2046  1.6496  1.2128
 6397TIP3   OH240681   6.122   5.510   5.578  0.2551  0.7401  0.0387
 6397TIP3    H140682   6.104   5.443   5.513  0.2630  1.1827 -0.4277
 6397TIP3    H240683   6.194   5.561   5.541  0.3577  0.9082  0.4593
 6398TIP3   OH240684   6.799   3.555  15.628 -0.5949  0.1891  0.4773
 6398TIP3    H140685   6.857   3.506  15.570 -1.2759 -0.2207  0.1225
 6398TIP3    H240686   6.852   3.628  15.659 -0.5187  1.0366 -1.5001
 6399TIP3   OH240687   2.237   3.061   1.525  0.4802  0.1329  0.3036
 6399TIP3    H140688   2.144   3.074   1.547 -0.1828 -3.7779  0.5453
 6399TIP3    H240689   2.277   3.036   1.608  1.2525 -0.3631 -0.2155
 6400TIP3   OH240690   4.315   3.286  12.470  0.2159 -0.5501 -1.1284
 6400TIP3    H140691   4.374   3.263  12.398 -1.7443 -0.8259 -2.7006
 6400TIP3    H240692   4.240   3.328  12.429  0.2252  1.8176  1.0224
 6401TIP3   OH240693   1.323   3.815   1.403 -0.0428  0.9726  0.0063
 6401TIP3    H140694   1.233   3.793   1.379  0.1546  0.7377 -0.5459
 6401TIP3    H240695   1.362   3.730   1.426 -0.1078  1.1412  0.7716
 6402TIP3   OH240696   0.214   3.472   3.235  0.3850  0.5728 -0.1921
 6402TIP3    H140697   0.204   3.466   3.140  1.4747 -2.1361 -0.2196
 6402TIP3    H240698   0.308   3.483   3.249  0.1111  2.2520  0.5901
 6403TIP3   OH240699   0.552   0.917  11.033 -0.0311 -0.6210  0.2779
 6403TIP3    H140700   0.551   0.930  11.127  1.6569  1.0255  0.1239
 6403TIP3    H240701   0.589   0.830  11.020  0.6471 -0.4594  1.1140
 6404TIP3   OH240702   5.123   4.052  11.968  0.1152  0.1614  0.1174
 6404TIP3    H140703   5.097   3.960  11.964 -0.8360  0.4663 -2.5020
 6404TIP3    H240704   5.208   4.054  11.925 -0.6846  0.6903 -1.5378
 6405TIP3   OH240705   4.339   2.620  13.809  0.6260  0.6549 -0.0305
 6405TIP3    H140706   4.353   2.528  13.787  1.9209  0.3283  1.9348
 6405TIP3    H240707   4.400   2.668  13.751  0.2372  0.2713 -0.7709
 6406TIP3   OH240708   0.558   3.860  16.764  0.3293 -0.1315 -0.0021
 6406TIP3    H140709   0.638   3.911  16.778  0.2529 -0.1343  0.4630
 6406TIP3    H240710   0.568   3.784  16.821 -1.1594  1.1639  2.1406
 6407TIP3   OH240711   0.657   6.289   3.960 -0.1542 -0.0296  0.1365
 6407TIP3    H140712   0.706   6.367   3.936 -1.6085  0.8666 -0.0172
 6407TIP3    H240713   0.718   6.239   4.015  0.7219  1.3204  0.4479
 6408TIP3   OH240714   0.542   4.721  16.419 -0.0028 -0.1887 -0.6340
 6408TIP3    H140715   0.602   4.735  16.492 -0.7588  1.0432 -0.2232
 6408TIP3    H240716   0.470   4.782  16.435  0.1070  0.5633 -2.7266
 6409TIP3   OH240717   3.937   0.753   3.210 -0.0671  0.5317  0.3267
 6409TIP3    H140718   3.860   0.807   3.191  1.1330  1.4163 -2.7001
 6409TIP3    H240719   3.925   0.674   3.157 -0.9434 -1.4913  3.3439
 6410TIP3   OH240720   2.189   3.975  15.757 -0.1781  0.3706  0.1459
 6410TIP3    H140721   2.139   4.027  15.820 -3.0759 -0.7019 -1.0733
 6410TIP3    H240722   2.189   4.029  15.678 -2.0253 -0.7708 -0.7130
 6411TIP3   OH240723   5.938   3.426  12.886 -0.3332  0.4412 -0.3937
 6411TIP3    H140724   5.986   3.412  12.967 -1.4818  1.1730  0.4374
 6411TIP3    H240725   5.846   3.432  12.912 -0.8073 -0.0367 -1.8339
 6412TIP3   OH240726   0.165   1.532  16.684 -0.0693  0.1982  0.5962
 6412TIP3    H140727   0.096   1.581  16.729  0.6006  0.7722  1.0385
 6412TIP3    H240728   0.191   1.465  16.746 -0.5457 -0.3150  0.2440
 6413TIP3   OH240729   6.168   5.150   1.941 -0.4037 -0.0921 -0.1941
 6413TIP3    H140730   6.245   5.189   1.899  0.4304 -1.8092 -0.3241
 6413TIP3    H240731   6.168   5.186   2.029  0.3659  0.1631 -0.2883
 6414TIP3   OH240732   4.797   6.344  11.592  0.5625 -0.1222  0.4305
 6414TIP3    H140733   4.706   6.339  11.563  0.3150  1.1236  0.9515
 6414TIP3    H240734   4.797   6.301  11.678 -0.3014  2.8450  2.0579
 6415TIP3   OH240735   1.985   2.933  12.553  0.6725 -0.3043 -0.4048
 6415TIP3    H140736   1.970   2.901  12.464  0.0131 -0.7190 -0.1507
 6415TIP3    H240737   2.063   2.987  12.546  0.7241 -0.4710 -1.2054
 6416TIP3   OH240738   0.719   5.002  11.508 -0.1270  0.5107 -0.2511
 6416TIP3    H140739   0.725   4.907  11.498  0.5622  0.2405  1.9766
 6416TIP3    H240740   0.799   5.026  11.554 -1.1244  1.8744  0.8859
 6417TIP3   OH240741   4.436   1.633   4.990 -0.1062  0.5398 -0.6239
 6417TIP3    H140742   4.446   1.538   4.988  0.4902  0.5581  0.5720
 6417TIP3    H240743   4.413   1.652   5.080 -1.1799  1.4580 -1.0772
 6418TIP3   OH240744   3.157   0.624   1.242  0.5072  0.0805  0.1564
 6418TIP3    H140745   3.145   0.719   1.245 -1.7988 -0.0903 -1.0188
 6418TIP3    H240746   3.150   0.603   1.149  0.0923 -1.3361  0.4921
 6419TIP3   OH240747   3.049   1.471   3.832  0.1863 -0.2960  0.0764
 6419TIP3    H140748   3.107   1.543   3.805 -0.1757  0.0748  0.2640
 6419TIP3    H240749   3.016   1.498   3.918 -2.2215  0.7271 -1.0685
 6420TIP3   OH240750   4.608   4.144   2.908 -0.2245  0.1796 -0.0765
 6420TIP3    H140751   4.535   4.119   2.852 -0.5419 -1.0567  0.8226
 6420TIP3    H240752   4.585   4.230   2.942 -0.7891  0.2283 -0.5801
 6421TIP3   OH240753   0.941   5.881  11.530 -0.2697  0.2806  0.8050
 6421TIP3    H140754   0.894   5.932  11.596 -0.3488 -1.9831  2.6175
 6421TIP3    H240755   0.968   5.801  11.576 -0.1386 -1.3168 -1.8658
 6422TIP3   OH240756   5.722   2.215   1.844 -0.4115 -0.0303  0.3551
 6422TIP3    H140757   5.741   2.154   1.774 -1.4274 -1.6269  1.4091
 6422TIP3    H240758   5.636   2.252   1.821 -1.4901 -1.7188  1.4606
 6423TIP3   OH240759   4.920   0.441  12.677  0.1272 -0.0430  0.1461
 6423TIP3    H140760   5.010   0.416  12.657 -0.7995 -1.3815 -2.8385
 6423TIP3    H240761   4.866   0.396  12.612 -2.7147  0.9793  1.5778
 6424TIP3   OH240762   6.106   5.393   6.453 -0.0663 -0.4102 -0.0920
 6424TIP3    H140763   6.100   5.297   6.457 -1.4996 -0.4549 -1.9547
 6424TIP3    H240764   6.016   5.422   6.447  0.3930  1.0171 -0.3644
 6425TIP3   OH240765   6.604   4.538  12.611 -0.0396  0.9507  0.2286
 6425TIP3    H140766   6.583   4.538  12.517  0.4754 -1.7699  0.0295
 6425TIP3    H240767   6.695   4.508  12.615 -0.4334 -0.1746  1.6253
 6426TIP3   OH240768   0.923   4.443  11.976  0.4674 -0.2132  0.1772
 6426TIP3    H140769   0.983   4.512  11.948  0.0442 -0.0261 -0.3029
 6426TIP3    H240770   0.977   4.382  12.026  1.5635 -1.1913 -2.0525
 6427TIP3   OH240771   2.672   5.832   1.563  0.0933  0.4801 -0.0343
 6427TIP3    H140772   2.710   5.745   1.572  0.4622  0.7188  0.8260
 6427TIP3    H240773   2.580   5.821   1.586  0.3652  0.5009  1.1315
 6428TIP3   OH240774   4.104   3.624  12.079 -0.3066  0.1632 -0.1947
 6428TIP3    H140775   4.083   3.540  12.037 -0.1893  0.6166 -1.1667
 6428TIP3    H240776   4.197   3.638  12.060 -0.3518  0.5661 -0.1230
 6429TIP3   OH240777   4.920   3.301   5.796 -0.5258  0.0411 -0.2979
 6429TIP3    H140778   4.863   3.226   5.779 -0.9279  0.3440 -0.3035
 6429TIP3    H240779   4.976   3.272   5.868  0.5927 -0.9268 -1.5162
 6430TIP3   OH240780   5.327   0.205   2.651  0.0229 -0.0603 -0.0107
 6430TIP3    H140781   5.320   0.249   2.736 -0.5926  0.7965 -0.4949
 6430TIP3    H240782   5.237   0.180   2.630 -0.1410  1.4453 -1.2832
 6431TIP3   OH240783   0.006   3.283  15.793 -0.2001  0.0047 -0.6251
 6431TIP3    H140784   0.087   3.334  15.788 -1.0319  1.3602 -1.0354
 6431TIP3    H240785   0.026   3.211  15.852  1.3129  0.2782 -0.7630
 6432TIP3   OH240786   1.052   5.998  14.828  0.5149  0.6354  0.7128
 6432TIP3    H140787   1.056   6.071  14.767 -0.2711 -0.9773 -1.3906
 6432TIP3    H240788   1.132   5.947  14.812 -0.9314 -1.2559 -1.0360
 6433TIP3   OH240789   5.136   2.133   5.722 -0.1823  0.0495  0.2881
 6433TIP3    H140790   5.174   2.062   5.669 -0.3779  1.1851 -1.4559
 6433TIP3    H240791   5.063   2.092   5.768  0.3657 -1.1258  0.1541
 6434TIP3   OH240792   2.507   1.766   1.204 -0.2317 -0.1854  0.4478
 6434TIP3    H140793   2.493   1.837   1.141 -0.1369 -0.3985  0.1871
 6434TIP3    H240794   2.454   1.791   1.279 -1.3817 -0.5808 -0.2074
 6435TIP3   OH240795   1.414   3.731   4.555  0.2262  0.1047 -0.2160
 6435TIP3    H140796   1.452   3.694   4.635  1.5978  1.3541 -0.2411
 6435TIP3    H240797   1.400   3.655   4.499  1.2496 -0.5885  0.4160
 6436TIP3   OH240798   5.687   2.033   0.019 -0.5092 -0.1520 -0.2549
 6436TIP3    H140799   5.769   1.991   0.041 -0.5669  0.1664  0.6083
 6436TIP3    H240800   5.673   2.013  -0.074  0.8166  0.2639 -0.5668
 6437TIP3   OH240801   2.384   1.903  15.455 -0.6548 -0.2498  0.2510
 6437TIP3    H140802   2.406   1.814  15.429 -3.1767 -1.1860  0.9807
 6437TIP3    H240803   2.411   1.909  15.547  2.2005  0.8256 -0.5530
 6438TIP3   OH240804   0.617   4.968   2.180  0.3144 -0.2632  0.3703
 6438TIP3    H140805   0.599   5.062   2.172  0.7700 -0.0099  1.9576
 6438TIP3    H240806   0.580   4.930   2.101 -0.2336  1.2025 -0.1213
 6439TIP3   OH240807   1.180   4.471   2.653  0.0276  0.3431  0.2482
 6439TIP3    H140808   1.268   4.482   2.617  0.0066  0.5982  0.2739
 6439TIP3    H240809   1.129   4.433   2.581  0.4818 -1.0750  0.6494
 6440TIP3   OH240810   2.028   1.650   0.263  0.4367  0.0544  0.5848
 6440TIP3    H140811   1.990   1.716   0.205 -0.0727 -0.0992  0.7417
 6440TIP3    H240812   2.114   1.686   0.285 -0.0912  0.9917  1.2075
 6441TIP3   OH240813   4.291   3.790   1.848  0.0894  0.4232 -0.1325
 6441TIP3    H140814   4.259   3.742   1.771 -1.8871  1.5204 -0.0727
 6441TIP3    H240815   4.335   3.867   1.811 -2.7063  2.1034 -0.3063
 6442TIP3   OH240816   2.082   1.276  10.785 -0.2694  0.1470  1.3218
 6442TIP3    H140817   2.145   1.270  10.857 -0.8564 -0.0409  1.8333
 6442TIP3    H240818   1.997   1.278  10.828 -0.6466 -0.2503  0.6183
 6443TIP3   OH240819   3.105   2.933   0.474 -0.0070 -0.5939  0.6230
 6443TIP3    H140820   3.042   3.001   0.452 -0.2747 -0.0952  2.6604
 6443TIP3    H240821   3.053   2.854   0.486  0.1294 -0.8481 -0.4258
 6444TIP3   OH240822   4.060   5.207  13.586  0.1408 -0.4336 -0.3551
 6444TIP3    H140823   4.072   5.260  13.665 -0.3445 -0.3426 -0.3372
 6444TIP3    H240824   4.044   5.271  13.517 -0.2923 -0.5529 -0.3645
 6445TIP3   OH240825   3.914   0.571   1.002  0.2152 -0.5034  0.0003
 6445TIP3    H140826   3.935   0.582   0.910  0.8233 -0.4836  0.1398
 6445TIP3    H240827   3.922   0.659   1.039  3.5707 -0.9913  0.8023
 6446TIP3   OH240828   5.293   6.058   5.446 -0.1559 -0.9431 -0.5719
 6446TIP3    H140829   5.278   5.971   5.411 -1.5667 -1.2342  0.6580
 6446TIP3    H240830   5.343   6.044   5.526  0.5162 -0.5226 -0.9083
 6447TIP3   OH240831   0.364   5.460   1.023  0.0047 -0.4663 -0.2992
 6447TIP3    H140832   0.435   5.424   0.969  0.5380  0.0311  0.0589
 6447TIP3    H240833   0.408   5.519   1.085 -0.9058  1.6659 -1.5512
 6448TIP3   OH240834   2.931   3.772  16.321 -0.3286 -0.2334  0.1526
 6448TIP3    H140835   2.853   3.745  16.369 -0.3918 -0.6559 -0.1775
 6448TIP3    H240836   3.004   3.753  16.380 -0.4506 -0.1239  0.3400
 6449TIP3   OH240837   2.031   0.029  11.365 -0.0198 -0.4531 -0.1155
 6449TIP3    H140838   2.062  -0.023  11.291 -1.0066  1.9716 -2.3979
 6449TIP3    H240839   1.984  -0.033  11.420 -0.3722 -2.1480 -2.2118
 6450TIP3   OH240840   1.855   4.737  16.400 -0.0959 -0.4687  0.2560
 6450TIP3    H140841   1.945   4.709  16.385 -0.3867 -1.3613  0.1085
 6450TIP3    H240842   1.848   4.748  16.494  0.2234 -0.1743  0.2464
 6451TIP3   OH240843   3.493   5.136  13.150 -0.2209  0.1688  0.3521
 6451TIP3    H140844   3.508   5.196  13.223 -0.2063 -0.7030  1.0753
 6451TIP3    H240845   3.432   5.070  13.184 -0.5471 -0.0127 -0.5507
 6452TIP3   OH240846   2.169   2.708  13.377 -0.4145 -0.3512 -0.0078
 6452TIP3    H140847   2.175   2.802  13.360 -0.4017 -0.4056 -0.3084
 6452TIP3    H240848   2.248   2.688  13.427 -0.4326 -0.1960  0.0842
 6453TIP3   OH240849   3.868   3.687   3.669 -0.4004  0.7570  0.0490
 6453TIP3    H140850   3.783   3.644   3.666 -0.4961  0.9811 -1.4152
 6453TIP3    H240851   3.929   3.621   3.636  0.0995  0.4106  1.6060
 6454TIP3   OH240852   6.606   0.261  13.272 -0.1103 -0.0624 -0.4639
 6454TIP3    H140853   6.539   0.192  13.279 -1.8455  1.6578  1.3026
 6454TIP3    H240854   6.573   0.319  13.204 -0.4958  0.8205  0.4498
 6455TIP3   OH240855   1.094   4.642  11.984  0.1118 -0.8488  0.0420
 6455TIP3    H140856   1.143   4.652  11.903  0.7522  0.8875  0.5963
 6455TIP3    H240857   1.157   4.606  12.046  0.5998  0.8969  0.6147
 6456TIP3   OH240858   2.682   5.993  11.108 -0.5209 -0.7532  0.1642
 6456TIP3    H140859   2.668   5.982  11.014  3.9374 -0.1508 -0.7611
 6456TIP3    H240860   2.675   5.904  11.144 -1.7374 -1.0534 -0.7452
 6457TIP3   OH240861   2.747   2.372  16.783  0.0431  0.7039  0.4683
 6457TIP3    H140862   2.788   2.446  16.828 -1.6567  1.5454  0.6987
 6457TIP3    H240863   2.801   2.297  16.807  1.4990  1.7696  0.6561
 6458TIP3   OH240864   0.116   2.054   0.405  0.0509 -0.8714  0.3625
 6458TIP3    H140865   0.094   2.089   0.491 -1.2928 -2.4211  0.7057
 6458TIP3    H240866   0.118   2.130   0.347 -0.5811  0.0099  1.4601
 6459TIP3   OH240867   2.263   5.743  11.890 -0.3364  0.3326 -0.0696
 6459TIP3    H140868   2.351   5.765  11.859 -0.1721  2.8161  1.8146
 6459TIP3    H240869   2.211   5.821  11.869 -1.9464 -0.8330 -0.5396
 6460TIP3   OH240870   3.100   2.317  12.823 -0.3837 -0.0763  0.0961
 6460TIP3    H140871   3.161   2.297  12.894 -1.1506 -3.0307  0.0745
 6460TIP3    H240872   3.027   2.363  12.865 -0.1577 -0.4935  0.9521
 6461TIP3   OH240873   6.828   1.935   6.130 -0.0230 -0.8504 -0.0998
 6461TIP3    H140874   6.825   1.968   6.219 -1.0064  0.5090 -0.6104
 6461TIP3    H240875   6.737   1.923   6.105  0.0301  1.6850 -1.9149
 6462TIP3   OH240876   2.859   0.918  16.736 -0.2460  0.3604  0.0476
 6462TIP3    H140877   2.833   0.869  16.815  1.0525  0.7914  0.7736
 6462TIP3    H240878   2.911   0.991  16.770  0.1958  0.6478 -1.2123
 6463TIP3   OH240879   6.835   5.349   0.248 -0.9909  0.3907 -0.1417
 6463TIP3    H140880   6.885   5.388   0.319 -1.7963  0.2928  0.5000
 6463TIP3    H240881   6.787   5.423   0.210  1.5633  1.0018 -2.4911
 6464TIP3   OH240882   0.449   0.607  13.691 -0.4124  0.2754 -0.3164
 6464TIP3    H140883   0.482   0.695  13.711  1.2950 -0.7493  1.9123
 6464TIP3    H240884   0.516   0.570  13.633  0.2288 -0.3726  0.8020
 6465TIP3   OH240885   1.358   3.054  14.705 -0.0629  0.3154  0.2051
 6465TIP3    H140886   1.357   3.141  14.747 -3.1703  0.7968 -0.5481
 6465TIP3    H240887   1.267   3.024  14.711  0.8100 -2.7066 -0.0330
 6466TIP3   OH240888   3.665   5.013   5.831 -0.0809  0.6122 -0.3353
 6466TIP3    H140889   3.675   5.108   5.840  0.6809  0.4190  1.2319
 6466TIP3    H240890   3.624   5.001   5.745  2.1230  2.2304 -1.7223
 6467TIP3   OH240891   2.959   6.740  11.969  0.2511 -0.2598  0.0784
 6467TIP3    H140892   2.960   6.645  11.983  1.2227 -0.5067 -1.5354
 6467TIP3    H240893   3.039   6.759  11.921  0.1277  1.4193  0.4589
 6468TIP3   OH240894   1.567   3.280  16.165 -0.7665 -0.2728 -0.1108
 6468TIP3    H140895   1.518   3.258  16.243 -0.1975  0.6264  0.5241
 6468TIP3    H240896   1.659   3.265  16.189 -0.6411 -0.8115 -0.8887
 6469TIP3   OH240897   1.143   2.684  13.120 -0.2633  0.7012 -1.1363
 6469TIP3    H140898   1.160   2.776  13.098 -1.2530  1.0289 -0.5996
 6469TIP3    H240899   1.226   2.652  13.153  0.1731  1.3206 -1.6011
 6470TIP3   OH240900   6.190   6.370   4.906 -0.4065  0.4948  0.7640
 6470TIP3    H140901   6.282   6.368   4.931  0.7353  2.4964 -2.6868
 6470TIP3    H240902   6.152   6.440   4.960  1.2490  2.7195 -0.7991
 6471TIP3   OH240903   2.471   3.911  15.514  0.1594  0.4073 -0.3565
 6471TIP3    H140904   2.388   3.958  15.502  0.9489  1.9059 -0.2135
 6471TIP3    H240905   2.460   3.866  15.598 -0.8982 -0.3013 -0.8541
 6472TIP3   OH240906   3.654   2.402   1.961 -0.1636 -0.2528  0.0235
 6472TIP3    H140907   3.657   2.466   1.889  2.2533  1.1660  1.2787
 6472TIP3    H240908   3.737   2.356   1.956 -0.7672 -1.4636  0.7978
 6473TIP3   OH240909   3.008   5.675  15.762  0.2892 -0.0228 -0.2254
 6473TIP3    H140910   3.064   5.714  15.694 -0.1771  1.3445  0.1265
 6473TIP3    H240911   3.068   5.656  15.834  0.5684 -0.1353 -0.4872
 6474TIP3   OH240912   4.153   6.609  10.364  0.2505 -0.0807  0.3660
 6474TIP3    H140913   4.073   6.662  10.355  0.6747  0.2334 -3.4296
 6474TIP3    H240914   4.121   6.522  10.388 -0.9191  0.7064  1.8181
 6475TIP3   OH240915   6.466   1.093   3.640  0.3448  0.1664  0.2358
 6475TIP3    H140916   6.493   1.182   3.621  0.7836  0.0344  0.2348
 6475TIP3    H240917   6.401   1.072   3.573 -0.0248  0.6079  0.4517
 6476TIP3   OH240918   2.755   4.228  15.374 -0.0897  0.0264  0.0242
 6476TIP3    H140919   2.773   4.234  15.280  1.0172  0.0498  0.2158
 6476TIP3    H240920   2.842   4.229  15.414 -0.5367 -0.4209  1.0258
 6477TIP3   OH240921   3.290   0.512  13.722 -0.1925 -0.2269  0.0381
 6477TIP3    H140922   3.303   0.417  13.727 -1.4531 -0.3649  1.2273
 6477TIP3    H240923   3.245   0.535  13.803 -1.4318  1.1387 -0.9740
 6478TIP3   OH240924   3.782   5.081  15.269  0.7305  0.1552 -0.2795
 6478TIP3    H140925   3.831   5.162  15.256  1.8176 -0.3745  0.4086
 6478TIP3    H240926   3.820   5.041  15.347 -2.1455  0.6848  1.5127
 6479TIP3   OH240927   4.297   6.629  13.728  0.0437 -0.1697  0.3183
 6479TIP3    H140928   4.350   6.553  13.754  2.5357  1.2685 -0.2270
 6479TIP3    H240929   4.328   6.650  13.640 -2.4968 -0.0722 -0.6272
 6480TIP3   OH240930   4.890   6.426   6.327 -0.0397 -0.1244 -0.5916
 6480TIP3    H140931   4.851   6.347   6.364  0.1904  0.2038  0.3796
 6480TIP3    H240932   4.980   6.400   6.304 -0.3916 -0.5167 -1.6006
 6481TIP3   OH240933   1.935   5.824   0.711 -0.2183  0.0162  0.3634
 6481TIP3    H140934   2.026   5.849   0.728 -0.1098 -0.0130 -0.1510
 6481TIP3    H240935   1.885   5.903   0.730 -0.0602  0.1023  0.4312
 6482TIP3   OH240936   4.235   1.329  10.812 -0.2686  0.0191  0.2795
 6482TIP3    H140937   4.194   1.264  10.755 -1.0050  0.6410  0.0920
 6482TIP3    H240938   4.307   1.282  10.854  0.4878 -0.3758 -1.3866
 6483TIP3   OH240939   5.023   5.871  16.491  0.0354  0.1428  0.6679
 6483TIP3    H140940   5.102   5.840  16.534  1.5513  0.8613 -1.4489
 6483TIP3    H240941   5.034   5.966  16.485  1.1986 -0.0585 -3.4078
 6484TIP3   OH240942   0.742   4.958   3.643  0.3792 -0.4443  0.0899
 6484TIP3    H140943   0.681   5.017   3.687  1.2784  1.0400 -0.5642
 6484TIP3    H240944   0.821   4.961   3.697  0.4225 -1.1038  0.0754
 6485TIP3   OH240945   2.394   0.853   4.310 -0.0817 -0.1817 -0.0540
 6485TIP3    H140946   2.445   0.864   4.391  0.4166 -1.9419 -0.0866
 6485TIP3    H240947   2.305   0.835   4.340 -0.0081 -0.3016  0.0946
 6486TIP3   OH240948   4.754   5.677  15.809 -0.5022  0.0533 -0.5015
 6486TIP3    H140949   4.754   5.731  15.888  1.3858  0.3969 -0.7037
 6486TIP3    H240950   4.665   5.686  15.774 -1.1858  0.3916  1.2305
 6487TIP3   OH240951   6.245   1.129  16.210  0.2851  0.1293 -0.0906
 6487TIP3    H140952   6.257   1.195  16.278 -2.8332  1.0735 -0.2619
 6487TIP3    H240953   6.330   1.086  16.202  1.9063  2.7784  1.4267
 6488TIP3   OH240954   6.072   4.882   0.431 -0.5810  0.2550  0.0972
 6488TIP3    H140955   6.087   4.866   0.524  1.4677 -1.1637 -0.4216
 6488TIP3    H240956   5.979   4.863   0.418 -0.7469 -0.1448  1.7262
 6489TIP3   OH240957   3.397   5.250   4.005 -0.4949 -0.4955 -0.0255
 6489TIP3    H140958   3.341   5.259   3.928 -1.3753  1.4557  0.7789
 6489TIP3    H240959   3.340   5.270   4.079  0.3623 -2.1999  1.1695
 6490TIP3   OH240960   6.261   6.568  12.624  0.1095  0.2477 -0.0058
 6490TIP3    H140961   6.347   6.608  12.614  0.9579 -1.1929  1.1174
 6490TIP3    H240962   6.259   6.500  12.556 -0.6053  1.0064 -0.7556
 6491TIP3   OH240963   5.163   1.208   4.295  0.2654 -0.5266 -0.0967
 6491TIP3    H140964   5.254   1.181   4.294  0.5567  0.3961  0.2535
 6491TIP3    H240965   5.165   1.297   4.330 -0.9021 -0.9954  1.2340
 6492TIP3   OH240966   5.030   5.559  11.479  0.0623  0.0664  1.0450
 6492TIP3    H140967   4.987   5.495  11.536 -1.0710  0.6817  0.9136
 6492TIP3    H240968   5.120   5.562  11.510  0.4527 -2.3646  0.3822
 6493TIP3   OH240969   0.808   3.251   1.934 -0.2434  0.5781 -0.2888
 6493TIP3    H140970   0.853   3.206   1.862  0.5692  0.9979 -0.0584
 6493TIP3    H240971   0.739   3.302   1.892  1.0210  1.8285 -0.9298
 6494TIP3   OH240972   2.698   6.623  10.476 -0.5110  0.4759  0.1731
 6494TIP3    H140973   2.611   6.598  10.506 -0.7258  0.2308 -0.6212
 6494TIP3    H240974   2.705   6.586  10.388  0.2083  0.9133  0.0323
 6495TIP3   OH240975   0.647   2.630   2.666  0.0024  0.3642  0.4547
 6495TIP3    H140976   0.735   2.654   2.636 -0.2992  0.8357 -0.0791
 6495TIP3    H240977   0.639   2.673   2.751 -0.0690  1.1449  0.0632
 6496TIP3   OH240978   1.407   1.636  16.040 -0.2076 -0.5325 -0.8029
 6496TIP3    H140979   1.314   1.656  16.042 -0.5927 -2.0340 -2.1646
 6496TIP3    H240980   1.430   1.637  15.947  1.5773  1.5410 -0.4428
 6497TIP3   OH240981   2.739   1.166  15.386  1.4100 -0.2713  0.0502
 6497TIP3    H140982   2.697   1.241  15.428  1.5586 -1.0225  1.6137
 6497TIP3    H240983   2.792   1.205  15.316  1.1228  1.0320  0.5183
 6498TIP3   OH240984   2.034   6.838   3.101 -0.5303  0.0139 -0.0030
 6498TIP3    H140985   1.989   6.822   3.184 -0.7962  1.4398  0.1465
 6498TIP3    H240986   2.042   6.933   3.095  1.7886 -0.1304 -0.3836
 6499TIP3   OH240987   2.987   0.537   0.668 -0.2281 -0.2325  0.7587
 6499TIP3    H140988   2.981   0.595   0.592  0.4576  1.8589  2.2132
 6499TIP3    H240989   3.068   0.489   0.655 -0.2846 -0.1354  0.0115
 6500TIP3   OH240990   4.770   0.512   3.893  0.1841 -0.0229 -0.4043
 6500TIP3    H140991   4.748   0.490   3.983 -0.7506 -3.1385 -1.2928
 6500TIP3    H240992   4.774   0.608   3.892  1.4669  0.1078  3.1799
 6501TIP3   OH240993   2.748   1.415  16.503 -0.1771  0.1462  0.5496
 6501TIP3    H140994   2.762   1.509  16.506 -0.0256  0.1360  0.2307
 6501TIP3    H240995   2.682   1.398  16.571 -0.3701  0.5074  0.4559
 6502TIP3   OH240996   6.038   6.739   1.857  0.1737 -0.0431  0.8011
 6502TIP3    H140997   5.944   6.726   1.863  0.0849 -0.7575 -1.2019
 6502TIP3    H240998   6.048   6.833   1.842 -0.1069  0.2302  2.2043
 6503TIP3   OH240999   5.452   5.136  12.459  0.0170  0.1857  0.1140
 6503TIP3    H141000   5.438   5.145  12.364 -3.4909 -2.1779  0.2033
 6503TIP3    H241001   5.410   5.213  12.497  0.2551  0.4625 -0.1734
 6504TIP3   OH241002   1.805   3.908  16.138  0.1786 -0.0188  0.2904
 6504TIP3    H141003   1.718   3.923  16.174 -1.5700 -3.0716 -2.1825
 6504TIP3    H241004   1.848   3.853  16.204 -0.0157  0.8326  1.1605
 6505TIP3   OH241005   6.656   4.803   0.349  0.1690 -0.4354 -0.1459
 6505TIP3    H141006   6.701   4.813   0.433  0.0089  0.4799 -0.1611
 6505TIP3    H241007   6.600   4.726   0.361 -1.6394  1.0213  1.4385
 6506TIP3   OH241008   5.361   3.228   4.164 -0.1156  0.2132  0.4457
 6506TIP3    H141009   5.405   3.213   4.080 -1.4579 -2.5050  0.1098
 6506TIP3    H241010   5.422   3.283   4.213  0.7111  1.9385 -2.2611
 6507TIP3   OH241011   5.488   0.657   1.560 -0.3407  0.3246 -0.1131
 6507TIP3    H141012   5.550   0.588   1.585 -1.7219 -0.2140  2.2211
 6507TIP3    H241013   5.526   0.738   1.595  0.0912  0.3602 -0.6578
 6508TIP3   OH241014   5.763   0.422   2.886 -0.1268  0.4638  0.0073
 6508TIP3    H141015   5.715   0.405   2.967 -0.0613 -0.7275 -0.1779
 6508TIP3    H241016   5.702   0.472   2.832 -0.1710  1.2672  0.7741
 6509TIP3   OH241017   3.895   1.065  12.345 -0.0251  0.0824  0.3275
 6509TIP3    H141018   3.811   1.084  12.303  0.6624  2.5038 -0.1319
 6509TIP3    H241019   3.921   0.980  12.309 -0.5963  0.9513 -2.3952
 6510TIP3   OH241020   5.483   6.225   2.181  0.1273 -0.1773  0.0439
 6510TIP3    H141021   5.466   6.131   2.177  0.4426 -0.1966 -1.9108
 6510TIP3    H241022   5.399   6.266   2.162 -0.1350 -0.0121  1.4199
 6511TIP3   OH241023   0.276   1.528   0.843  0.7609 -0.9533 -0.3049
 6511TIP3    H141024   0.258   1.526   0.937 -2.8933  3.5916 -0.4889
 6511TIP3    H241025   0.356   1.580   0.835 -0.6059  1.4319  0.4388
 6512TIP3   OH241026   6.827   3.542  14.083 -0.3773  0.0636  0.2818
 6512TIP3    H141027   6.797   3.628  14.053 -0.9677  1.1335  3.5225
 6512TIP3    H241028   6.915   3.557  14.116 -0.4193 -0.5875  0.7189
 6513TIP3   OH241029   4.297   3.810  12.948  0.6086 -0.5279 -0.0255
 6513TIP3    H141030   4.390   3.834  12.942  0.9001 -1.0450  1.8119
 6513TIP3    H241031   4.298   3.715  12.958 -0.1054 -0.4948  0.4059
 6514TIP3   OH241032   5.299   5.899  13.550  0.0593  0.1855  0.3280
 6514TIP3    H141033   5.299   5.815  13.503 -0.8716  0.1646  0.3330
 6514TIP3    H241034   5.206   5.923  13.554  0.2174  0.6416  1.3464
 6515TIP3   OH241035   3.375   0.510  14.901  0.1659 -0.5410  0.7214
 6515TIP3    H141036   3.461   0.506  14.859  1.8504 -0.8508  3.9114
 6515TIP3    H241037   3.347   0.601  14.888 -0.1500 -0.9519 -2.1968
 6516TIP3   OH241038   2.664   1.008   4.628  0.4136 -0.2602  0.3969
 6516TIP3    H141039   2.679   0.948   4.701 -1.9897 -0.5652  0.7195
 6516TIP3    H241040   2.571   0.998   4.608  1.0592 -0.4915 -3.0204
 6517TIP3   OH241041   2.983   6.170   4.553  0.3031 -0.0311 -0.2841
 6517TIP3    H141042   2.931   6.099   4.589  0.0854  1.2612  2.1257
 6517TIP3    H241043   3.064   6.170   4.604  0.7430  0.8267 -0.9370
 6518TIP3   OH241044   5.678   4.218   0.666 -0.1785  0.1450 -0.5066
 6518TIP3    H141045   5.587   4.214   0.639  0.1088  1.2612 -1.7379
 6518TIP3    H241046   5.708   4.127   0.663 -1.0324 -0.1338 -0.8731
 6519TIP3   OH241047   4.316   5.729   6.208 -0.3128  0.9614  0.8405
 6519TIP3    H141048   4.339   5.649   6.160 -1.6274  1.5505 -0.8787
 6519TIP3    H241049   4.352   5.716   6.296  1.2526 -0.6349  0.0152
 6520TIP3   OH241050   1.908   3.467  15.112 -0.0113 -0.4634  0.0559
 6520TIP3    H141051   1.909   3.374  15.088 -0.0875 -0.6118  0.6321
 6520TIP3    H241052   1.991   3.480  15.158 -0.0309 -0.2588  0.0332
 6521TIP3   OH241053   5.067   5.654  12.018  0.2534  0.5038 -0.0120
 6521TIP3    H141054   5.037   5.563  12.026  1.4649  0.0352 -0.4336
 6521TIP3    H241055   5.006   5.695  11.958 -1.0978  0.3514  1.2102
 6522TIP3   OH241056   3.287   2.670   4.345 -0.0619 -0.2428  0.2531
 6522TIP3    H141057   3.241   2.747   4.311 -1.4192 -1.0430  0.2156
 6522TIP3    H241058   3.218   2.615   4.382  0.5235 -2.5088 -1.7685
 6523TIP3   OH241059   3.550   4.027   2.595  0.0949  0.1278 -0.9682
 6523TIP3    H141060   3.498   4.102   2.625  0.3969  1.2470 -3.0319
 6523TIP3    H241061   3.640   4.049   2.622 -0.0514 -0.3352 -0.0776
 6524TIP3   OH241062   2.913   4.330   0.826  0.6611 -0.2330  0.1545
 6524TIP3    H141063   2.953   4.288   0.750  2.6206  0.9793  0.4238
 6524TIP3    H241064   2.972   4.309   0.899  0.0722  0.5065  0.8702
 6525TIP3   OH241065   0.090   1.625   0.543  0.3200  0.1894 -0.2241
 6525TIP3    H141066   0.170   1.572   0.540  0.6232  0.6620 -0.8286
 6525TIP3    H241067   0.036   1.583   0.609  1.6824  0.7225  1.2925
 6526TIP3   OH241068   3.306   3.518  11.735  0.4006 -0.3361 -0.6362
 6526TIP3    H141069   3.372   3.540  11.802 -0.2104 -0.4120  0.0040
 6526TIP3    H241070   3.288   3.601  11.691  0.2298 -0.1255 -0.1732
 6527TIP3   OH241071   6.063   2.979  13.113 -0.3520 -0.1349 -0.4634
 6527TIP3    H141072   6.100   2.902  13.156 -1.8018 -0.9028 -0.5118
 6527TIP3    H241073   6.050   2.952  13.022  0.3066  0.6027 -0.7827
 6528TIP3   OH241074   4.591   2.061   3.034 -0.8902 -0.1425  0.1597
 6528TIP3    H141075   4.654   2.057   3.105 -2.0742 -1.7705  1.1917
 6528TIP3    H241076   4.535   2.136   3.055 -0.4760  0.1316  0.2780
 6529TIP3   OH241077   6.339   4.198   0.437  0.3729  0.3891 -0.5179
 6529TIP3    H141078   6.321   4.240   0.521  2.0250  0.3557 -0.1022
 6529TIP3    H241079   6.271   4.131   0.428  0.3241  0.2129  0.9194
 6530TIP3   OH241080   2.480   1.329  11.154  0.2448  0.1380  0.2218
 6530TIP3    H141081   2.507   1.358  11.067 -1.1493  1.8582  0.3093
 6530TIP3    H241082   2.525   1.389  11.214  0.5424 -0.5096  0.6586
 6531TIP3   OH241083   5.831   3.847  11.039  0.2501  0.4227  0.2715
 6531TIP3    H141084   5.865   3.869  10.952 -0.5860 -1.1957 -0.5146
 6531TIP3    H241085   5.819   3.752  11.037 -0.7267  0.4726  1.8196
 6532TIP3   OH241086   6.358   4.172   4.853  0.6839 -0.0089 -0.2024
 6532TIP3    H141087   6.321   4.159   4.766 -0.9517  0.0283  0.4552
 6532TIP3    H241088   6.418   4.247   4.843  1.5858 -0.8691 -1.5584
 6533TIP3   OH241089   4.165   4.958  16.769  0.1949  0.7849  0.2560
 6533TIP3    H141090   4.119   4.873  16.772  1.7719 -0.2143 -1.3415
 6533TIP3    H241091   4.098   5.020  16.740 -0.3109 -0.5872 -1.8043
 6534TIP3   OH241092   6.603   6.809   2.720 -0.2743 -0.2243 -0.2536
 6534TIP3    H141093   6.678   6.757   2.691  1.1846  1.0947  0.9682
 6534TIP3    H241094   6.585   6.868   2.647 -0.2981 -0.7131 -0.6477
 6535TIP3   OH241095   4.564   0.370   4.085 -0.1525 -0.2650 -0.0067
 6535TIP3    H141096   4.505   0.368   4.161 -0.0938  0.3024  0.0656
 6535TIP3    H241097   4.543   0.292   4.035  1.7235 -2.2314  2.0237
 6536TIP3   OH241098   1.475   4.724   1.331  0.1634 -1.3110 -0.1174
 6536TIP3    H141099   1.502   4.816   1.329 -0.7270 -1.0214  0.4865
 6536TIP3    H241100   1.500   4.693   1.418 -1.2395 -1.0841  0.3937
 6537TIP3   OH241101   4.335   2.449  11.265  1.0215  0.0559 -0.7820
 6537TIP3    H141102   4.292   2.386  11.207 -0.1699 -0.9464  1.1015
 6537TIP3    H241103   4.428   2.435  11.251  0.7591 -0.6137 -1.9512
 6538TIP3   OH241104   4.984   4.038  13.577 -0.3744  0.4894  0.3502
 6538TIP3    H141105   5.075   4.069  13.578 -0.1283  0.2119 -2.9005
 6538TIP3    H241106   4.933   4.110  13.613  0.9390  1.5151  0.2201
 6539TIP3   OH241107   4.174   6.445  12.512  0.3074 -0.1347  0.0715
 6539TIP3    H141108   4.194   6.511  12.578  1.2800 -0.0482 -0.3026
 6539TIP3    H241109   4.130   6.375  12.561  0.5562  0.1493  0.7148
 6540TIP3   OH241110   0.189   0.102   3.547  0.1755  0.0065  0.3644
 6540TIP3    H141111   0.109   0.106   3.599 -1.8533 -1.7526 -2.3618
 6540TIP3    H241112   0.215   0.010   3.550  1.2195  0.2810 -0.0073
 6541TIP3   OH241113   5.074   0.533   3.953 -0.0245 -0.3911  0.3184
 6541TIP3    H141114   4.994   0.480   3.964 -1.3407  1.5421  0.5582
 6541TIP3    H241115   5.132   0.503   4.023  0.0997 -2.8177 -0.7087
 6542TIP3   OH241116   0.972   5.375  16.352 -0.0948  0.0784 -0.0210
 6542TIP3    H141117   1.004   5.431  16.423  0.3440  1.0245 -0.9358
 6542TIP3    H241118   0.882   5.405  16.336  0.3833  1.0701 -1.0041
 6543TIP3   OH241119   3.969   3.125  13.763  0.6744 -0.4585  0.2605
 6543TIP3    H141120   3.999   3.035  13.771 -0.5660 -1.1260 -1.8924
 6543TIP3    H241121   3.874   3.118  13.750  0.7230  1.0636 -1.2121
 6544TIP3   OH241122   4.601   1.216  13.640 -0.0541 -0.1364 -0.0569
 6544TIP3    H141123   4.625   1.123  13.649  0.0492 -0.1369 -0.3428
 6544TIP3    H241124   4.666   1.263  13.692 -0.4329 -0.2642  0.5426
 6545TIP3   OH241125   2.614   4.480  12.622  0.4996 -0.7299  0.3526
 6545TIP3    H141126   2.538   4.472  12.564  0.6334  2.0661 -0.3386
 6545TIP3    H241127   2.615   4.572  12.648  2.0463 -1.3150  2.6551
 6546TIP3   OH241128   6.214   3.968   0.351 -0.2956  0.0382  0.2040
 6546TIP3    H141129   6.215   3.872   0.358  1.1623 -0.0222 -0.3385
 6546TIP3    H241130   6.170   3.986   0.268  2.2443 -0.3815 -1.3518
 6547TIP3   OH241131   4.142   4.093   1.901 -0.0620 -0.5832 -0.2789
 6547TIP3    H141132   4.236   4.099   1.887  0.1657 -2.7432  0.0356
 6547TIP3    H241133   4.130   4.112   1.994  0.0829 -0.5152 -0.2749
 6548TIP3   OH241134   2.833   4.582  11.489 -0.1105  0.3287 -0.3912
 6548TIP3    H141135   2.861   4.540  11.570 -0.3279  1.8795  0.5215
 6548TIP3    H241136   2.902   4.561  11.426  1.2559  0.9958  0.8192
 6549TIP3   OH241137   4.574   2.771  14.609 -0.1367 -0.5477 -0.4399
 6549TIP3    H141138   4.643   2.835  14.625 -0.5373  0.3830 -2.0992
 6549TIP3    H241139   4.539   2.750  14.695  1.1023  0.2358  0.2718
 6550TIP3   OH241140   1.113   5.609  12.117  0.2881  0.3038  0.1541
 6550TIP3    H141141   1.165   5.613  12.198  1.8210  0.2304 -0.7869
 6550TIP3    H241142   1.045   5.544  12.135  2.0740 -1.5583  0.5980
 6551TIP3   OH241143   5.357   4.165   1.188  0.1824  0.3271  0.3212
 6551TIP3    H141144   5.313   4.231   1.242  1.5650 -0.2984  2.3404
 6551TIP3    H241145   5.287   4.107   1.159 -0.6671  0.9639  1.0332
 6552TIP3   OH241146   5.490   3.893  12.097  0.2670 -0.0064  0.0635
 6552TIP3    H141147   5.447   3.949  12.033 -0.4418  1.4352  1.7063
 6552TIP3    H241148   5.511   3.813  12.049 -2.3507  0.0531 -1.3692
 6553TIP3   OH241149   1.535   0.254   4.805  0.2474  0.1233  0.8834
 6553TIP3    H141150   1.621   0.294   4.796  1.2571 -2.1860 -0.7630
 6553TIP3    H241151   1.473   0.322   4.780  1.7065  1.2848  0.3071
 6554TIP3   OH241152   0.682   6.011  10.917 -0.6468  0.2030 -0.8242
 6554TIP3    H141153   0.671   6.061  10.837 -1.6014  1.1592 -0.1209
 6554TIP3    H241154   0.753   6.054  10.964 -1.0127  0.4923 -0.5300
 6555TIP3   OH241155   2.143   2.216   2.210  0.8053  0.2534  0.2296
 6555TIP3    H141156   2.172   2.127   2.232 -1.5291 -1.4498 -2.7873
 6555TIP3    H241157   2.183   2.234   2.126 -1.0953  0.7311 -0.6299
 6556TIP3   OH241158   2.294   3.454  15.586 -0.5277  0.2346 -0.5411
 6556TIP3    H141159   2.247   3.524  15.632 -0.9744 -0.8310  0.6774
 6556TIP3    H241160   2.345   3.410  15.655 -0.8796 -1.1381 -1.1243
 6557TIP3   OH241161   3.980   5.670  11.919 -0.2770 -0.2218 -0.1176
 6557TIP3    H141162   3.903   5.620  11.945 -0.8053  0.1642 -0.8965
 6557TIP3    H241163   3.954   5.762  11.929 -0.1037 -0.0833 -0.8661
 6558TIP3   OH241164   2.929   0.536  11.264 -0.1055 -0.5090 -0.2301
 6558TIP3    H141165   2.954   0.458  11.314  0.5187  0.1666  0.5601
 6558TIP3    H241166   2.964   0.609  11.316 -1.4670  0.3445 -0.4760
 6559TIP3   OH241167   1.289   0.011  12.367  0.5013 -0.6128  0.0717
 6559TIP3    H141168   1.344   0.089  12.377 -0.3316  0.1750 -1.1053
 6559TIP3    H241169   1.250  -0.002  12.453  0.0301  0.7855  0.1023
 6560TIP3   OH241170   1.232   2.981  15.881  0.1166 -0.1660 -0.5880
 6560TIP3    H141171   1.159   3.015  15.932  1.5460  0.1279  1.3934
 6560TIP3    H241172   1.305   3.040  15.901  1.4568 -1.6849 -0.7599
 6561TIP3   OH241173   4.584   5.999  13.538  0.6489 -0.1542  0.4862
 6561TIP3    H141174   4.669   6.038  13.557  0.5863  0.2103  0.0351
 6561TIP3    H241175   4.589   5.974  13.445  0.8534 -1.6570  0.8714
 6562TIP3   OH241176   0.042   3.659  14.407 -0.3435  0.3973 -0.0371
 6562TIP3    H141177  -0.053   3.647  14.405 -0.0272 -3.2625  0.4524
 6562TIP3    H241178   0.067   3.663  14.314 -0.8914  0.4807 -0.1864
 6563TIP3   OH241179   4.176   6.817  11.318  0.0269 -0.5447  0.3049
 6563TIP3    H141180   4.150   6.909  11.315 -0.4366 -0.6991 -1.4117
 6563TIP3    H241181   4.121   6.778  11.386  0.6635  0.5435  1.4885
 6564TIP3   OH241182   0.359   3.935   5.581 -0.0238  0.1849 -0.1408
 6564TIP3    H141183   0.444   3.910   5.616 -0.8885 -1.3155  1.0090
 6564TIP3    H241184   0.331   4.010   5.634 -0.8569 -1.4167  1.8020
 6565TIP3   OH241185   1.553   2.557  12.781  0.3602  0.8706  0.2427
 6565TIP3    H141186   1.587   2.468  12.780  0.0729  0.7641 -0.6904
 6565TIP3    H241187   1.628   2.611  12.806  0.5985  0.3989  0.5556
 6566TIP3   OH241188   5.459   0.341   2.166 -0.0087  0.2614 -1.0477
 6566TIP3    H141189   5.435   0.433   2.155  0.8369  0.5826 -0.2748
 6566TIP3    H241190   5.553   0.338   2.149  0.1922 -0.2437  0.0656
 6567TIP3   OH241191   2.064   6.547  13.277 -0.3601  0.1021 -0.3580
 6567TIP3    H141192   2.125   6.575  13.208 -0.4609  0.1785 -0.4161
 6567TIP3    H241193   2.007   6.623  13.290 -0.3400  0.0880 -0.1874
 6568TIP3   OH241194   5.935   0.925   4.989 -0.0387 -0.5331  0.4496
 6568TIP3    H141195   6.020   0.939   4.946 -1.0686  0.1751 -1.5295
 6568TIP3    H241196   5.912   1.011   5.024 -0.0147 -0.6837  0.8328
 6569TIP3   OH241197   4.140   2.423  15.888 -0.8462 -0.2092  0.0297
 6569TIP3    H141198   4.221   2.474  15.881 -1.4615  0.6667 -1.1160
 6569TIP3    H241199   4.104   2.423  15.800 -1.4201 -1.7609  0.2309
 6570TIP3   OH241200   3.305   4.811  15.124  0.6268  0.2900  0.2177
 6570TIP3    H141201   3.389   4.833  15.084  1.5142 -0.4768  1.5622
 6570TIP3    H241202   3.241   4.821  15.054  1.7322  1.5514 -0.6726
 6571TIP3   OH241203   0.166   0.921  10.843  0.1539 -0.4088  0.2467
 6571TIP3    H141204   0.201   0.893  10.758 -0.5049 -1.0406  0.1690
 6571TIP3    H241205   0.213   1.002  10.863  1.0432 -0.7840 -0.2423
 6572TIP3   OH241206   1.344   0.601  15.273 -0.3758 -0.4553 -0.3238
 6572TIP3    H141207   1.405   0.534  15.302  0.4823  0.1272 -0.7294
 6572TIP3    H241208   1.307   0.637  15.353 -0.1168 -0.7453 -0.0737
 6573TIP3   OH241209   1.713   6.435  16.916 -0.5545  0.0960  0.0494
 6573TIP3    H141210   1.712   6.468  17.006 -0.7713 -2.4329  1.0520
 6573TIP3    H241211   1.622   6.441  16.887 -0.7116 -0.2324  0.4640
 6574TIP3   OH241212   4.335   2.918  10.923 -0.0337  0.4316 -0.9745
 6574TIP3    H141213   4.255   2.969  10.911  0.5741  1.4652 -0.6834
 6574TIP3    H241214   4.305   2.827  10.922 -1.2212  0.8037 -0.8001
 6575TIP3   OH241215   0.626   5.688   3.278  0.2793 -0.0612 -0.5406
 6575TIP3    H141216   0.694   5.634   3.317 -1.2641 -0.3587  1.9679
 6575TIP3    H241217   0.557   5.627   3.254  0.4694  0.3315 -2.2526
 6576TIP3   OH241218   4.872   1.708   3.572  0.2453 -0.4762 -0.2760
 6576TIP3    H141219   4.793   1.733   3.619  0.9600  0.0258  0.6885
 6576TIP3    H241220   4.927   1.787   3.573  1.3365 -1.2201  0.2912
 6577TIP3   OH241221   0.077   3.381  16.921  0.1688  0.5575 -0.1916
 6577TIP3    H141222  -0.018   3.370  16.912  0.1616  0.9034 -0.6272
 6577TIP3    H241223   0.113   3.336  16.844  0.2831  1.3569 -0.6189
 6578TIP3   OH241224   5.514   1.569   6.270  0.2938  0.2271 -0.2517
 6578TIP3    H141225   5.608   1.572   6.251  0.3571  1.1434  0.1472
 6578TIP3    H241226   5.485   1.660   6.262 -0.8308 -0.2162 -1.6735
 6579TIP3   OH241227   3.208   4.631  16.332 -0.2723  0.4240 -0.4018
 6579TIP3    H141228   3.124   4.648  16.374 -0.1878 -1.8596  0.8532
 6579TIP3    H241229   3.267   4.697  16.369 -1.3002  1.6406 -0.8211
 6580TIP3   OH241230   1.973   3.901   5.639  0.5269  0.3721  0.4202
 6580TIP3    H141231   2.053   3.928   5.684  0.3309  0.7984  0.5117
 6580TIP3    H241232   1.950   3.975   5.583  0.8175 -0.1838 -0.4611
 6581TIP3   OH241233   4.254   0.504   4.549  0.2422 -0.2963 -0.4044
 6581TIP3    H141234   4.227   0.446   4.621  1.6412 -0.0253  0.3845
 6581TIP3    H241235   4.174   0.520   4.500 -0.6667 -0.8879  0.8201
 6582TIP3   OH241236   6.109   5.898   0.889  0.4386  0.0336 -0.3945
 6582TIP3    H141237   6.180   5.856   0.937  0.9451 -1.2925 -2.2109
 6582TIP3    H241238   6.045   5.828   0.876 -0.2638  0.6973 -0.5708
 6583TIP3   OH241239   5.652   4.384   0.237 -0.1891  0.1458 -0.2131
 6583TIP3    H141240   5.710   4.314   0.266  0.5644  0.3429 -1.1922
 6583TIP3    H241241   5.633   4.363   0.145 -4.5511 -1.8834  0.9039
 6584TIP3   OH241242   5.374   4.416  11.957  0.0672  0.3599 -0.0895
 6584TIP3    H141243   5.403   4.491  11.904  1.3529 -0.3972 -0.4806
 6584TIP3    H241244   5.439   4.409  12.027  0.6005 -1.0690 -0.6954
 6585TIP3   OH241245   1.975   3.816  10.485 -0.2901 -0.2678  0.0979
 6585TIP3    H141246   1.948   3.814  10.393 -0.1320 -1.2413  0.0679
 6585TIP3    H241247   1.955   3.729  10.519  1.0215 -0.3980  0.5980
 6586TIP3   OH241248   4.730   4.173   3.731  0.1959  0.4992  0.4098
 6586TIP3    H141249   4.726   4.218   3.815  4.3266  0.4534  0.8340
 6586TIP3    H241250   4.751   4.082   3.753  0.1761  0.2214 -0.6533
 6587TIP3   OH241251   3.309   2.165   4.947 -0.6022 -0.0314 -0.0011
 6587TIP3    H141252   3.230   2.187   4.898 -0.3868  1.0961  0.1457
 6587TIP3    H241253   3.280   2.154   5.037 -0.6232  0.2076  0.0218
 6588TIP3   OH241254   3.423   3.325  15.680  0.0592 -0.2342 -0.0320
 6588TIP3    H141255   3.449   3.232  15.683 -0.8527 -0.4854  2.2525
 6588TIP3    H241256   3.504   3.373  15.697  0.2392 -0.6959  0.4401
 6589TIP3   OH241257   1.656   1.894   3.875  0.1165  0.0231 -0.6200
 6589TIP3    H141258   1.563   1.898   3.896  0.4152 -2.2415  1.7098
 6589TIP3    H241259   1.690   1.981   3.897 -1.0204  0.0369  1.3127
 6590TIP3   OH241260   2.436   5.490   4.252  0.2716  0.1332 -0.2264
 6590TIP3    H141261   2.514   5.542   4.268 -0.9759  1.2351  3.1071
 6590TIP3    H241262   2.376   5.549   4.207  0.7884 -0.3055 -1.5678
 6591TIP3   OH241263   2.470   6.361  15.229  0.2213  0.5880 -0.8172
 6591TIP3    H141264   2.555   6.346  15.188  1.3904  1.7997  0.9790
 6591TIP3    H241265   2.433   6.274  15.241  2.3146 -0.2178  0.4599
 6592TIP3   OH241266   0.637   1.827   1.567  0.3816 -0.6336  0.6659
 6592TIP3    H141267   0.638   1.892   1.498 -2.0169 -1.8038 -0.6008
 6592TIP3    H241268   0.581   1.865   1.635  2.0163  0.1406  1.6254
 6593TIP3   OH241269   2.837   3.997   1.009  0.0054 -0.1864 -0.4864
 6593TIP3    H141270   2.752   4.015   0.970 -0.4698 -2.6192 -0.7410
 6593TIP3    H241271   2.883   3.944   0.943  2.5931  2.6375 -1.2325
 6594TIP3   OH241272   5.427   2.958  15.956  1.0722 -0.3299  0.0828
 6594TIP3    H141273   5.516   2.956  15.919 -0.1434  1.2736 -3.4452
 6594TIP3    H241274   5.418   3.046  15.992  0.1948  0.5615 -2.0818
 6595TIP3   OH241275   6.190   3.717  12.551  0.6661  0.5397  0.3043
 6595TIP3    H141276   6.261   3.655  12.563  0.6127  0.5000  0.4153
 6595TIP3    H241277   6.110   3.664  12.553  0.5553  0.7322  1.4323
 6596TIP3   OH241278   0.342   3.087  16.121 -0.4021  0.1182 -0.1755
 6596TIP3    H141279   0.275   3.086  16.190  1.6973 -0.4683  2.0128
 6596TIP3    H241280   0.368   3.178  16.114  0.6882 -0.0599  1.2347
 6597TIP3   OH241281   1.497   6.140  15.816  0.6459  0.5257  0.3375
 6597TIP3    H141282   1.426   6.203  15.824 -0.8147 -0.8715 -0.9520
 6597TIP3    H241283   1.465   6.061  15.860  2.1406  0.3991  1.2833
 6598TIP3   OH241284   5.323   2.170   5.076  0.4213 -0.0767  0.2818
 6598TIP3    H141285   5.273   2.157   4.996  1.9650  1.4759 -1.0228
 6598TIP3    H241286   5.311   2.263   5.097  2.4296  0.2992  0.0619
 6599TIP3   OH241287   6.021   2.145   1.764 -0.3287 -0.1302  0.4985
 6599TIP3    H141288   6.015   2.102   1.679 -2.5474  2.1012 -0.5854
 6599TIP3    H241289   6.081   2.090   1.814  0.3355 -2.0295 -2.1702
 6600TIP3   OH241290   2.063   3.992  13.697  0.1946 -0.5498 -0.6127
 6600TIP3    H141291   2.123   3.919  13.711  0.5190 -0.4433 -1.4341
 6600TIP3    H241292   2.119   4.066  13.674 -0.1845 -0.2131 -0.4756
 6601TIP3   OH241293   1.231   5.168  10.895 -0.2451  0.1435  0.6678
 6601TIP3    H141294   1.185   5.133  10.972 -0.7006  0.6173  0.6181
 6601TIP3    H241295   1.197   5.117  10.822 -0.0367 -0.1027  0.7414
 6602TIP3   OH241296   5.825   6.035  14.630 -0.7733 -0.1367  0.1337
 6602TIP3    H141297   5.867   5.968  14.576  0.9960 -1.3920  2.8310
 6602TIP3    H241298   5.790   5.987  14.705 -0.2174  1.8190  1.7453
 6603TIP3   OH241299   1.654   4.597   4.663  0.3777 -0.0518  0.0830
 6603TIP3    H141300   1.644   4.640   4.577  1.5326 -2.2667 -1.2269
 6603TIP3    H241301   1.694   4.664   4.718  0.2567  1.2071 -1.2837
 6604TIP3   OH241302   1.413   1.461  11.014 -0.0897  0.1219  0.3197
 6604TIP3    H141303   1.341   1.404  10.988 -1.6378  1.6680  1.0177
 6604TIP3    H241304   1.478   1.451  10.945 -1.0812 -1.1232 -0.4686
 6605TIP3   OH241305   1.903   0.921   0.380 -0.6192 -0.6526 -0.1115
 6605TIP3    H141306   1.834   0.903   0.317 -1.3489 -2.5760  1.1479
 6605TIP3    H241307   1.954   0.840   0.384  2.1913  0.8826 -1.4491
 6606TIP3   OH241308   6.851   1.200  15.669 -0.0172  0.1371  0.1546
 6606TIP3    H141309   6.870   1.116  15.628 -1.5509 -0.5446  0.7277
 6606TIP3    H241310   6.787   1.241  15.611  0.4246  0.7419  0.0860
 6607TIP3   OH241311   5.847   6.440   4.564 -0.6568  0.2644  0.7315
 6607TIP3    H141312   5.780   6.470   4.502 -1.6912 -1.6313  0.8638
 6607TIP3    H241313   5.798   6.420   4.644  0.3858  0.8054  1.5359
 6608TIP3   OH241314   0.702   6.865  15.581  0.3717  0.9786 -0.0395
 6608TIP3    H141315   0.781   6.817  15.605  0.0046  0.3709 -0.0444
 6608TIP3    H241316   0.712   6.950  15.623  1.0510  0.9230 -0.0772
 6609TIP3   OH241317   5.954   4.576   3.514 -0.3589  0.5428 -0.7913
 6609TIP3    H141318   5.881   4.528   3.553 -0.1164  1.1007  0.4227
 6609TIP3    H241319   6.032   4.532   3.550 -0.1247  0.8353 -0.9360
 6610TIP3   OH241320   1.774   3.741  12.213 -0.1442 -0.0892 -0.2110
 6610TIP3    H141321   1.730   3.826  12.210  0.2911  0.1208 -1.1933
 6610TIP3    H241322   1.867   3.762  12.228 -0.1704 -0.4548  0.5328
 6611TIP3   OH241323   4.737   4.435   5.664  0.2470  0.0472 -0.2789
 6611TIP3    H141324   4.748   4.530   5.662 -0.3777  0.1933  1.2834
 6611TIP3    H241325   4.695   4.414   5.581  0.5688  1.1161 -0.7269
 6612TIP3   OH241326   0.755   4.662   1.705  0.1092  0.0631  0.1180
 6612TIP3    H141327   0.710   4.747   1.703  0.8835  0.4844  0.1957
 6612TIP3    H241328   0.805   4.664   1.787  1.1651  0.0807 -0.5189
 6613TIP3   OH241329   5.707   1.334  11.285  0.5966 -0.0411 -0.8149
 6613TIP3    H141330   5.645   1.374  11.223 -1.6101  0.6487  1.6376
 6613TIP3    H241331   5.752   1.409  11.324 -1.3364  0.0120  1.5707
 6614TIP3   OH241332   2.574   3.219   5.001  0.3969 -0.0200  0.1006
 6614TIP3    H141333   2.555   3.264   4.919  1.1478 -1.2680 -0.7877
 6614TIP3    H241334   2.489   3.213   5.045  0.2192  1.9308  0.1149
 6615TIP3   OH241335   3.094   5.330   4.415  0.9383  0.3723  0.0703
 6615TIP3    H141336   3.082   5.418   4.380  1.6931 -0.0629 -1.3627
 6615TIP3    H241337   3.151   5.342   4.491  0.2843  1.2118  0.4411
 6616TIP3   OH241338   4.265   3.536  16.085  0.0612  0.0387  0.6030
 6616TIP3    H141339   4.250   3.442  16.076 -1.6445  0.3242  0.0442
 6616TIP3    H241340   4.359   3.545  16.096  0.2969 -1.7051  0.2101
 6617TIP3   OH241341   6.013   0.860   3.444 -0.2288  0.2077  0.0657
 6617TIP3    H141342   5.927   0.901   3.456  0.0832  0.6201  0.9648
 6617TIP3    H241343   5.994   0.771   3.415 -1.0003 -0.1781  1.6695
 6618TIP3   OH241344   1.699   2.690  13.050  0.9116 -0.1215  0.3290
 6618TIP3    H141345   1.716   2.780  13.080 -0.6464  0.9748 -1.7959
 6618TIP3    H241346   1.715   2.693  12.956  0.1895 -1.9109  0.1184
 6619TIP3   OH241347   2.242   6.622  16.906 -0.2518 -0.1042  0.0867
 6619TIP3    H141348   2.152   6.591  16.908 -0.1746 -0.4479 -1.0790
 6619TIP3    H241349   2.237   6.712  16.940 -1.1176  0.0896 -0.5271
 6620TIP3   OH241350   4.599   2.290  11.688 -0.2061 -0.3868  0.0582
 6620TIP3    H141351   4.622   2.207  11.730  0.9131 -0.2345 -0.2159
 6620TIP3    H241352   4.512   2.275  11.651 -0.4741 -1.0750  0.9500
 6621TIP3   OH241353   3.137   1.253   4.649 -0.2998  0.1188  0.0574
 6621TIP3    H141354   3.182   1.185   4.699 -0.3475  0.4285  0.5286
 6621TIP3    H241355   3.087   1.206   4.583  0.3209 -0.2562 -0.1461
 6622TIP3   OH241356   2.006   2.889   2.313  0.1698 -0.0560  0.1908
 6622TIP3    H141357   2.070   2.960   2.304 -1.6976  1.5098 -1.5684
 6622TIP3    H241358   2.054   2.811   2.284  2.0887  0.4883  1.6199
 6623TIP3   OH241359   6.170   1.402   6.110 -0.0422  0.3243 -0.1804
 6623TIP3    H141360   6.240   1.362   6.162 -0.5263 -0.3877 -0.0590
 6623TIP3    H241361   6.188   1.496   6.115  0.3438  0.2224  0.6594
 6624TIP3   OH241362   4.602   6.813  16.063 -0.1924  0.2822 -0.4547
 6624TIP3    H141363   4.527   6.754  16.060 -1.5151  1.9016 -3.1625
 6624TIP3    H241364   4.565   6.899  16.043  2.3256  1.1733 -1.6681
 6625TIP3   OH241365   0.783   1.909   2.277  0.2818 -0.5045 -0.6163
 6625TIP3    H141366   0.813   1.832   2.325 -0.6483 -0.4169  0.1466
 6625TIP3    H241367   0.762   1.877   2.190 -1.2259 -1.4034  0.0327
 6626TIP3   OH241368   2.280   0.260   0.008  0.3822 -0.5571 -0.5381
 6626TIP3    H141369   2.270   0.262  -0.087  2.0199 -2.7048 -0.8198
 6626TIP3    H241370   2.374   0.249   0.023  0.1224 -0.6256  1.3226
 6627TIP3   OH241371   3.118   4.650   3.384  0.1687  0.4039  0.2366
 6627TIP3    H141372   3.031   4.634   3.346  0.7597 -0.7028 -0.7505
 6627TIP3    H241373   3.109   4.732   3.431 -0.9570  1.2405 -1.3262
 6628TIP3   OH241374   5.741   4.103   6.566 -0.2102  0.2745  0.7112
 6628TIP3    H141375   5.721   4.012   6.587 -0.3627  0.3983  1.1209
 6628TIP3    H241376   5.831   4.116   6.595 -0.4875  0.5011  1.4893
 6629TIP3   OH241377   2.064   4.472   0.130 -0.7469 -0.0746 -0.2109
 6629TIP3    H141378   2.076   4.391   0.080 -1.5099  0.1221 -0.7428
 6629TIP3    H241379   2.121   4.462   0.206 -0.8605 -1.1370 -0.2447
 6630TIP3   OH241380   0.196   1.022  11.964  0.1205 -0.1210  0.4521
 6630TIP3    H141381   0.189   0.930  11.987  0.7914 -0.5499 -0.9402
 6630TIP3    H241382   0.289   1.035  11.943 -0.2553  0.4535 -0.9766
 6631TIP3   OH241383   2.688   0.493  12.418 -0.0211 -0.7925 -1.0723
 6631TIP3    H141384   2.688   0.398  12.411  0.0860 -0.8273 -0.6264
 6631TIP3    H241385   2.733   0.511  12.500 -2.2871 -0.4707  0.2019
 6632TIP3   OH241386   3.907   5.024  15.749  0.1702 -0.0610  0.0957
 6632TIP3    H141387   3.993   4.985  15.735  0.0634  0.0859 -1.0361
 6632TIP3    H241388   3.925   5.105  15.797  0.6100 -0.2511  0.2582
 6633TIP3   OH241389   1.721   5.501   1.487 -0.5125  0.0702 -0.0047
 6633TIP3    H141390   1.695   5.531   1.400 -3.6902 -0.0721  0.8075
 6633TIP3    H241391   1.642   5.505   1.539  0.5356 -2.8423  2.0900
 6634TIP3   OH241392   0.315   3.742  13.259 -0.7485  0.3533 -0.2539
 6634TIP3    H141393   0.310   3.652  13.290 -2.1072  1.0168  1.6340
 6634TIP3    H241394   0.402   3.772  13.287 -0.3702 -0.2746 -0.7190
 6635TIP3   OH241395   0.916   5.187  16.924  0.1012 -0.4877 -0.2848
 6635TIP3    H141396   0.975   5.119  16.890  0.9791  0.0132  0.1918
 6635TIP3    H241397   0.974   5.247  16.971 -0.9832 -0.9476  1.7766
 6636TIP3   OH241398   4.978   0.581   0.458  0.0655 -0.2277 -0.0295
 6636TIP3    H141399   4.904   0.627   0.496  0.3076  0.4643 -0.3719
 6636TIP3    H241400   4.947   0.552   0.373  0.7630  1.8119 -1.0538
 6637TIP3   OH241401   5.367   0.352   5.962  0.1523 -0.4184 -0.3496
 6637TIP3    H141402   5.449   0.364   6.009  0.4014  0.2409 -0.9424
 6637TIP3    H241403   5.385   0.383   5.874 -1.0850  0.9150 -0.1652
 6638TIP3   OH241404   0.911   0.896  13.065  0.0845 -0.1340 -0.4995
 6638TIP3    H141405   0.983   0.838  13.086 -0.2168 -1.6814 -3.2486
 6638TIP3    H241406   0.839   0.837  13.041 -1.6707  1.3663  0.8074
 6639TIP3   OH241407   4.981   6.722  13.650 -0.1401 -0.5743 -0.3551
 6639TIP3    H141408   4.919   6.688  13.585 -1.8201  1.3886  0.0954
 6639TIP3    H241409   4.947   6.691  13.734 -0.8301  0.8132 -0.0736
 6640TIP3   OH241410   5.451   3.506  11.577  0.0297  0.1424 -0.1126
 6640TIP3    H141411   5.532   3.513  11.527  0.2998  1.7589  0.4893
 6640TIP3    H241412   5.417   3.595  11.580 -0.8936 -0.2215  1.0740
 6641TIP3   OH241413   5.776   2.944  13.667  0.7561  0.1801  0.3882
 6641TIP3    H141414   5.681   2.942  13.667  0.7255  0.9832 -0.0509
 6641TIP3    H241415   5.800   2.956  13.759  0.5109 -1.6759  0.7249
 6642TIP3   OH241416   1.326   5.207  14.042 -0.6909  0.3449 -0.0676
 6642TIP3    H141417   1.358   5.247  13.961  0.1098 -0.5488 -0.2043
 6642TIP3    H241418   1.237   5.178  14.021 -0.7800  0.8257 -0.3742
 6643TIP3   OH241419   6.209   4.213  14.954  0.0665  0.3623  0.3030
 6643TIP3    H141420   6.153   4.287  14.979 -1.6544 -0.8117  0.0991
 6643TIP3    H241421   6.216   4.219  14.859  1.1076  1.0361  0.4037
 6644TIP3   OH241422   1.974   4.257  12.722 -0.5916  0.5502 -0.2742
 6644TIP3    H141423   2.018   4.263  12.638 -1.6560  4.0329 -0.7242
 6644TIP3    H241424   1.884   4.232  12.701 -0.5066 -0.0599  0.0355
 6645TIP3   OH241425   1.606   5.217  13.572  0.5258  0.6007  0.1999
 6645TIP3    H141426   1.602   5.200  13.478  4.8476  1.0369 -0.2349
 6645TIP3    H241427   1.571   5.306  13.581 -0.5173  0.3255 -0.8433
 6646TIP3   OH241428   3.334   1.089   4.759  0.4780  0.1894  0.3192
 6646TIP3    H141429   3.287   1.014   4.724  0.0703  0.6143 -0.0502
 6646TIP3    H241430   3.368   1.059   4.844  0.2451 -0.3768  0.2134
 6647TIP3   OH241431   6.250   4.406  13.464  0.0029  0.5719  0.4330
 6647TIP3    H141432   6.336   4.448  13.472 -1.1706  2.7276  3.5642
 6647TIP3    H241433   6.245   4.347  13.539 -1.4452  0.8712  0.5926
 6648TIP3   OH241434   1.604   0.325   3.179 -0.5729  0.0002  0.3476
 6648TIP3    H141435   1.523   0.358   3.139 -0.0846  0.8765  0.0447
 6648TIP3    H241436   1.647   0.275   3.109 -0.6377 -0.0721  0.3605
 6649TIP3   OH241437   2.824   2.635   3.619 -0.2032 -0.6165  0.2134
 6649TIP3    H141438   2.787   2.697   3.555 -2.4810 -2.2103 -0.1403
 6649TIP3    H241439   2.909   2.673   3.643 -0.5468  1.5037 -1.5892
 6650TIP3   OH241440   6.288   5.275  14.437 -0.1337 -0.0552  0.0345
 6650TIP3    H141441   6.236   5.349  14.407 -0.2524  0.0277  0.4387
 6650TIP3    H241442   6.376   5.292  14.404 -0.9440 -1.8410 -3.5966
 6651TIP3   OH241443   5.619   1.297  15.934 -0.0930  0.0995  0.0769
 6651TIP3    H141444   5.690   1.234  15.929 -0.5038 -0.3301 -0.6016
 6651TIP3    H241445   5.581   1.284  16.021  1.4934  1.2863  0.9968
 6652TIP3   OH241446   1.453   2.301  11.759  0.6149 -0.1702  0.0187
 6652TIP3    H141447   1.508   2.370  11.797  1.7786 -1.9423  1.7372
 6652TIP3    H241448   1.392   2.348  11.702  2.6004  2.0718 -0.4220
 6653TIP3   OH241449   2.378   4.165   3.284 -0.5250 -0.8505  0.0217
 6653TIP3    H141450   2.440   4.105   3.325 -1.1288 -1.5879 -0.1156
 6653TIP3    H241451   2.363   4.233   3.350  2.2540  0.7128 -0.8129
 6654TIP3   OH241452   0.311   5.114  15.916 -0.1875 -0.4470 -0.1774
 6654TIP3    H141453   0.385   5.156  15.872 -0.8263 -0.1171 -0.9634
 6654TIP3    H241454   0.237   5.170  15.897 -0.6164 -0.6715  0.7683
 6655TIP3   OH241455   2.258   2.337   4.325 -0.6909  0.4859 -0.0031
 6655TIP3    H141456   2.252   2.242   4.310 -1.4165  0.7011 -1.2278
 6655TIP3    H241457   2.329   2.347   4.388 -1.1222 -0.9262  0.7473
 6656TIP3   OH241458   6.642   2.018   4.386  0.3422 -0.2782  0.0098
 6656TIP3    H141459   6.736   2.004   4.372  1.1235  0.2019  3.7217
 6656TIP3    H241460   6.611   1.937   4.426 -0.3153  0.2596  0.6334
 6657TIP3   OH241461   3.965   3.735  12.658 -0.4431  0.5941  0.7485
 6657TIP3    H141462   3.870   3.731  12.668 -0.8229  1.0062 -1.8592
 6657TIP3    H241463   3.997   3.771  12.741 -2.4055 -0.6264  2.1226
 6658TIP3   OH241464   5.625   1.684   0.160 -0.0824  0.0668  0.2344
 6658TIP3    H141465   5.559   1.745   0.192 -0.6370 -0.7564  0.7149
 6658TIP3    H241466   5.652   1.636   0.239  0.4223 -0.2288 -0.1147
 6659TIP3   OH241467   2.811   0.366   0.206 -0.2478 -0.7163  0.2538
 6659TIP3    H141468   2.849   0.452   0.222 -1.8637 -0.0179  0.5247
 6659TIP3    H241469   2.716   0.380   0.209 -0.5725 -2.2404 -1.0859
 6660TIP3   OH241470   0.584   4.028   2.658  0.4065 -0.0976 -0.2667
 6660TIP3    H141471   0.586   3.972   2.581 -5.1550  0.4533 -1.2225
 6660TIP3    H241472   0.603   4.116   2.624  0.3801 -0.1892 -0.5188
 6661TIP3   OH241473   0.035   6.722  16.648 -0.0472 -0.2406 -0.1054
 6661TIP3    H141474   0.047   6.780  16.572 -1.6429 -1.5220 -1.4203
 6661TIP3    H241475   0.121   6.719  16.690  0.6092  1.3683 -1.2170
 6662TIP3   OH241476   4.120   6.134   4.289  0.2658  0.0803 -0.4734
 6662TIP3    H141477   4.047   6.175   4.336 -0.2994  0.0343 -1.2938
 6662TIP3    H241478   4.162   6.207   4.243  0.5417  0.0553 -0.2629
 6663TIP3   OH241479   6.598   0.261  14.844  0.0077 -0.0098 -0.5962
 6663TIP3    H141480   6.551   0.243  14.925  1.8187 -0.7882  0.3453
 6663TIP3    H241481   6.562   0.200  14.780  1.2079 -2.1862  0.6944
 6664TIP3   OH241482   4.395   4.374   6.340  0.0206  0.5882  0.0398
 6664TIP3    H141483   4.329   4.405   6.403 -0.2950  0.6549 -0.3183
 6664TIP3    H241484   4.361   4.289   6.310 -0.8450  1.4455 -1.5154
 6665TIP3   OH241485   3.695   1.019   3.506 -0.0039  0.9453  0.4119
 6665TIP3    H141486   3.717   1.023   3.413 -0.3329 -0.8538  0.2148
 6665TIP3    H241487   3.773   1.050   3.551  1.1235 -0.5649 -0.4129
 6666TIP3   OH241488   4.624   1.550   0.891  0.1475 -0.0844 -0.1585
 6666TIP3    H141489   4.698   1.502   0.929 -0.7379  0.3943  2.3654
 6666TIP3    H241490   4.576   1.483   0.841  0.9430 -0.9708  0.2235
 6667TIP3   OH241491   2.483   2.440   0.007 -0.6519 -0.0118  0.2566
 6667TIP3    H141492   2.492   2.408  -0.083  0.3574  0.2285  0.2668
 6667TIP3    H241493   2.529   2.375   0.060  2.2903  1.8823  0.1876
 6668TIP3   OH241494   0.063   0.291   3.209 -0.2143 -0.4314  0.0255
 6668TIP3    H141495   0.138   0.304   3.268 -0.3073  0.8407 -0.1202
 6668TIP3    H241496   0.077   0.203   3.173  0.5940 -0.6726  0.8651
 6669TIP3   OH241497   2.382   5.423   1.996 -0.4038 -0.1011 -0.6590
 6669TIP3    H141498   2.429   5.469   1.926  0.4700  0.4894  0.2968
 6669TIP3    H241499   2.435   5.437   2.074 -1.1779 -1.0601  0.0634
 6670TIP3   OH241500   1.448   4.754  15.585  0.1414 -0.1951  0.4808
 6670TIP3    H141501   1.427   4.660  15.591 -2.0159  0.1991  0.0391
 6670TIP3    H241502   1.429   4.788  15.672  1.0445 -0.1626  0.6750
 6671TIP3   OH241503   2.874   2.275  14.031  0.7739  0.3469 -0.2314
 6671TIP3    H141504   2.940   2.206  14.022 -0.1095 -0.3049 -2.5009
 6671TIP3    H241505   2.818   2.264  13.954 -0.1851  2.7915  0.0345
 6672TIP3   OH241506   4.642   4.040   2.299 -0.8394 -0.3734  0.6365
 6672TIP3    H141507   4.623   4.130   2.272  0.7057  0.3794  1.8800
 6672TIP3    H241508   4.595   4.030   2.382 -0.4708 -0.4972  0.8282
 6673TIP3   OH241509   1.602   5.201  12.112 -0.4426  0.2993  0.8588
 6673TIP3    H141510   1.514   5.197  12.151 -0.6126 -0.3155  0.4201
 6673TIP3    H241511   1.645   5.274  12.158 -1.1670  0.5839  1.1024
 6674TIP3   OH241512   0.230   0.157  11.718 -0.5870 -0.3930 -0.0688
 6674TIP3    H141513   0.178   0.142  11.796  1.1992 -1.4780  0.9780
 6674TIP3    H241514   0.166   0.173  11.649 -2.2150  1.1396  1.6877
 6675TIP3   OH241515   2.130   3.412  13.238  0.4340 -0.1743  0.2146
 6675TIP3    H141516   2.089   3.497  13.224 -1.1668 -0.9656 -0.1058
 6675TIP3    H241517   2.195   3.428  13.307  0.6031  1.4108 -0.2699
 6676TIP3   OH241518   1.671   0.820  10.543 -0.1940  0.4607 -0.1112
 6676TIP3    H141519   1.695   0.912  10.533  0.4716  0.3120  0.0502
 6676TIP3    H241520   1.635   0.813  10.631 -0.4555  0.6061 -0.2043
 6677TIP3   OH241521   0.738   6.782  14.851  0.2275  0.5645 -0.6247
 6677TIP3    H141522   0.794   6.851  14.885 -0.7761  0.6647  0.9557
 6677TIP3    H241523   0.798   6.712  14.826  1.1014  0.8480  0.5750
 6678TIP3   OH241524   3.384   2.223   5.771 -0.2847 -0.6917 -0.7401
 6678TIP3    H141525   3.471   2.240   5.806  0.6392 -2.7617 -1.8537
 6678TIP3    H241526   3.373   2.288   5.702  0.1665 -0.0920 -0.2520
 6679TIP3   OH241527   2.998   0.258  16.881 -0.0597 -0.1510 -0.2594
 6679TIP3    H141528   3.072   0.306  16.917  2.3152 -2.6630 -1.4847
 6679TIP3    H241529   2.955   0.320  16.822  1.8015  1.0105 -0.4465
 6680TIP3   OH241530   5.652   6.514   6.083  0.2852  0.2150 -0.1795
 6680TIP3    H141531   5.698   6.584   6.036 -0.3696  0.0355 -1.1086
 6680TIP3    H241532   5.579   6.559   6.127 -1.1312 -0.0699 -2.1141
 6681TIP3   OH241533   1.913   6.629   1.954 -0.2557 -0.5404  0.0008
 6681TIP3    H141534   1.905   6.540   1.919 -1.0813 -0.0872 -1.0128
 6681TIP3    H241535   1.823   6.662   1.954 -0.6944 -1.1603  4.4643
 6682TIP3   OH241536   4.107   0.155   2.354 -0.0119 -0.0699  0.3413
 6682TIP3    H141537   4.112   0.171   2.260  0.0260 -1.4291  0.1017
 6682TIP3    H241538   4.085   0.062   2.362 -1.7415  0.3820  1.6530
 6683TIP3   OH241539   2.093   2.074   0.225 -0.5353 -0.0089 -0.0434
 6683TIP3    H141540   2.018   2.076   0.285 -1.5234  1.4921 -1.2342
 6683TIP3    H241541   2.153   2.010   0.263 -1.3565  0.4756  2.2317
 6684TIP3   OH241542   0.254   2.219   1.964 -0.0953 -0.1934  0.0950
 6684TIP3    H141543   0.191   2.291   1.956  1.7381  1.5010  0.1638
 6684TIP3    H241544   0.317   2.235   1.894 -1.2776 -3.5966 -2.0015
 6685TIP3   OH241545   6.367   6.515  12.872 -0.1779  0.1007 -0.1228
 6685TIP3    H141546   6.313   6.503  12.794 -0.6471  0.3912  0.1472
 6685TIP3    H241547   6.434   6.447  12.866 -0.1616  0.1703 -0.8157
 6686TIP3   OH241548   1.912   3.849  12.736 -0.0140 -0.7505  0.1133
 6686TIP3    H141549   1.861   3.929  12.723  0.5442 -0.0966  1.6910
 6686TIP3    H241550   1.853   3.778  12.710 -1.1478  0.0866  0.3254
 6687TIP3   OH241551   5.842   1.911   0.389  0.2023 -0.0532  0.9024
 6687TIP3    H141552   5.800   1.849   0.448 -4.1601  0.4810 -1.2527
 6687TIP3    H241553   5.850   1.992   0.439 -1.8609 -0.0791  1.3591
 6688TIP3   OH241554   1.107   6.739   5.684 -0.0780  0.2027  0.3381
 6688TIP3    H141555   1.107   6.654   5.640  0.9980  0.6725 -0.6360
 6688TIP3    H241556   1.019   6.772   5.671  0.0782  0.1247 -1.1308
 6689TIP3   OH241557   1.317   0.944   6.633 -0.0002 -0.3227 -0.9390
 6689TIP3    H141558   1.264   0.866   6.650 -0.0481  0.1191  1.2361
 6689TIP3    H241559   1.253   1.013   6.616 -0.3979  0.5180  2.9768
 6690TIP3   OH241560   0.142   4.233   0.359  0.2162 -0.6607 -0.3878
 6690TIP3    H141561   0.168   4.268   0.444  0.1363  0.7806 -0.9362
 6690TIP3    H241562   0.067   4.286   0.333  1.5952  0.4484 -2.3459
 6691TIP3   OH241563   6.259   1.523   0.040  0.2024 -0.2503  0.2266
 6691TIP3    H141564   6.269   1.552  -0.050 -1.2384 -0.3700  0.0079
 6691TIP3    H241565   6.344   1.485   0.063  1.0836  1.1935 -0.5448
 6692TIP3   OH241566   3.961   1.764  12.277 -0.0827  0.1336 -0.0752
 6692TIP3    H141567   4.012   1.824  12.332 -0.3450  0.9415 -0.7005
 6692TIP3    H241568   3.872   1.772  12.310 -0.3143  0.9183 -0.8444
 6693TIP3   OH241569   5.130   3.735  11.137 -0.3139  0.0234  0.1394
 6693TIP3    H141570   5.065   3.671  11.108  0.0983  0.5317 -2.0507
 6693TIP3    H241571   5.078   3.808  11.171 -0.8483 -0.2350 -0.1094
 6694TIP3   OH241572   3.970   5.864   2.947 -0.4080 -0.2649 -0.2544
 6694TIP3    H141573   3.910   5.790   2.947 -0.1397 -0.5147  1.5340
 6694TIP3    H241574   3.917   5.939   2.975  0.0897 -0.5203  1.5034
 6695TIP3   OH241575   0.936   4.719   1.897 -0.1335  0.2094  0.3782
 6695TIP3    H141576   1.002   4.657   1.867  0.0385  0.4539  0.2391
 6695TIP3    H241577   0.950   4.797   1.843  0.4449  0.8074  1.3451
 6696TIP3   OH241578   0.185   1.033  14.653  0.5080 -0.2265 -0.7198
 6696TIP3    H141579   0.105   1.047  14.703 -0.2299 -0.1729 -1.8746
 6696TIP3    H241580   0.160   0.972  14.583  1.0468  0.9965 -2.0456
 6697TIP3   OH241581   2.850   5.511  12.815 -0.2963  0.5013 -0.0304
 6697TIP3    H141582   2.863   5.453  12.890  1.4968  1.3904  0.3986
 6697TIP3    H241583   2.926   5.568  12.815 -1.1131  1.6777 -1.5171
 6698TIP3   OH241584   6.679   2.762  11.548 -0.1624  0.6088 -0.4111
 6698TIP3    H141585   6.706   2.734  11.461 -0.8285 -1.0295 -0.1091
 6698TIP3    H241586   6.740   2.718  11.608 -0.7164  0.4384  0.0346
 6699TIP3   OH241587   1.122   6.032  11.014 -0.0883  0.3017 -0.5112
 6699TIP3    H141588   1.039   6.074  10.994  0.2518 -0.1257 -3.3169
 6699TIP3    H241589   1.188   6.099  10.996  0.2356  0.0698 -0.2092
 6700TIP3   OH241590   1.520   4.509  11.959  0.1652 -0.2957  0.1100
 6700TIP3    H141591   1.447   4.453  11.933  0.6624 -1.6563  1.5648
 6700TIP3    H241592   1.581   4.451  12.003  1.2340  1.1928  0.6669
 6701TIP3   OH241593   1.653   1.852   4.705  0.4323  0.0691 -0.1650
 6701TIP3    H141594   1.616   1.939   4.689 -0.9183 -0.4380  0.0822
 6701TIP3    H241595   1.642   1.838   4.799  0.1524 -0.5784 -0.2864
 6702TIP3   OH241596   2.228   5.975  11.316 -0.7599  0.4162  0.5539
 6702TIP3    H141597   2.269   5.902  11.362  0.9306  2.4629  2.5367
 6702TIP3    H241598   2.297   6.010  11.259 -1.3974  0.7922 -0.0078
 6703TIP3   OH241599   3.451   3.553   0.493  0.0783 -0.0481  0.4446
 6703TIP3    H141600   3.397   3.569   0.570  0.2444  3.4287 -0.0305
 6703TIP3    H241601   3.541   3.562   0.525  0.1779  0.3574  0.0527
 6704TIP3   OH241602   3.746   5.462  16.330 -0.3589  0.2533 -0.6839
 6704TIP3    H141603   3.796   5.540  16.305  2.0531 -0.5438  1.2220
 6704TIP3    H241604   3.765   5.399  16.261  1.3033  0.0045 -0.0525
 6705TIP3   OH241605   4.057   0.649  14.697 -0.7275  0.0458  0.7981
 6705TIP3    H141606   4.099   0.615  14.618 -2.4333  0.1082 -0.1855
 6705TIP3    H241607   4.114   0.621  14.768  0.1529 -1.1858 -0.3357
 6706TIP3   OH241608   5.805   3.099   0.713 -0.0453  0.1755  0.3078
 6706TIP3    H141609   5.807   3.010   0.676  0.2460 -0.1294  1.0491
 6706TIP3    H241610   5.884   3.105   0.766  0.5106  1.2660 -0.6015
 6707TIP3   OH241611   1.391   5.340   0.138 -0.2742  0.2290  0.4591
 6707TIP3    H141612   1.347   5.412   0.094  0.6067  0.3394 -0.2618
 6707TIP3    H241613   1.394   5.365   0.230  0.2245  1.2242  0.1814
 6708TIP3   OH241614   1.175   6.710   2.587  0.1081  0.3868 -0.3850
 6708TIP3    H141615   1.162   6.788   2.641 -0.2468  0.8986 -1.2082
 6708TIP3    H241616   1.228   6.739   2.513 -0.3086 -0.0752 -0.8748
 6709TIP3   OH241617   5.305   5.817  15.805 -0.4775  1.0064  0.3747
 6709TIP3    H141618   5.218   5.783  15.785 -0.5602  0.7167  1.2351
 6709TIP3    H241619   5.311   5.896  15.751 -0.6519  0.1873 -0.8923
 6710TIP3   OH241620   5.014   5.996   3.561 -0.6787 -0.9586  0.2146
 6710TIP3    H141621   5.076   6.035   3.500 -2.1051 -0.8262 -1.2267
 6710TIP3    H241622   5.023   6.048   3.641  1.9173 -1.7556  0.5014
 6711TIP3   OH241623   4.206   1.786   3.786 -0.0445  0.0442 -0.0792
 6711TIP3    H141624   4.118   1.802   3.752  0.4732 -1.3667 -2.3150
 6711TIP3    H241625   4.235   1.871   3.819 -1.5455  0.9644 -1.0308
 6712TIP3   OH241626   3.759   1.370   2.745 -0.6007  0.4640  0.7966
 6712TIP3    H141627   3.800   1.403   2.825  1.9840  0.6669 -0.5203
 6712TIP3    H241628   3.681   1.323   2.776 -0.7326  2.1041  3.2506
 6713TIP3   OH241629   3.019   5.938  16.320  0.5751 -0.3310 -0.3082
 6713TIP3    H141630   3.040   5.850  16.289  3.1475  0.1076 -0.0093
 6713TIP3    H241631   2.990   5.925  16.410 -0.2430 -0.9609 -0.6517
 6714TIP3   OH241632   0.624   5.310  13.046  0.3902  0.0857  0.3566
 6714TIP3    H141633   0.714   5.286  13.026  0.7049  0.5986  1.0934
 6714TIP3    H241634   0.627   5.405  13.060 -0.5136  0.3201 -0.8995
 6715TIP3   OH241635   4.915   5.689   5.117 -0.7797 -0.0897  0.1947
 6715TIP3    H141636   4.917   5.628   5.190 -0.3516  0.7319  0.8783
 6715TIP3    H241637   4.844   5.657   5.061 -0.4164 -1.3312  0.4220
 6716TIP3   OH241638   3.588   1.491   4.247 -0.8088  0.4750 -0.2468
 6716TIP3    H141639   3.544   1.408   4.231 -0.2714  0.2006 -0.3277
 6716TIP3    H241640   3.652   1.498   4.176 -0.2077  0.5012  0.2860
 6717TIP3   OH241641   1.470   6.153   5.485  0.4274 -0.3773  0.1053
 6717TIP3    H141642   1.517   6.097   5.423 -0.6348 -1.4366  0.2161
 6717TIP3    H241643   1.492   6.242   5.459  2.4454 -0.8305  0.1307
 6718TIP3   OH241644   0.838   4.336  15.459  0.0161 -0.1561 -0.4044
 6718TIP3    H141645   0.848   4.361  15.367 -1.1460  0.8793 -0.2776
 6718TIP3    H241646   0.889   4.401  15.507  1.8451 -1.5571 -0.3566
 6719TIP3   OH241647   1.742   6.558   0.106 -0.1919  0.1506 -0.7403
 6719TIP3    H141648   1.781   6.645   0.110  1.0624 -0.4231  2.4530
 6719TIP3    H241649   1.666   6.563   0.165 -2.1933 -0.0863 -3.1480
 6720TIP3   OH241650   1.901   1.980   1.192  0.0914  0.0561  0.4333
 6720TIP3    H141651   1.956   2.013   1.121  1.5115 -1.4092  0.7952
 6720TIP3    H241652   1.843   1.916   1.149 -0.0512  0.2271  0.3679
 6721TIP3   OH241653   3.392   3.066  16.020 -0.5304  0.2297  0.3785
 6721TIP3    H141654   3.378   3.124  16.095  3.1668  0.4901  1.0796
 6721TIP3    H241655   3.395   2.978  16.057 -2.3418 -0.0512 -0.0887
 6722TIP3   OH241656   5.620   0.392  11.129 -0.2468 -0.2435 -0.2429
 6722TIP3    H141657   5.615   0.312  11.181  0.4399  0.2633  0.6264
 6722TIP3    H241658   5.706   0.388  11.087 -1.2461 -1.2272 -2.3514
 6723TIP3   OH241659   2.781   2.013  13.517 -0.0875  0.4195  0.1109
 6723TIP3    H141660   2.806   2.033  13.427  3.4827 -0.3444  0.8119
 6723TIP3    H241661   2.754   2.098  13.553 -0.5820  0.9191 -1.3579
 6724TIP3   OH241662   1.217   0.692   1.454  0.6442 -0.6146  0.0353
 6724TIP3    H141663   1.157   0.749   1.406 -0.8186 -1.9281  0.2279
 6724TIP3    H241664   1.268   0.648   1.387  1.1656  0.2319 -0.1440
 6725TIP3   OH241665   1.258   4.301   2.318 -0.2732 -0.2806  0.5046
 6725TIP3    H141666   1.177   4.328   2.361 -0.1445  0.4718  0.2843
 6725TIP3    H241667   1.317   4.277   2.390 -1.1472 -2.2293  0.6306
 6726TIP3   OH241668   4.426   1.567  16.523  0.2077 -0.9551 -0.0838
 6726TIP3    H141669   4.478   1.627  16.470 -2.9704  1.5960 -0.6717
 6726TIP3    H241670   4.392   1.503  16.460 -0.1290 -0.5231 -0.3441
 6727TIP3   OH241671   1.314   2.313  11.278  0.7297 -0.4308  0.7158
 6727TIP3    H141672   1.257   2.242  11.308 -1.8934  1.1826 -0.0636
 6727TIP3    H241673   1.338   2.360  11.357  1.4008 -1.4058  1.1054
 6728TIP3   OH241674   2.959   3.893  13.410  0.1593 -0.2765  0.0558
 6728TIP3    H141675   2.920   3.933  13.488  0.3272 -0.4750  0.2416
 6728TIP3    H241676   2.991   3.808  13.440  0.3749 -0.2827 -0.1890
 6729TIP3   OH241677   2.470   2.858   1.974 -0.2922  0.3907  0.1176
 6729TIP3    H141678   2.485   2.938   2.023  1.3318 -1.0783  2.2254
 6729TIP3    H241679   2.558   2.826   1.953 -0.8981 -0.8521 -0.6873
 6730TIP3   OH241680   4.597   4.313  15.590 -0.6627  0.1644 -1.0320
 6730TIP3    H141681   4.689   4.337  15.579 -1.3635  1.9885 -4.6849
 6730TIP3    H241682   4.553   4.395  15.611 -1.8498  0.2843 -3.5171
 6731TIP3   OH241683   0.840   2.802  13.234  0.0577 -0.1831  0.0264
 6731TIP3    H141684   0.767   2.751  13.196  0.5037 -0.3794 -0.5936
 6731TIP3    H241685   0.882   2.842  13.158  1.2440 -0.9307  0.2757
 6732TIP3   OH241686   1.863   1.895  13.637  0.2191  0.2717 -0.7226
 6732TIP3    H141687   1.902   1.866  13.719 -1.7520 -0.8133 -0.1101
 6732TIP3    H241688   1.831   1.983  13.656 -1.9994 -0.6908  0.3911
 6733TIP3   OH241689   0.998   5.371  16.010 -0.3823  0.1318  0.0292
 6733TIP3    H141690   1.070   5.371  16.072 -1.3419 -0.7439  1.2100
 6733TIP3    H241691   0.962   5.282  16.015 -0.5417  0.0538 -1.7512
 6734TIP3   OH241692   3.611   2.376   1.407  0.0246  0.2560 -0.0531
 6734TIP3    H141693   3.694   2.352   1.364 -0.6050 -0.9386 -0.6634
 6734TIP3    H241694   3.631   2.371   1.501  0.7343  0.3388 -0.1913
 6735TIP3   OH241695   4.672   4.483   2.506 -0.2319  0.1276 -0.1882
 6735TIP3    H141696   4.612   4.548   2.469 -1.6470 -0.9885  0.0318
 6735TIP3    H241697   4.621   4.441   2.576  0.6515 -1.1610 -0.2790
 6736TIP3   OH241698   4.352   5.284   0.643 -0.4711  0.1449  0.6180
 6736TIP3    H141699   4.368   5.376   0.619 -0.2947  0.3844  1.6313
 6736TIP3    H241700   4.429   5.237   0.612 -1.1182  0.1188 -1.0456
 6737TIP3   OH241701   5.638   2.920   1.156  0.2129 -0.4247 -0.2369
 6737TIP3    H141702   5.707   2.944   1.217  2.2121 -2.5460 -1.5091
 6737TIP3    H241703   5.578   2.866   1.207  0.8671 -0.6489  0.3011
 6738TIP3   OH241704   1.249   1.733   4.912 -0.7410  0.4829  0.1918
 6738TIP3    H141705   1.328   1.761   4.959  1.2437 -0.0452 -2.5308
 6738TIP3    H241706   1.228   1.808   4.856 -0.7127 -0.2490 -0.8082
 6739TIP3   OH241707   4.997   6.129   1.540 -0.4533  0.5705  0.0956
 6739TIP3    H141708   5.044   6.048   1.518  0.3314  1.8374 -3.7265
 6739TIP3    H241709   4.998   6.132   1.636  2.0217 -2.4657  0.3470
 6740TIP3   OH241710   5.005   4.802  10.978 -0.5834 -0.3879 -0.0770
 6740TIP3    H141711   5.078   4.803  10.916 -0.6191 -1.9752 -0.1877
 6740TIP3    H241712   4.938   4.748  10.936 -1.4847  0.3394  0.3991
 6741TIP3   OH241713   4.550   3.806   4.387 -0.4119 -0.4113 -0.2362
 6741TIP3    H141714   4.622   3.810   4.324 -0.0540 -1.2940  0.0896
 6741TIP3    H241715   4.557   3.887   4.437  0.7838 -0.7760  0.2254
 6742TIP3   OH241716   5.173   4.873  16.614  0.1828  0.2989 -0.0308
 6742TIP3    H141717   5.113   4.847  16.684  0.0304  1.4525  0.2906
 6742TIP3    H241718   5.239   4.927  16.658  0.7270  0.0997 -0.5948
 6743TIP3   OH241719   5.468   4.423   1.653  0.1976 -0.4306 -0.0217
 6743TIP3    H141720   5.504   4.395   1.569  0.9437 -1.7696  0.7067
 6743TIP3    H241721   5.535   4.482   1.689 -0.8000  1.3759 -0.9916
 6744TIP3   OH241722   4.030   1.475   5.002 -0.1994  0.3708 -0.7796
 6744TIP3    H141723   4.040   1.549   4.942  0.8213 -0.6010 -1.8640
 6744TIP3    H241724   4.053   1.399   4.949 -0.1916 -0.6162  0.6067
 6745TIP3   OH241725   5.336   4.613   2.630  0.3550 -0.1143  0.2922
 6745TIP3    H141726   5.429   4.638   2.637  0.3178  0.2815 -0.5875
 6745TIP3    H241727   5.293   4.689   2.592 -0.1358 -0.7301 -0.4090
 6746TIP3   OH241728   2.245   5.731   0.804 -1.0435 -0.3578  0.4707
 6746TIP3    H141729   2.246   5.668   0.732  1.6300  1.3695 -1.1893
 6746TIP3    H241730   2.191   5.804   0.771  0.6562  0.6903 -0.1509
 6747TIP3   OH241731   6.863   1.929  14.358 -0.8683 -0.1939  0.2634
 6747TIP3    H141732   6.932   1.864  14.368 -0.0011  0.5781 -0.4617
 6747TIP3    H241733   6.843   1.929  14.264 -0.8920  0.5439  0.2607
 6748TIP3   OH241734   6.874   0.020  16.454 -0.2443 -0.2400 -0.4155
 6748TIP3    H141735   6.810   0.064  16.509  0.5596  0.9672 -0.3945
 6748TIP3    H241736   6.829   0.004  16.371 -0.5379  0.6631 -0.4313
 6749TIP3   OH241737   2.683   5.579   6.415 -0.5516 -0.3822  0.7608
 6749TIP3    H141738   2.693   5.674   6.420  0.7282 -0.4097 -0.6516
 6749TIP3    H241739   2.764   5.545   6.453 -0.9945 -0.9289  1.2369
 6750TIP3   OH241740   2.304   5.936  16.889  0.8307 -0.3331  0.4237
 6750TIP3    H141741   2.263   5.886  16.818  0.9899 -1.5948  1.2112
 6750TIP3    H241742   2.359   6.000  16.843 -1.0627  0.6373 -0.6361
 6751TIP3   OH241743   3.547   3.208  16.586 -0.4716 -0.2080 -0.1751
 6751TIP3    H141744   3.622   3.162  16.624 -0.8598 -1.5033 -0.8991
 6751TIP3    H241745   3.471   3.162  16.620 -0.9494  0.9212  0.3262
 6752TIP3   OH241746   4.770   0.831  12.861  0.3905  0.0103  0.3894
 6752TIP3    H141747   4.699   0.868  12.913  0.1459  1.4248 -0.8955
 6752TIP3    H241748   4.817   0.906  12.825  2.2863 -0.8952  0.8124
 6753TIP3   OH241749   4.084   2.935   1.940 -0.3325 -0.2115 -0.0151
 6753TIP3    H141750   4.177   2.920   1.951 -0.0685  0.9833 -0.4835
 6753TIP3    H241751   4.073   3.030   1.948 -1.5435 -0.3476  0.2790
 6754TIP3   OH241752   3.197   1.594   4.994  0.2848  0.0402  0.4238
 6754TIP3    H141753   3.280   1.575   4.949 -0.6236  0.2344 -1.4242
 6754TIP3    H241754   3.137   1.528   4.961 -0.8452  1.1992  0.0880
 6755TIP3   OH241755   5.569   5.868  14.621 -0.1949  0.5662  0.3740
 6755TIP3    H141756   5.626   5.793  14.641 -0.9801  0.1829  1.2201
 6755TIP3    H241757   5.487   5.848  14.665 -0.8363  1.3456 -0.4378
 6756TIP3   OH241758   3.665   1.279  10.690 -0.1338  0.1940 -0.6874
 6756TIP3    H141759   3.658   1.342  10.618  0.2147  0.8032 -0.2010
 6756TIP3    H241760   3.642   1.329  10.768 -1.1538 -0.6315 -0.4390
 6757TIP3   OH241761   6.556   3.053   3.480  0.0483  0.4116  0.1556
 6757TIP3    H141762   6.518   3.139   3.496  3.8070  2.2563  0.2352
 6757TIP3    H241763   6.540   3.037   3.387  1.7813  2.6941 -0.6294
 6758TIP3   OH241764   1.406   4.291   2.556 -0.9764 -0.0200  0.1952
 6758TIP3    H141765   1.462   4.368   2.551 -1.6763  0.5543  0.9850
 6758TIP3    H241766   1.465   4.222   2.589 -0.5388  0.3778  0.2648
 6759TIP3   OH241767   0.239   6.814  15.442  0.0567 -0.1317 -0.5817
 6759TIP3    H141768   0.269   6.872  15.512 -1.2814 -0.0906 -0.0117
 6759TIP3    H241769   0.205   6.873  15.375 -1.5058 -0.2154  0.0925
 6760TIP3   OH241770   4.873   0.311   0.574 -0.1360 -0.2219 -0.6746
 6760TIP3    H141771   4.885   0.405   0.584 -0.0023 -0.2620 -0.4341
 6760TIP3    H241772   4.815   0.287   0.647  2.7456 -0.9120  1.5775
 6761TIP3   OH241773   4.695   0.579  12.954  0.0367  0.1356  0.0864
 6761TIP3    H141774   4.748   0.569  13.033  0.8702  0.6787 -0.3927
 6761TIP3    H241775   4.737   0.651  12.906 -0.0152 -0.6760 -1.2121
 6762TIP3   OH241776   3.616   3.260   0.992  0.4413  0.1586  0.0699
 6762TIP3    H141777   3.618   3.328   0.924 -2.1130  0.0019 -0.2496
 6762TIP3    H241778   3.616   3.308   1.074  1.3292  0.4186 -0.0659
 6763TIP3   OH241779   1.056   3.835  13.700  0.0248  0.6068 -0.0290
 6763TIP3    H141780   1.100   3.841  13.784  0.3708 -0.1677 -0.1465
 6763TIP3    H241781   1.102   3.765  13.653 -0.7660  0.3813 -0.4935
 6764TIP3   OH241782   2.605   3.265   2.310  0.0617  0.5944 -0.0451
 6764TIP3    H141783   2.541   3.241   2.378 -0.9683  1.6028 -0.6123
 6764TIP3    H241784   2.593   3.199   2.242 -0.7800  1.0649 -0.3764
 6765TIP3   OH241785   6.853   6.014  13.086  0.5465  0.1476 -0.1824
 6765TIP3    H141786   6.834   6.106  13.064  0.0163  0.6150  1.9937
 6765TIP3    H241787   6.943   6.016  13.120 -0.9991  0.9763  4.7358
 6766TIP3   OH241788   6.816   2.116  11.335  0.4228  0.5259  0.0674
 6766TIP3    H141789   6.796   2.129  11.427  1.9107  0.3802  0.4471
 6766TIP3    H241790   6.910   2.097  11.334  0.2104 -0.6588 -1.3635
 6767TIP3   OH241791   6.570   5.827   4.200 -0.3265  0.1527  0.1990
 6767TIP3    H141792   6.519   5.883   4.258  0.3841  1.7264 -0.6315
 6767TIP3    H241793   6.614   5.888   4.140  1.9817 -1.1446  0.4434
 6768TIP3   OH241794   6.184   4.509   5.982 -0.8505 -0.6568  0.1117
 6768TIP3    H141795   6.118   4.567   6.021 -1.4709  0.1618 -2.0281
 6768TIP3    H241796   6.246   4.569   5.940 -0.7735 -1.5051 -1.0288
 6769TIP3   OH241797   3.908   2.227  16.346  0.5044 -0.0503 -0.1493
 6769TIP3    H141798   3.826   2.181  16.326  0.2244  0.3589  0.0329
 6769TIP3    H241799   3.938   2.260  16.262  0.6918 -0.5359 -0.2794
 6770TIP3   OH241800   4.985   4.617  14.239  0.1210  0.0853 -0.5270
 6770TIP3    H141801   4.932   4.678  14.189 -0.7233 -0.2003 -0.0063
 6770TIP3    H241802   5.050   4.584  14.177 -0.8930 -0.2545 -1.4382
 6771TIP3   OH241803   6.391   2.806   2.181  0.0868 -0.1324 -0.0141
 6771TIP3    H141804   6.392   2.829   2.274  0.8171  0.6679 -0.2104
 6771TIP3    H241805   6.312   2.752   2.170  0.8266 -1.5649  1.3647
 6772TIP3   OH241806   4.076   3.456  11.512  0.6597 -0.1478  0.7506
 6772TIP3    H141807   4.012   3.402  11.557  1.0897 -0.9859  0.3956
 6772TIP3    H241808   4.030   3.491  11.436  0.2715  0.2922  1.1905
 6773TIP3   OH241809   6.095   4.375  16.379  0.3151 -0.5162 -0.3402
 6773TIP3    H141810   6.140   4.310  16.432 -1.7788 -1.4033  0.4430
 6773TIP3    H241811   6.060   4.326  16.305 -0.4387 -0.1259 -0.2575
 6774TIP3   OH241812   3.299   3.095  12.700 -0.7992  0.0323  0.9544
 6774TIP3    H141813   3.216   3.083  12.746 -0.2081 -0.4043  1.9312
 6774TIP3    H241814   3.277   3.151  12.625 -2.1243 -0.7889  0.7103
 6775TIP3   OH241815   1.916   5.423  10.718  0.1373 -0.1373 -0.2140
 6775TIP3    H141816   2.000   5.386  10.745 -1.0421 -0.4723  3.4326
 6775TIP3    H241817   1.924   5.517  10.735 -1.4292 -0.6013  4.4913
 6776TIP3   OH241818   2.054   2.047   4.241 -0.1249  0.1815  0.5528
 6776TIP3    H141819   2.106   2.059   4.320 -0.7203 -0.0454  0.9795
 6776TIP3    H241820   1.963   2.059   4.268 -0.3008  0.6812 -0.2131
 6777TIP3   OH241821   1.080   3.667   5.181 -0.3193 -0.3831 -0.1309
 6777TIP3    H141822   1.012   3.699   5.122  0.6111  0.3687 -0.8162
 6777TIP3    H241823   1.133   3.744   5.200 -0.4187 -0.6738  1.4594
 6778TIP3   OH241824   2.901   4.233  16.145 -0.6130 -0.4731 -0.5608
 6778TIP3    H141825   2.827   4.288  16.172  0.9818  1.6183 -0.2243
 6778TIP3    H241826   2.893   4.155  16.200 -1.8066  0.3136  0.4521
 6779TIP3   OH241827   0.743   6.592   5.001 -0.0971  0.2701 -0.0699
 6779TIP3    H141828   0.662   6.641   4.988  0.9926  1.7430 -1.8057
 6779TIP3    H241829   0.813   6.656   4.988  1.3897 -0.9278  1.4741
 6780TIP3   OH241830   3.278   0.492  14.036 -0.4083 -0.4213 -0.2072
 6780TIP3    H141831   3.341   0.440  14.087 -0.8322 -1.5426 -0.7854
 6780TIP3    H241832   3.285   0.580  14.072 -0.8344 -1.2027  1.9662
 6781TIP3   OH241833   3.407   4.654   3.073 -0.1937  0.2425 -0.0754
 6781TIP3    H141834   3.352   4.728   3.101 -0.8732 -0.3926  0.3317
 6781TIP3    H241835   3.371   4.579   3.121 -0.8622 -0.7536 -2.0345
 6782TIP3   OH241836   5.853   6.527   3.999  0.0193 -0.2848  0.0572
 6782TIP3    H141837   5.821   6.616   4.015 -0.5291 -0.4418 -0.1597
 6782TIP3    H241838   5.948   6.536   4.000 -0.0288  0.2305  0.4629
 6783TIP3   OH241839   6.101   2.613  10.803 -0.0739  0.6596  0.3723
 6783TIP3    H141840   6.093   2.577  10.891  1.6987 -1.9065 -0.4023
 6783TIP3    H241841   6.182   2.664  10.806  0.6479 -0.4354 -0.0424
 6784TIP3   OH241842   2.216   0.884   1.007 -0.2312  0.3728  0.3611
 6784TIP3    H141843   2.190   0.811   1.063 -0.9570  1.3327  1.3081
 6784TIP3    H241844   2.310   0.872   0.994 -0.5990 -1.6504 -0.8928
 6785TIP3   OH241845   5.662   2.104   4.572 -0.0058  0.6789  0.2394
 6785TIP3    H141846   5.610   2.091   4.492  1.8602 -1.7497 -0.7093
 6785TIP3    H241847   5.694   2.016   4.594  1.5030  1.6714  2.2948
 6786TIP3   OH241848   4.606   3.247   1.846 -0.0226 -0.1375  0.2437
 6786TIP3    H141849   4.611   3.342   1.860 -0.3271  0.0119 -0.5773
 6786TIP3    H241850   4.577   3.212   1.930  0.3859  0.4617  0.6475
 6787TIP3   OH241851   4.152   5.769  12.276  0.1403  0.4574  0.6175
 6787TIP3    H141852   4.102   5.837  12.322 -1.6748 -0.4491  0.1057
 6787TIP3    H241853   4.239   5.807  12.264 -0.8642  2.7969  0.1292
 6788TIP3   OH241854   6.089   1.288   4.907  0.2541 -0.0399 -0.3474
 6788TIP3    H141855   6.119   1.377   4.926 -1.2062  0.0460  1.8639
 6788TIP3    H241856   6.053   1.293   4.818  1.7196  1.1272 -0.9119
 6789TIP3   OH241857   3.973   4.416  12.202  0.1993  0.6085 -0.0762
 6789TIP3    H141858   3.956   4.505  12.173  0.5566  0.2911 -1.3085
 6789TIP3    H241859   3.951   4.416  12.295  1.0805  2.2068  0.1525
 6790TIP3   OH241860   5.810   4.915  14.185 -0.2719 -0.1968 -0.0465
 6790TIP3    H141861   5.726   4.940  14.223  0.5772  2.4193  0.3107
 6790TIP3    H241862   5.787   4.867  14.105 -2.0630 -1.2147  1.0214
 6791TIP3   OH241863   5.831   1.206   5.561  0.0083 -0.2101  0.1049
 6791TIP3    H141864   5.857   1.151   5.487  2.5351  0.0805  0.6590
 6791TIP3    H241865   5.899   1.274   5.564 -0.6420  0.4186  2.0157
 6792TIP3   OH241866   0.299   5.666   5.298  0.7768 -0.3379 -0.0347
 6792TIP3    H141867   0.330   5.577   5.278  1.4880  0.0733 -0.8083
 6792TIP3    H241868   0.238   5.687   5.228  0.8601 -0.0859 -0.0325
 6793TIP3   OH241869   4.230   2.168   3.763 -0.3987 -0.5614  0.1811
 6793TIP3    H141870   4.260   2.251   3.799  0.3132 -0.8756  0.3115
 6793TIP3    H241871   4.208   2.115   3.839  1.7174 -1.4589  0.2291
 6794TIP3   OH241872   4.138   3.092   4.844 -0.0679  0.3322 -0.1973
 6794TIP3    H141873   4.232   3.096   4.860  0.1314 -0.4909 -1.0473
 6794TIP3    H241874   4.101   3.051   4.922  0.2660  0.7330  0.1745
 6795TIP3   OH241875   5.392   2.029  12.372  0.2382 -0.3297  0.7062
 6795TIP3    H141876   5.478   2.002  12.339 -0.3477 -0.4885 -0.8089
 6795TIP3    H241877   5.356   1.951  12.414 -0.1340 -1.0187 -0.8165
 6796TIP3   OH241878   1.306   4.606   2.358  0.4944 -0.0355  0.1508
 6796TIP3    H141879   1.235   4.584   2.298 -0.1356  0.3014  0.7586
 6796TIP3    H241880   1.385   4.569   2.317 -0.1975 -1.4810  0.0639
 6797TIP3   OH241881   4.916   2.775   6.241  0.6192  0.2366  0.1923
 6797TIP3    H141882   4.947   2.856   6.282  0.1013 -0.0702  1.2242
 6797TIP3    H241883   4.829   2.798   6.207  0.0314 -0.1253  1.3752
 6798TIP3   OH241884   0.057   4.461   4.969  0.1879 -0.5282 -0.3911
 6798TIP3    H141885   0.116   4.473   4.895  0.2088  0.0983 -0.2776
 6798TIP3    H241886   0.047   4.366   4.977 -0.8295 -0.5903 -1.9952
 6799TIP3   OH241887   6.210   1.708  10.929  0.5039 -0.8841 -0.0515
 6799TIP3    H141888   6.143   1.656  10.883 -0.0999 -0.1796  0.0081
 6799TIP3    H241889   6.206   1.794  10.887  1.7989 -1.0035 -0.4407
 6800TIP3   OH241890   2.596   4.153  14.474  1.2121 -0.1432  0.4030
 6800TIP3    H141891   2.558   4.234  14.439 -1.5458 -2.1165 -1.5890
 6800TIP3    H241892   2.675   4.139  14.422  2.3127  1.6750  1.4575
 6801TIP3   OH241893   3.091   4.614   2.760  0.3126  0.2864  0.5884
 6801TIP3    H141894   2.999   4.593   2.748 -0.1473  1.8357  1.0998
 6801TIP3    H241895   3.098   4.640   2.852  0.9487  1.5469  0.2099
 6802TIP3   OH241896   3.621   6.347  14.689 -0.2347 -0.0752  0.1655
 6802TIP3    H141897   3.650   6.370  14.778  0.0121  0.4769 -0.0480
 6802TIP3    H241898   3.664   6.264  14.671  0.0651  0.0214  0.4045
 6803TIP3   OH241899   3.824   3.995  11.278  0.5055  0.1765 -0.3098
 6803TIP3    H141900   3.742   4.043  11.264 -0.5663 -1.9076 -1.6020
 6803TIP3    H241901   3.860   3.984  11.190  0.8695 -1.1141 -0.0116
 6804TIP3   OH241902   5.275   4.384   1.349 -0.4088  0.8391  0.2545
 6804TIP3    H141903   5.259   4.326   1.423 -0.3885 -1.2365 -1.2833
 6804TIP3    H241904   5.197   4.439   1.344 -2.8273 -2.4240 -1.1462
 6805TIP3   OH241905   4.427   0.647   5.230 -0.5301 -0.0475 -0.1580
 6805TIP3    H141906   4.481   0.568   5.236  1.0805  0.9862 -0.4921
 6805TIP3    H241907   4.361   0.636   5.298 -1.0592 -2.1928 -0.9442
 6806TIP3   OH241908   2.740   0.431   0.666  0.0794  0.3361  0.4418
 6806TIP3    H141909   2.820   0.473   0.697 -0.1359  0.0812  1.3650
 6806TIP3    H241910   2.757   0.337   0.676  1.0985  0.0114 -2.8806
 6807TIP3   OH241911   1.062   1.912  13.899  0.3562 -0.5918  0.0431
 6807TIP3    H141912   1.079   1.942  13.988 -1.2412  0.6197 -0.0157
 6807TIP3    H241913   1.148   1.910  13.857  0.9178  0.6158  1.0862
 6808TIP3   OH241914   5.850   4.437   0.924 -0.2008 -0.5897  0.4101
 6808TIP3    H141915   5.814   4.506   0.869  0.6144 -0.0706  0.5111
 6808TIP3    H241916   5.913   4.392   0.868 -0.1906 -0.7836  0.5750
 6809TIP3   OH241917   4.457   2.764   3.165  0.0652  0.3947  0.2021
 6809TIP3    H141918   4.432   2.706   3.236 -1.7365 -0.4279 -1.0253
 6809TIP3    H241919   4.552   2.756   3.159 -0.0016 -1.2870  1.0100
 6810TIP3   OH241920   6.871   1.796   6.384  0.3995 -0.3986 -0.0307
 6810TIP3    H141921   6.942   1.783   6.321  0.5310  1.6882 -0.4006
 6810TIP3    H241922   6.863   1.891   6.391 -0.0979 -0.5464  2.5792
 6811TIP3   OH241923   5.238   5.172  16.404 -0.3549 -0.0704 -0.5712
 6811TIP3    H141924   5.224   5.080  16.381  0.3535 -0.3736  0.1365
 6811TIP3    H241925   5.161   5.218  16.370 -1.5248 -1.1779  0.4811
 6812TIP3   OH241926   1.599   2.030  14.626 -0.2214  0.4117 -0.4245
 6812TIP3    H141927   1.615   2.052  14.717 -0.6350 -2.9133  0.5798
 6812TIP3    H241928   1.684   2.041  14.583  0.5722 -0.3017  0.9238
 6813TIP3   OH241929   3.257   4.536  13.304 -0.1456 -0.5442 -0.3424
 6813TIP3    H141930   3.202   4.465  13.269 -1.5904  0.4152 -0.1178
 6813TIP3    H241931   3.337   4.492  13.331 -1.4361 -2.3269  0.8759
 6814TIP3   OH241932   0.601   2.820   5.068 -0.5730  0.1112 -0.3470
 6814TIP3    H141933   0.532   2.883   5.089  1.9759  2.4062  1.6943
 6814TIP3    H241934   0.596   2.755   5.138  0.1089  0.9808  0.5256
 6815TIP3   OH241935   1.853   6.061  10.815  0.1788 -0.5899 -0.1730
 6815TIP3    H141936   1.825   6.026  10.899 -1.0008  1.0322  0.1623
 6815TIP3    H241937   1.948   6.068  10.822  0.0409  0.1826  1.3215
 6816TIP3   OH241938   6.375   6.235  15.892  0.1328  0.7336  0.1555
 6816TIP3    H141939   6.344   6.244  15.982 -0.8106  1.1793 -0.2000
 6816TIP3    H241940   6.437   6.162  15.895  1.4286  1.8092  1.4874
 6817TIP3   OH241941   1.959   1.359  11.064 -0.1065 -0.5952  0.7431
 6817TIP3    H141942   1.941   1.268  11.041 -1.2258 -0.2366  0.1208
 6817TIP3    H241943   2.054   1.364  11.069  0.0077 -1.6113  0.0188
 6818TIP3   OH241944   3.182   1.047  14.018 -0.0423 -0.3311 -0.4850
 6818TIP3    H141945   3.087   1.043  14.012 -0.2197 -0.6424  1.6660
 6818TIP3    H241946   3.210   1.090  13.937 -2.2749  3.1742  0.4097
 6819TIP3   OH241947   2.194   3.658  14.365 -0.0985  0.1782  0.3735
 6819TIP3    H141948   2.266   3.662  14.428  0.3371 -3.2173  0.2782
 6819TIP3    H241949   2.117   3.639  14.419 -0.3338  0.5066  0.1541
 6820TIP3   OH241950   5.849   4.627   1.508  0.5598 -0.1268  0.2402
 6820TIP3    H141951   5.793   4.674   1.446  1.4091 -0.7592 -1.0554
 6820TIP3    H241952   5.924   4.685   1.520  1.2912 -0.8079 -0.8381
 6821TIP3   OH241953   5.781   3.070   5.929  0.2293 -0.6369  0.0162
 6821TIP3    H141954   5.698   3.023   5.934  0.6771 -1.3014  1.5189
 6821TIP3    H241955   5.818   3.065   6.017  0.1526  2.8567  0.3663
 6822TIP3   OH241956   3.198   6.113   3.674  0.3873  0.0367 -0.3162
 6822TIP3    H141957   3.162   6.174   3.738  1.5660  0.4100  0.0296
 6822TIP3    H241958   3.127   6.051   3.656 -0.4461  0.8176  0.2102
 6823TIP3   OH241959   3.775   1.950   0.945  0.4557  0.3753 -0.6321
 6823TIP3    H141960   3.701   1.940   0.886 -0.2880  0.5534  0.2380
 6823TIP3    H241961   3.824   1.868   0.938  0.3481  0.3801 -1.4394
 6824TIP3   OH241962   6.812   1.923   1.399 -0.0613  0.3113 -0.0987
 6824TIP3    H141963   6.818   1.854   1.465 -0.0356  1.6758  1.3578
 6824TIP3    H241964   6.903   1.939   1.373 -0.0956 -0.4542 -0.7625
 6825TIP3   OH241965   4.150   6.657  10.778  0.1084  1.1644 -0.1209
 6825TIP3    H141966   4.197   6.712  10.841 -1.4816  0.8101  1.4607
 6825TIP3    H241967   4.078   6.711  10.747  0.5177  1.1180 -1.2080
 6826TIP3   OH241968   4.207   2.407  16.855  0.5305  0.4726  0.4878
 6826TIP3    H141969   4.275   2.472  16.841  1.7289 -0.8481 -0.0550
 6826TIP3    H241970   4.205   2.355  16.775 -0.4349 -0.1278  0.8697
 6827TIP3   OH241971   5.094   5.959  16.002 -0.3942 -0.6133  0.7064
 6827TIP3    H141972   5.098   5.875  16.048 -0.9430 -0.4125  1.1350
 6827TIP3    H241973   5.101   5.937  15.910  3.8731 -0.8139  0.9123
 6828TIP3   OH241974   5.681   0.141   1.761 -0.1581 -0.6876  0.4437
 6828TIP3    H141975   5.750   0.162   1.824  0.1999 -1.6877  0.4019
 6828TIP3    H241976   5.624   0.079   1.806 -0.9313 -0.0164  0.4103
 6829TIP3   OH241977   2.817   0.332  12.017 -0.4889  0.1166 -0.0193
 6829TIP3    H141978   2.815   0.427  12.006  2.0450  0.3854  1.2076
 6829TIP3    H241979   2.895   0.315  12.070 -0.7467 -2.6838 -0.3776
 6830TIP3   OH241980   2.615   2.213   0.407  0.5251 -0.2308 -0.1425
 6830TIP3    H141981   2.613   2.130   0.359 -1.8235  0.0572 -0.6683
 6830TIP3    H241982   2.608   2.280   0.340 -2.1218  0.2062  0.4788
 6831TIP3   OH241983   1.799   5.185  10.766 -0.5593  0.0987  0.4475
 6831TIP3    H141984   1.814   5.269  10.723 -1.7126  0.6640  1.1262
 6831TIP3    H241985   1.764   5.207  10.852  0.2132 -1.0612  1.0969
 6832TIP3   OH241986   2.267   6.520   4.514  0.0939  0.5195 -0.1686
 6832TIP3    H141987   2.229   6.574   4.583 -2.4325 -0.9364 -0.3310
 6832TIP3    H241988   2.198   6.511   4.449  0.7646 -2.0627 -0.6189
 6833TIP3   OH241989   2.031   4.912   3.974 -0.0839  0.0120 -0.2760
 6833TIP3    H141990   2.105   4.971   3.959 -0.3417  0.4401  0.1057
 6833TIP3    H241991   2.071   4.830   4.003  0.2103  0.5397  0.8704
 6834TIP3   OH241992   4.141   6.722  13.128 -0.3714  0.8023  0.5749
 6834TIP3    H141993   4.127   6.674  13.046 -0.9559  1.6137  0.1777
 6834TIP3    H241994   4.166   6.810  13.099 -0.6608  1.1185  1.2628
 6835TIP3   OH241995   2.712   3.119   2.854 -0.1936 -0.1383  0.8480
 6835TIP3    H141996   2.790   3.076   2.820 -0.5362  0.0557 -0.2081
 6835TIP3    H241997   2.721   3.114   2.949  0.1231 -1.8754  0.7469
 6836TIP3   OH241998   2.652   6.576  11.463 -0.6664 -0.3196  0.1951
 6836TIP3    H141999   2.678   6.623  11.542 -2.2580 -1.1995  1.3031
 6836TIP3    H242000   2.582   6.518  11.491  1.0376 -3.2601 -1.1069
 6837TIP3   OH242001   1.489   2.790  13.961  0.3718  0.4573 -0.0183
 6837TIP3    H142002   1.494   2.697  13.982 -0.9366 -0.6134 -3.6069
 6837TIP3    H242003   1.418   2.796  13.897 -1.2454  4.3747  1.8620
 6838TIP3   OH242004   1.273   2.238   1.194  0.5508 -0.2929  0.4978
 6838TIP3    H142005   1.297   2.317   1.146 -0.8615  0.0845  0.3454
 6838TIP3    H242006   1.232   2.181   1.129  0.1916 -0.4998  0.8959
 6839TIP3   OH242007   0.979   6.594  16.518  0.4837 -0.0663 -0.1029
 6839TIP3    H142008   0.908   6.571  16.578 -1.2986  0.8293 -1.7486
 6839TIP3    H242009   1.051   6.536  16.543 -0.3799 -0.1871  2.4157
 6840TIP3   OH242010   5.461   5.607  14.431 -0.2059 -0.1700 -0.2035
 6840TIP3    H142011   5.501   5.593  14.517 -3.4324  0.8250  1.6301
 6840TIP3    H242012   5.487   5.697  14.407  0.2510 -0.2506 -0.0251
 6841TIP3   OH242013   0.553   4.828  10.606 -0.2873 -0.0523 -0.1536
 6841TIP3    H142014   0.507   4.912  10.615  0.3259  0.1985  0.8081
 6841TIP3    H242015   0.614   4.842  10.535 -0.4600  0.1908 -0.2561
 6842TIP3   OH242016   5.673   4.405   4.414  0.1738 -0.1124  0.0456
 6842TIP3    H142017   5.581   4.381   4.411  0.2287 -0.2478 -1.3277
 6842TIP3    H242018   5.715   4.346   4.352  1.6675 -1.9196  2.5768
 6843TIP3   OH242019   2.264   0.313   1.258  0.0243  0.3756  0.3686
 6843TIP3    H142020   2.288   0.384   1.199 -0.1578 -1.9716 -2.8153
 6843TIP3    H242021   2.340   0.304   1.317  0.8179  1.9613 -0.3459
 6844TIP3   OH242022   2.884   5.913   6.177 -0.2488  0.3249  0.5350
 6844TIP3    H142023   2.896   5.851   6.105  2.1564  1.9487 -0.5908
 6844TIP3    H242024   2.827   5.867   6.239 -1.5454 -1.5637 -1.8609
 6845TIP3   OH242025   4.372   6.246   2.248  0.0052  0.0975  0.3384
 6845TIP3    H142026   4.308   6.303   2.291  1.7260  1.2856  1.4726
 6845TIP3    H242027   4.357   6.160   2.288 -1.6604  0.0455 -0.3230
 6846TIP3   OH242028   4.363   5.627  16.762  0.5264 -0.0239 -0.3427
 6846TIP3    H142029   4.408   5.711  16.747  0.7598  0.2867  1.8025
 6846TIP3    H242030   4.271   5.647  16.747  0.4742  0.8811  1.0272
 6847TIP3   OH242031   4.583   4.283   1.407  0.0715 -0.0525 -0.3693
 6847TIP3    H142032   4.506   4.246   1.451  0.4760 -1.2164 -0.5948
 6847TIP3    H242033   4.657   4.233   1.443  0.5268 -0.2257 -1.5068
 6848TIP3   OH242034   3.315   6.043  16.820 -1.0349  0.8191  0.0519
 6848TIP3    H142035   3.295   6.006  16.906  2.1624  1.3090  1.1093
 6848TIP3    H242036   3.287   6.135  16.826 -2.0047  0.5305  0.0804
 6849TIP3   OH242037   0.272   3.753  11.455  0.3826  1.3015  0.4067
 6849TIP3    H142038   0.214   3.714  11.389 -0.2561 -0.3333  1.8433
 6849TIP3    H242039   0.344   3.691  11.463  0.7386  1.7666  0.8435
 6850TIP3   OH242040   0.558   3.794   6.041 -0.3976 -0.5435  0.7755
 6850TIP3    H142041   0.485   3.856   6.045  0.2796  0.3011  0.2816
 6850TIP3    H242042   0.520   3.711   6.066 -1.4518 -0.0360  0.9017
 6851TIP3   OH242043   5.341   2.190   0.931 -0.0955 -0.0329 -0.0300
 6851TIP3    H142044   5.328   2.108   0.882 -2.1939  0.4061 -0.3008
 6851TIP3    H242045   5.376   2.251   0.866  2.8445 -0.9911  0.4838
 6852TIP3   OH242046   6.193   3.013  16.048  0.3814  0.2269 -0.2341
 6852TIP3    H142047   6.244   2.933  16.035 -2.1560 -2.0701  2.3602
 6852TIP3    H242048   6.107   2.992  16.012 -0.6669  1.2834  1.5040
 6853TIP3   OH242049   3.776   6.641  10.056 -0.1481 -0.8187 -0.2386
 6853TIP3    H142050   3.697   6.649  10.109  1.0917 -0.5757  1.6873
 6853TIP3    H242051   3.777   6.720  10.002  1.4481  2.2338  3.6925
 6854TIP3   OH242052   1.703   4.933  16.800  0.6736  0.3402 -0.1463
 6854TIP3    H142053   1.753   5.013  16.817  0.1053  0.3804  1.5707
 6854TIP3    H242054   1.612   4.956  16.820  0.0237  0.0584 -2.4995
 6855TIP3   OH242055   2.323   3.695   2.790 -0.2448  0.3187  0.2724
 6855TIP3    H142056   2.238   3.653   2.800 -0.7582  1.4856  1.0644
 6855TIP3    H242057   2.330   3.714   2.697 -0.8708  0.2400  0.2052
 6856TIP3   OH242058   3.466   1.916   2.113  0.1678  0.0031 -0.4041
 6856TIP3    H142059   3.458   1.973   2.036  0.7287  0.4336 -0.1438
 6856TIP3    H242060   3.413   1.840   2.091 -0.1482  0.3818 -0.9822
 6857TIP3   OH242061   3.890   6.721   0.021  0.2618 -0.5386 -0.5039
 6857TIP3    H142062   3.859   6.798  -0.027 -0.2963 -0.1653  0.4239
 6857TIP3    H242063   3.836   6.649  -0.011  0.0800 -0.3453 -0.6366
 6858TIP3   OH242064   5.495   2.968  10.614 -1.1066  0.5504 -0.0433
 6858TIP3    H142065   5.572   3.018  10.590 -0.2234 -0.7690 -0.0485
 6858TIP3    H242066   5.446   3.026  10.672  0.2231  1.1646  0.5098
 6859TIP3   OH242067   0.180   0.760  16.638 -0.4549 -0.1889 -0.6532
 6859TIP3    H142068   0.195   0.795  16.726 -1.3432 -1.7235  0.1463
 6859TIP3    H242069   0.249   0.800  16.585  0.0990  0.7842  0.7277
 6860TIP3   OH242070   6.403   6.675  10.146 -0.4717  0.9037  0.1682
 6860TIP3    H142071   6.472   6.741  10.149  0.4219  0.1671 -2.1768
 6860TIP3    H242072   6.437   6.602  10.198 -0.0170  1.0113  0.0241
 6861TIP3   OH242073   4.534   2.529   3.726  0.1132  0.5598  0.4614
 6861TIP3    H142074   4.625   2.552   3.743  0.3551 -0.3018  0.3825
 6861TIP3    H242075   4.525   2.440   3.760 -0.4411  0.2818 -0.3826
 6862TIP3   OH242076   1.688   5.286  10.983  0.6129 -0.2868  0.1333
 6862TIP3    H142077   1.721   5.353  11.044  0.9827 -1.1410  0.8917
 6862TIP3    H242078   1.594   5.283  11.000  0.7827 -0.8906  1.0679
 6863TIP3   OH242079   1.532   5.736   0.031 -0.3196 -0.2916  0.0911
 6863TIP3    H142080   1.465   5.797   0.063 -0.0140  0.0672  0.0456
 6863TIP3    H242081   1.601   5.739   0.096 -0.6592 -1.2194  0.5176
 6864TIP3   OH242082   0.721   0.966   6.421  0.1461  0.3007  0.1467
 6864TIP3    H142083   0.694   0.890   6.370  0.4097 -0.0056  0.4551
 6864TIP3    H242084   0.737   1.035   6.356  0.7600 -0.1683 -0.2102
 6865TIP3   OH242085   6.616   3.380   2.388 -0.5345 -0.1869  0.0761
 6865TIP3    H142086   6.620   3.475   2.386 -0.1829 -0.2078 -1.1234
 6865TIP3    H242087   6.569   3.356   2.308 -0.3942 -1.0362  0.2300
 6866TIP3   OH242088   3.876   5.930  15.379  0.3836  0.0036  0.2029
 6866TIP3    H142089   3.854   6.023  15.380  1.0394  0.2417 -1.9058
 6866TIP3    H242090   3.887   5.907  15.471 -3.5554  1.0478  1.1481
 6867TIP3   OH242091   3.815   0.583   3.401  0.1316 -0.8360  0.2783
 6867TIP3    H142092   3.726   0.611   3.420 -0.3959 -2.2350  0.0173
 6867TIP3    H242093   3.814   0.559   3.309  1.6304  2.0929 -0.6220
 6868TIP3   OH242094   4.768   3.797  15.096  0.2553  0.3360 -0.2130
 6868TIP3    H142095   4.713   3.874  15.082  0.9751  0.5636 -2.1035
 6868TIP3    H242096   4.829   3.825  15.165 -1.4865  0.3020  1.4253
 6869TIP3   OH242097   1.013   6.794   6.448 -0.2663  0.3971  0.3569
 6869TIP3    H142098   1.047   6.876   6.412 -3.3614  1.4946 -0.3527
 6869TIP3    H242099   1.023   6.730   6.378 -0.3563  0.8645 -0.0825
 6870TIP3   OH242100   2.021   1.825  15.237  0.1095 -0.0324  0.4255
 6870TIP3    H142101   1.959   1.757  15.210  1.1237 -0.9182  0.2537
 6870TIP3    H242102   1.976   1.907  15.220 -0.6664 -0.6441 -0.5479
 6871TIP3   OH242103   3.828   4.705  14.970  0.1509 -0.0337 -0.5026
 6871TIP3    H142104   3.911   4.677  14.931  0.6974  0.2230  0.4374
 6871TIP3    H242105   3.796   4.627  15.016  0.6200  0.2589  0.3531
 6872TIP3   OH242106   6.607   0.659  16.100 -0.2440 -0.0619 -0.0297
 6872TIP3    H142107   6.550   0.643  16.176 -1.0112  0.5326 -0.4591
 6872TIP3    H242108   6.546   0.672  16.027  0.4889 -1.1055 -0.8599
 6873TIP3   OH242109   0.268   1.658   6.313 -0.4755  0.2290  0.3044
 6873TIP3    H142110   0.298   1.569   6.295  0.4923  0.4301  0.8373
 6873TIP3    H242111   0.277   1.704   6.230 -0.6202 -0.0804  0.1182
 6874TIP3   OH242112   2.896   3.174   0.119 -0.0133 -0.1628 -0.3015
 6874TIP3    H142113   2.963   3.241   0.128  0.4499 -0.5648 -0.6772
 6874TIP3    H242114   2.817   3.222   0.095  0.1813  0.2993 -0.0282
 6875TIP3   OH242115   4.043   1.213   2.397 -0.0171 -0.3210 -0.4995
 6875TIP3    H142116   4.062   1.256   2.480 -0.1454 -1.4247  0.1203
 6875TIP3    H242117   3.947   1.203   2.396 -0.1750  0.9560 -1.4493
 6876TIP3   OH242118   0.342   0.873  15.684  0.0205  0.2896  0.3896
 6876TIP3    H142119   0.335   0.894  15.591 -1.0335  0.0021  0.3845
 6876TIP3    H242120   0.277   0.930  15.726 -0.4952 -0.5496  0.7626
 6877TIP3   OH242121   3.378   0.997   2.793 -0.0732  0.2500  0.0718
 6877TIP3    H142122   3.471   1.020   2.802  0.0740 -0.2893  0.0005
 6877TIP3    H242123   3.334   1.048   2.860  0.3248  0.2435  0.3409
 6878TIP3   OH242124   2.647   1.609  15.946 -0.5961  0.3377  0.3259
 6878TIP3    H142125   2.669   1.602  15.853 -0.8078 -0.8735  0.3446
 6878TIP3    H242126   2.692   1.535  15.987 -0.8568  0.6069  1.1267
 6879TIP3   OH242127   1.584   0.920  16.383 -0.3610 -0.0301  0.3619
 6879TIP3    H142128   1.551   0.841  16.427  0.5654 -0.5108  0.2116
 6879TIP3    H242129   1.597   0.893  16.292 -0.8202  0.5361  0.1212
 6880TIP3   OH242130   5.129   0.841   5.411  0.2796 -0.0051 -0.0891
 6880TIP3    H142131   5.055   0.885   5.369 -0.3981 -0.8941  0.1433
 6880TIP3    H242132   5.163   0.783   5.343 -0.3381 -0.8795  0.3269
 6881TIP3   OH242133   2.786   5.109   4.362  0.2011 -0.3852  0.2785
 6881TIP3    H142134   2.806   5.041   4.426 -1.6693 -1.3616 -0.1157
 6881TIP3    H242135   2.783   5.064   4.278  2.0996  0.7890 -0.4988
 6882TIP3   OH242136   3.711   4.170   4.141  0.3537 -0.0960  0.2867
 6882TIP3    H142137   3.647   4.172   4.212  0.5302 -0.2904  0.4503
 6882TIP3    H242138   3.794   4.151   4.183  1.0416  2.8066  0.4443
 6883TIP3   OH242139   2.415   2.912   3.986 -0.3851 -0.4668 -0.4444
 6883TIP3    H142140   2.496   2.919   3.936  0.3463 -0.5811  0.6851
 6883TIP3    H242141   2.406   2.997   4.030  0.6451 -1.3494  1.6234
 6884TIP3   OH242142   4.071   1.539   1.632 -0.4123  0.6494 -0.4327
 6884TIP3    H142143   4.048   1.583   1.714  1.3475  0.0598  0.4195
 6884TIP3    H242144   4.003   1.473   1.621  0.7794 -1.1734  2.1049
 6885TIP3   OH242145   2.153   0.976  13.344  0.1029 -0.0760 -0.0602
 6885TIP3    H142146   2.234   0.949  13.389 -0.3752 -1.3295  0.0822
 6885TIP3    H242147   2.146   0.918  13.269 -1.2171 -0.7166  0.5267
 6886TIP3   OH242148   2.383   3.038  12.879 -0.0655  0.0399 -0.3338
 6886TIP3    H142149   2.385   3.121  12.927 -2.2247 -0.4505  0.7616
 6886TIP3    H242150   2.475   3.013  12.869  0.6014  2.1988 -0.0793
 6887TIP3   OH242151   4.774   3.923   4.998 -0.0071  0.2284 -0.2696
 6887TIP3    H142152   4.811   3.837   5.019  2.0726  1.4337  1.3879
 6887TIP3    H242153   4.711   3.939   5.068  0.6377  0.6242  0.2295
 6888TIP3   OH242154   6.868   6.341  11.734  0.5591 -0.0050  0.0794
 6888TIP3    H142155   6.936   6.275  11.749  1.3279  0.6706 -0.4085
 6888TIP3    H242156   6.787   6.298  11.762  1.3226 -0.4161  1.7702
 6889TIP3   OH242157   1.947   6.359  11.485  0.0507  0.0349  0.0019
 6889TIP3    H142158   1.939   6.426  11.417  2.4086 -0.7698 -1.1533
 6889TIP3    H242159   1.971   6.279  11.438  0.4716 -0.8514  1.6513
 6890TIP3   OH242160   3.555   1.714  12.050 -0.0285  0.1696  0.2647
 6890TIP3    H142161   3.551   1.619  12.063  0.7550  0.1875  0.7043
 6890TIP3    H242162   3.644   1.730  12.019 -1.2361  0.3570 -3.6035
 6891TIP3   OH242163   6.744   4.752  13.049  0.0880  0.1814 -0.3829
 6891TIP3    H142164   6.660   4.766  13.005  0.0207  0.0077 -0.3126
 6891TIP3    H242165   6.804   4.813  13.007  0.2204 -0.5343 -1.2710
 6892TIP3   OH242166   4.336   6.783  12.579 -0.0680 -0.1751 -0.0151
 6892TIP3    H142167   4.409   6.822  12.626 -0.8934  0.4843  0.7588
 6892TIP3    H242168   4.358   6.794  12.486  0.0130  1.6235  0.1791
 6893TIP3   OH242169   4.187   5.401   1.609 -0.1345 -0.5576  0.4096
 6893TIP3    H142170   4.119   5.418   1.674 -0.5084  1.5298 -0.4171
 6893TIP3    H242171   4.270   5.419   1.654 -0.4023  1.0599  0.3306
 6894TIP3   OH242172   2.311   1.099  16.481  0.1869  0.1738  0.2521
 6894TIP3    H142173   2.251   1.171  16.465 -0.9426 -0.7635  0.1717
 6894TIP3    H242174   2.264   1.021  16.452  0.9251 -0.7417  1.4113
 6895TIP3   OH242175   5.408   3.733   5.832 -0.0357 -0.5089  0.1823
 6895TIP3    H142176   5.483   3.717   5.775 -1.3476 -1.5273 -1.3542
 6895TIP3    H242177   5.446   3.750   5.918  2.1013  2.0777 -1.1323
 6896TIP3   OH242178   5.945   1.830  11.657  0.7188  0.0222  0.7294
 6896TIP3    H142179   6.001   1.904  11.682 -0.0461  0.9599 -0.2375
 6896TIP3    H242180   5.857   1.866  11.658  0.3441 -0.8416  0.0828
 6897TIP3   OH242181   5.254   1.585  15.207 -0.1900  0.5121 -0.0909
 6897TIP3    H142182   5.306   1.507  15.231 -1.2337 -0.2279 -0.1835
 6897TIP3    H242183   5.175   1.578  15.260 -1.6399 -0.0867 -2.2084
 6898TIP3   OH242184   6.079   0.002  12.019 -0.2615  0.4172 -0.2800
 6898TIP3    H142185   6.102   0.089  11.987 -0.2188  0.1637 -0.9571
 6898TIP3    H242186   6.064  -0.050  11.940 -1.5511  0.1407  0.1262
 6899TIP3   OH242187   2.032   4.099  11.508  0.1052 -0.1200  0.1319
 6899TIP3    H142188   2.111   4.148  11.532 -0.0605 -0.4862  1.5092
 6899TIP3    H242189   2.040   4.016  11.557  0.0148 -1.1719 -1.5616
 6900TIP3   OH242190   4.587   6.656  16.773  0.1776 -0.2996  0.3049
 6900TIP3    H142191   4.607   6.568  16.806  1.4068 -0.2615 -0.2655
 6900TIP3    H242192   4.598   6.648  16.678  1.6199  0.7542  0.3329
 6901TIP3   OH242193   3.420   0.214   4.326 -0.1552 -0.5057 -0.0082
 6901TIP3    H142194   3.342   0.211   4.382  0.5444 -1.6954  0.9696
 6901TIP3    H242195   3.394   0.170   4.246 -0.1941 -1.9105  0.7464
 6902TIP3   OH242196   6.316   1.669  14.432 -0.6012 -0.4098  0.4269
 6902TIP3    H142197   6.408   1.643  14.439  0.0222  1.2613 -0.9122
 6902TIP3    H242198   6.305   1.739  14.496 -0.9188 -0.5194  0.4975
 6903TIP3   OH242199   6.534   3.652   2.408 -0.0700  0.6304  0.2151
 6903TIP3    H142200   6.577   3.689   2.331 -0.7162 -1.8531 -1.4714
 6903TIP3    H242201   6.587   3.682   2.481  2.0105  1.1577 -1.3952
 6904TIP3   OH242202   0.923   2.326   2.331  0.2294  0.0635  0.2477
 6904TIP3    H142203   1.001   2.372   2.303  0.4946 -0.6146 -0.1653
 6904TIP3    H242204   0.874   2.390   2.382  0.3228  0.9638 -0.7564
 6905TIP3   OH242205   5.470   4.891   5.055  0.5109 -0.2991  0.0538
 6905TIP3    H142206   5.496   4.891   4.963  0.9128  0.9623  0.1466
 6905TIP3    H242207   5.520   4.962   5.094 -0.0553 -0.4717  1.1421
 6906TIP3   OH242208   1.022   1.418   2.350  0.4532 -0.6158  0.5141
 6906TIP3    H142209   1.079   1.486   2.385 -1.7307  0.7146  1.7088
 6906TIP3    H242210   1.066   1.388   2.270  1.0564  2.8598 -0.6149
 6907TIP3   OH242211   3.728   5.959  14.294  0.2784 -0.0679  0.1047
 6907TIP3    H142212   3.639   5.933  14.316  0.0649 -0.3582 -1.0436
 6907TIP3    H242213   3.782   5.887  14.325  0.2813  0.6377  1.9060
 6908TIP3   OH242214   4.280   2.714  11.544  0.3957  0.5070 -0.3272
 6908TIP3    H142215   4.343   2.721  11.471  0.2999  1.4559 -0.3282
 6908TIP3    H242216   4.335   2.699  11.621  0.4939 -0.5682 -0.5991
 6909TIP3   OH242217   4.270   4.549  13.117 -0.0758 -1.0414  0.1461
 6909TIP3    H142218   4.219   4.572  13.039 -0.4312  1.9569  1.1159
 6909TIP3    H242219   4.243   4.460  13.138 -0.8355 -1.5200 -2.4493
 6910TIP3   OH242220   0.560   6.568  13.585 -0.2481 -0.2746  0.2880
 6910TIP3    H142221   0.535   6.545  13.675  0.3097  3.3812  1.5440
 6910TIP3    H242222   0.649   6.602  13.592 -0.1315 -0.0248 -1.6994
 6911TIP3   OH242223   2.605   3.358   4.505  0.3610 -0.2308  0.1069
 6911TIP3    H142224   2.533   3.297   4.523 -0.3697 -0.2131 -2.4556
 6911TIP3    H242225   2.681   3.301   4.494  0.4152 -0.3779  1.1052
 6912TIP3   OH242226   3.614   4.024  15.165  0.4478 -0.4655 -0.2594
 6912TIP3    H142227   3.661   4.038  15.247 -0.1031  1.7051 -0.2381
 6912TIP3    H242228   3.523   4.010  15.191  0.4224 -0.6914 -0.4667
 6913TIP3   OH242229   0.081   3.483   2.919 -0.4545 -0.3663 -0.4534
 6913TIP3    H142230  -0.007   3.515   2.940 -1.0696 -0.7696 -2.3066
 6913TIP3    H242231   0.084   3.395   2.956 -0.9416 -0.4669 -0.6486
 6914TIP3   OH242232   6.864   0.836   6.325  0.1325 -0.3883  0.3293
 6914TIP3    H142233   6.812   0.780   6.267 -0.9014 -0.4207  1.2519
 6914TIP3    H242234   6.881   0.915   6.273 -0.3115 -0.6350 -0.2004
 6915TIP3   OH242235   4.797   4.855  15.471 -0.3593  0.1968 -0.1796
 6915TIP3    H142236   4.850   4.852  15.551  0.8489  0.4128 -0.9494
 6915TIP3    H242237   4.856   4.893  15.405 -0.3482 -2.6172 -1.9342
 6916TIP3   OH242238   0.080   3.172  14.227 -0.4392  0.2609 -0.1386
 6916TIP3    H142239   0.092   3.077  14.226  0.7857  0.3934  0.1083
 6916TIP3    H242240  -0.014   3.184  14.220 -0.5765 -0.9599 -0.6879
 6917TIP3   OH242241   5.025   3.497   2.711 -0.6090 -0.9438  0.3444
 6917TIP3    H142242   5.107   3.464   2.747  0.2053 -0.0801 -0.6245
 6917TIP3    H242243   5.003   3.438   2.639  0.6939  0.3439 -1.2016
 6918TIP3   OH242244   3.335   4.748   1.964  0.0911 -0.4597  0.3202
 6918TIP3    H142245   3.304   4.672   2.014  0.8154 -1.1315 -0.2331
 6918TIP3    H242246   3.368   4.711   1.882 -0.7677  0.5880 -0.5347
 6919TIP3   OH242247   1.920   6.683  15.784 -0.1441 -0.2049  0.0758
 6919TIP3    H142248   1.945   6.593  15.801  0.3446  0.0274  0.6298
 6919TIP3    H242249   1.993   6.735  15.818 -0.4834  0.4012 -0.1042
 6920TIP3   OH242250   5.305   3.537  11.116 -0.1895 -0.1684 -0.2386
 6920TIP3    H142251   5.397   3.563  11.126 -0.1046 -1.0950  2.3827
 6920TIP3    H242252   5.257   3.619  11.108  0.7187  0.4480  0.3945
 6921TIP3   OH242253   6.864   6.464   4.266  0.1223 -0.3903 -0.3075
 6921TIP3    H142254   6.836   6.474   4.175  0.5694  1.8342 -0.2466
 6921TIP3    H242255   6.914   6.544   4.285  0.4237 -1.0168  1.7581
 6922TIP3   OH242256   4.527   1.549   2.628  0.0429  1.0574  0.3849
 6922TIP3    H142257   4.569   1.632   2.607 -1.4701  1.7580  0.0129
 6922TIP3    H242258   4.461   1.538   2.559  1.6238 -1.5414 -0.8765
 6923TIP3   OH242259   4.794   4.825   4.420  0.0980  0.4466  0.0820
 6923TIP3    H142260   4.802   4.880   4.342  0.8124  0.4560  0.1492
 6923TIP3    H242261   4.795   4.887   4.493 -2.2519  0.5713  0.0645
 6924TIP3   OH242262   0.689   3.578   2.067  0.3793  0.9558  0.1565
 6924TIP3    H142263   0.662   3.513   2.003  0.0421  0.7823  0.4684
 6924TIP3    H242264   0.729   3.528   2.138 -1.4185  0.9092  1.1906
 6925TIP3   OH242265   4.842   4.334  11.302  0.0990  0.2269 -0.0788
 6925TIP3    H142266   4.769   4.274  11.289 -0.6600  1.0604  0.2346
 6925TIP3    H242267   4.803   4.410  11.346  1.0019  1.0110 -0.5917
 6926TIP3   OH242268   3.737   0.244  12.135 -0.5311  0.1593 -0.1647
 6926TIP3    H142269   3.804   0.188  12.174 -0.4928  0.7775  0.6620
 6926TIP3    H242270   3.747   0.230  12.041  2.1002  1.7386 -0.2101
 6927TIP3   OH242271   4.719   5.259  10.929 -0.1650 -0.0833 -0.2677
 6927TIP3    H142272   4.753   5.170  10.939 -1.0520 -0.4276 -0.2259
 6927TIP3    H242273   4.636   5.259  10.976  0.7425  1.3536  1.4613
 6928TIP3   OH242274   0.565   0.662  13.321  0.5651 -0.1915  0.0418
 6928TIP3    H142275   0.571   0.567  13.337 -0.4381 -0.2113  0.4070
 6928TIP3    H242276   0.512   0.670  13.242  0.5104  0.0649  0.1031
 6929TIP3   OH242277   5.422   5.642  14.042 -0.2026 -0.7089 -0.1445
 6929TIP3    H142278   5.458   5.731  14.041 -0.9937 -0.3673  0.7482
 6929TIP3    H242279   5.328   5.655  14.055 -0.2691 -1.7001  0.3972
 6930TIP3   OH242280   2.703   3.016   1.704  0.0829 -0.2546 -0.0198
 6930TIP3    H142281   2.663   3.092   1.661  3.0664  2.7625  1.9723
 6930TIP3    H242282   2.736   2.962   1.633  0.3721  1.8627 -1.5897
 6931TIP3   OH242283   1.440   4.526   5.150 -0.2166 -0.2078 -0.4679
 6931TIP3    H142284   1.365   4.502   5.204  0.3455 -0.3528  0.2695
 6931TIP3    H242285   1.438   4.622   5.147  1.2837  0.0086  2.1515
 6932TIP3   OH242286   4.282   4.827   4.769  0.0987 -0.4646  0.2396
 6932TIP3    H142287   4.361   4.789   4.809  0.5740 -0.4304 -0.6358
 6932TIP3    H242288   4.238   4.872   4.841  1.6357  0.7616  0.4771
 6933TIP3   OH242289   3.139   1.618  12.361 -0.4893 -0.5080 -0.1467
 6933TIP3    H142290   3.119   1.543  12.305  1.0585  0.2270 -1.7823
 6933TIP3    H242291   3.201   1.670  12.311  0.1607  0.7688  1.8447
 6934TIP3   OH242292   1.687   0.540  11.933  0.7725  0.0548 -0.0046
 6934TIP3    H142293   1.726   0.506  12.013  1.8563  2.5158  0.5864
 6934TIP3    H242294   1.607   0.585  11.962  0.4391 -0.2024 -0.5015
 6935TIP3   OH242295   5.212   6.752  14.354 -0.2472 -0.1375 -0.5913
 6935TIP3    H142296   5.149   6.697  14.402 -1.5293  0.2248 -1.7798
 6935TIP3    H242297   5.288   6.695  14.340 -1.2992 -1.4483 -1.2679
 6936TIP3   OH242298   4.795   1.288   5.786  0.1503 -0.2488 -0.0209
 6936TIP3    H142299   4.708   1.268   5.751 -1.0584 -2.3374  3.6671
 6936TIP3    H242300   4.781   1.360   5.847  1.0866 -0.3329  0.3164
 6937TIP3   OH242301   1.642   1.557  16.183 -0.0382  0.5117 -0.3475
 6937TIP3    H142302   1.656   1.640  16.229 -1.2575 -0.3794  1.8267
 6937TIP3    H242303   1.547   1.551  16.173  0.1346  0.1654 -2.1197
 6938TIP3   OH242304   1.310   6.701   3.472 -0.0105  0.2314 -0.6482
 6938TIP3    H142305   1.383   6.763   3.472  0.6746 -0.5378 -1.5906
 6938TIP3    H242306   1.348   6.620   3.436 -1.1178 -0.4414 -0.3437
 6939TIP3   OH242307   3.339   1.666  15.780 -0.4680  0.5561  0.4010
 6939TIP3    H142308   3.333   1.760  15.762  1.6990  0.7489  0.4677
 6939TIP3    H242309   3.353   1.626  15.694 -1.5760  0.2289  0.3475
 6940TIP3   OH242310   4.986   2.559   0.177  0.3845 -0.2711 -0.2784
 6940TIP3    H142311   4.940   2.609   0.244  0.6229  1.4521 -1.3430
 6940TIP3    H242312   4.935   2.571   0.098  0.9330 -1.0137 -0.7658
 6941TIP3   OH242313   3.283   1.393  13.961  0.7116  0.2938 -0.1863
 6941TIP3    H142314   3.352   1.329  13.977  0.2381 -0.2611 -0.2849
 6941TIP3    H242315   3.252   1.372  13.873  0.1349  0.2541  0.0221
 6942TIP3   OH242316   0.437   3.049  14.847  0.3055  0.3725  0.2278
 6942TIP3    H142317   0.432   3.137  14.886  1.3682  0.7647 -0.4802
 6942TIP3    H242318   0.500   3.002  14.901  0.1105  0.1983  0.3059
 6943TIP3   OH242319   5.163   4.621   5.268 -0.3782  0.0584  0.2026
 6943TIP3    H142320   5.251   4.619   5.230 -1.4307  0.8468 -2.5227
 6943TIP3    H242321   5.162   4.700   5.322  0.6256 -0.0673  0.4307
 6944TIP3   OH242322   2.854   6.276   2.154 -0.3079  0.2177 -0.3950
 6944TIP3    H142323   2.915   6.219   2.106 -0.4847  1.5317 -2.3127
 6944TIP3    H242324   2.859   6.360   2.109 -1.1102  1.3295  1.4690
 6945TIP3   OH242325   6.604   6.226   5.819 -0.3238  0.6321  0.6417
 6945TIP3    H142326   6.520   6.201   5.858 -0.4224  0.0374  0.0651
 6945TIP3    H242327   6.581   6.261   5.733  0.0743 -0.2019  0.1900
 6946TIP3   OH242328   3.738   4.367  12.960  0.1930  0.3513 -0.1535
 6946TIP3    H142329   3.708   4.444  13.008 -0.0704 -1.1468  2.2741
 6946TIP3    H242330   3.660   4.314  12.947  0.6422 -0.3589 -0.0684
 6947TIP3   OH242331   3.340   0.684  16.921 -0.0351 -0.4614 -0.3415
 6947TIP3    H142332   3.373   0.671  16.832  1.5240  1.3552 -0.0882
 6947TIP3    H242333   3.245   0.678  16.912  0.0894 -0.4077 -2.1100
 6948TIP3   OH242334   3.102   3.737  13.778  0.2835  0.0446 -0.3168
 6948TIP3    H142335   3.025   3.746  13.835  0.6941 -0.2827  0.2972
 6948TIP3    H242336   3.114   3.824  13.740 -0.6782 -0.0192 -0.7983
 6949TIP3   OH242337   6.662   3.511  15.024  0.3356  0.4374  0.4157
 6949TIP3    H142338   6.677   3.508  15.119 -1.0612  2.7309  0.7715
 6949TIP3    H242339   6.571   3.482  15.014  0.7406 -0.6044 -0.3312
 6950TIP3   OH242340   6.303   0.308  16.414  0.1061  0.1177  0.1804
 6950TIP3    H142341   6.355   0.340  16.340 -0.6535  0.5668 -0.1813
 6950TIP3    H242342   6.228   0.265  16.373 -0.6432  0.9165  0.6794
 6951TIP3   OH242343   1.240   4.691   0.080 -0.1163  0.4456 -0.1122
 6951TIP3    H142344   1.199   4.769   0.116  1.2184  0.5700  1.2386
 6951TIP3    H242345   1.298   4.660   0.149 -0.3748 -1.5778 -0.7310
 6952TIP3   OH242346   5.294   3.203  15.755  0.4161 -0.2819 -0.0781
 6952TIP3    H142347   5.337   3.146  15.691  1.0039 -0.1843  0.2225
 6952TIP3    H242348   5.366   3.237  15.809 -0.1043 -0.7395  0.9439
 6953TIP3   OH242349   5.023   5.633   4.098 -0.1033  0.2017 -0.9738
 6953TIP3    H142350   5.081   5.567   4.137 -0.5021  1.0744  1.2747
 6953TIP3    H242351   4.961   5.582   4.045 -0.4530 -1.2982  0.7445
 6954TIP3   OH242352   1.747   2.085   0.734  0.0900  0.0471 -0.7723
 6954TIP3    H142353   1.734   2.174   0.768 -0.0283 -0.4915  0.6451
 6954TIP3    H242354   1.842   2.073   0.735  0.0147 -0.9776  2.2077
 6955TIP3   OH242355   0.607   2.517  14.572  0.0026 -0.7431 -0.3024
 6955TIP3    H142356   0.517   2.547  14.580 -0.3765 -2.1587  0.9637
 6955TIP3    H242357   0.659   2.597  14.581 -1.0626 -0.1071  0.4117
 6956TIP3   OH242358   2.098   5.949  13.479 -0.3295 -0.2081 -0.2275
 6956TIP3    H142359   2.109   5.854  13.488  0.7241 -0.0428  0.4208
 6956TIP3    H242360   2.043   5.975  13.552 -0.8271 -0.3440 -0.5479
 6957TIP3   OH242361   0.860   1.707  11.167  0.2640  0.0741  0.3106
 6957TIP3    H142362   0.934   1.649  11.146 -1.3486 -2.0406  0.1153
 6957TIP3    H242363   0.792   1.683  11.104 -1.2870  0.5033  1.7427
 6958TIP3   OH242364   6.229   6.182   4.236 -0.4229 -0.7007  0.0253
 6958TIP3    H142365   6.258   6.136   4.314 -1.2378 -1.7169 -0.2535
 6958TIP3    H242366   6.145   6.220   4.260 -0.1349 -0.0242 -0.0045
 6959TIP3   OH242367   2.605   5.369   1.258  0.4818  0.6249 -0.1698
 6959TIP3    H142368   2.684   5.372   1.312  1.0689 -0.2770 -0.9482
 6959TIP3    H242369   2.621   5.432   1.188  0.2651  0.8562 -0.0127
 6960TIP3   OH242370   3.242   3.283   1.581 -0.3286  0.2295 -0.4233
 6960TIP3    H142371   3.292   3.359   1.551  0.2055  0.8583  1.9271
 6960TIP3    H242372   3.195   3.314   1.658  0.0840 -1.8693  0.7419
 6961TIP3   OH242373   0.458   4.364   6.237 -0.4217 -0.2683  0.0356
 6961TIP3    H142374   0.415   4.425   6.178 -1.2701 -1.4784 -0.6260
 6961TIP3    H242375   0.513   4.420   6.293 -1.6359  1.1568 -0.1300
 6962TIP3   OH242376   1.207   3.224  13.215 -0.2038  0.2225  0.5768
 6962TIP3    H142377   1.217   3.314  13.182  0.1191  0.2517  0.7435
 6962TIP3    H242378   1.243   3.228  13.304  2.8623 -0.7751 -0.4775
 6963TIP3   OH242379   3.665   0.265  10.383 -0.3520 -0.4276  0.0994
 6963TIP3    H142380   3.627   0.287  10.298 -1.8079  2.2107  1.3023
 6963TIP3    H242381   3.760   0.269  10.368 -0.5191  2.5725 -0.9576
 6964TIP3   OH242382   5.181   2.841  10.638 -0.9406  0.0943 -0.2005
 6964TIP3    H142383   5.187   2.932  10.665 -1.0407  0.0327  0.0319
 6964TIP3    H242384   5.125   2.843  10.560 -0.6993  0.2645 -0.3741
 6965TIP3   OH242385   6.314   0.000   4.758  0.0051  0.1649  0.0199
 6965TIP3    H142386   6.377   0.070   4.775 -1.5673  2.0858 -1.5473
 6965TIP3    H242387   6.365  -0.068   4.714  1.4481  0.6110  0.9462
 6966TIP3   OH242388   6.645   3.195  10.903  0.1362  0.3816  0.3997
 6966TIP3    H142389   6.574   3.172  10.844  1.5532 -1.4010 -0.6909
 6966TIP3    H242390   6.612   3.271  10.952 -2.6493 -0.6274  0.2408
 6967TIP3   OH242391   2.533   0.912  16.687  0.1384 -0.1815 -0.3954
 6967TIP3    H142392   2.516   1.005  16.699  0.4089 -0.1059 -0.5875
 6967TIP3    H242393   2.594   0.889  16.758  0.9978  0.0559 -1.0324
 6968TIP3   OH242394   6.234   5.562  16.577 -0.0040 -0.0857  0.3013
 6968TIP3    H142395   6.157   5.512  16.606 -0.9615  0.8452 -0.5456
 6968TIP3    H242396   6.309   5.509  16.605 -0.9615 -1.6577  0.0058
 6969TIP3   OH242397   1.176   0.623  16.642  0.5840  1.0587  0.6843
 6969TIP3    H142398   1.150   0.647  16.731  0.1420  1.1513  0.5349
 6969TIP3    H242399   1.221   0.539  16.652  1.6350  1.6535  1.1408
 6970TIP3   OH242400   0.536   2.220  15.936  0.3914 -0.1172 -0.1372
 6970TIP3    H142401   0.441   2.212  15.928  0.3735 -1.1939  0.8290
 6970TIP3    H242402   0.555   2.187  16.024  1.7754 -1.0533 -0.7440
 6971TIP3   OH242403   1.639   4.411   1.182  0.0484 -0.0186 -0.3850
 6971TIP3    H142404   1.635   4.507   1.186  2.5024  0.1229  0.7290
 6971TIP3    H242405   1.553   4.383   1.213 -1.1073  1.7951 -1.7270
 6972TIP3   OH242406   3.136   1.528   2.965 -0.6030 -0.5419  0.1865
 6972TIP3    H142407   3.134   1.617   2.931  2.0196 -0.8677 -1.0816
 6972TIP3    H242408   3.168   1.538   3.055  0.4893 -0.2457 -0.2255
 6973TIP3   OH242409   2.781   1.789   1.203 -0.2184 -0.1546 -0.5453
 6973TIP3    H142410   2.702   1.736   1.214 -0.3931  0.1245 -0.4513
 6973TIP3    H242411   2.785   1.843   1.282  1.0776 -1.4742  0.3301
 6974TIP3   OH242412   2.399   4.212   2.287 -0.3290  0.2527  0.2738
 6974TIP3    H142413   2.465   4.263   2.335  0.1231 -0.1519  0.0936
 6974TIP3    H242414   2.337   4.278   2.256  0.1650  0.6868  0.1698
 6975TIP3   OH242415   2.491   6.045   1.357  0.0108  0.0961  0.2393
 6975TIP3    H142416   2.583   6.064   1.379 -0.3146 -0.4012  2.2392
 6975TIP3    H242417   2.483   6.071   1.266  2.7376 -1.8887 -0.7185
 6976TIP3   OH242418   6.227   3.234   6.000  0.1343 -0.4724 -0.9989
 6976TIP3    H142419   6.200   3.214   5.911 -0.8575 -2.5534 -0.2977
 6976TIP3    H242420   6.315   3.196   6.008 -0.0709 -0.9365 -0.8976
 6977TIP3   OH242421   6.837   6.724  15.991 -0.2553 -0.2038  0.2090
 6977TIP3    H142422   6.905   6.663  16.020  1.1687  0.7773 -0.8640
 6977TIP3    H242423   6.877   6.768  15.915 -1.4285  1.6501  0.6177
 6978TIP3   OH242424   6.317   6.448   2.520  0.1021 -0.1944  0.2191
 6978TIP3    H142425   6.317   6.400   2.438  1.6935 -0.3430  0.2592
 6978TIP3    H242426   6.381   6.518   2.507  0.0747  0.0311  1.1851
 6979TIP3   OH242427   3.285   6.543   1.676  0.0804 -0.0953  0.1283
 6979TIP3    H142428   3.372   6.581   1.685  0.4087 -0.8345  0.1962
 6979TIP3    H242429   3.248   6.586   1.599  0.3528  0.4993  0.3234
 6980TIP3   OH242430   2.377   5.380  12.701 -0.0811  0.1912  0.0647
 6980TIP3    H142431   2.316   5.450  12.679  0.8100  0.8623 -0.3437
 6980TIP3    H242432   2.451   5.393  12.642  1.4247  0.7176  1.9718
 6981TIP3   OH242433   5.487   2.251  13.321  0.6593  0.1541  0.2056
 6981TIP3    H142434   5.456   2.161  13.328  0.0436  0.3421 -0.0615
 6981TIP3    H242435   5.552   2.248  13.251 -0.2517  0.1440 -0.6562
 6982TIP3   OH242436   6.658   0.264   0.099 -0.1461  0.8642  0.2156
 6982TIP3    H142437   6.581   0.319   0.087 -0.7020  0.2571  0.9003
 6982TIP3    H242438   6.731   0.326   0.106 -0.5327  1.4303 -0.6706
 6983TIP3   OH242439   4.653   0.119   2.440  0.0626  0.1559 -0.3213
 6983TIP3    H142440   4.678   0.031   2.465  1.9146  0.2532 -1.5952
 6983TIP3    H242441   4.621   0.160   2.521 -1.3820 -1.8056  0.1627
 6984TIP3   OH242442   6.120   1.999   3.953 -0.2107  0.0922 -0.2814
 6984TIP3    H142443   6.182   1.944   4.001  0.4514  1.0148 -0.0492
 6984TIP3    H242444   6.034   1.964   3.976  0.0846  0.4854  1.5529
 6985TIP3   OH242445   4.534   0.451  10.966  0.0798  0.2933 -0.1515
 6985TIP3    H142446   4.548   0.499  10.885 -3.0150 -0.4265 -1.2426
 6985TIP3    H242447   4.499   0.366  10.938 -1.0653  0.0149  1.9225
 6986TIP3   OH242448   0.577   4.290   1.218 -0.5986  0.2917  0.4241
 6986TIP3    H142449   0.494   4.335   1.203 -1.1562 -1.6006 -3.0896
 6986TIP3    H242450   0.637   4.327   1.153  0.5540 -0.1851  1.1792
 6987TIP3   OH242451   4.836   1.225   3.270  0.5294 -0.1973  0.0043
 6987TIP3    H142452   4.903   1.198   3.333 -1.9779 -1.5486  2.3500
 6987TIP3    H242453   4.787   1.294   3.316 -0.7597 -0.5089 -0.8534
 6988TIP3   OH242454   4.772   0.292   0.281 -0.4771 -0.4766  0.2627
 6988TIP3    H142455   4.841   0.229   0.301 -0.6865 -0.5901  0.6220
 6988TIP3    H242456   4.740   0.321   0.366 -0.6089 -0.1321  0.0964
 6989TIP3   OH242457   3.684   4.597  13.796 -0.5965 -0.1702  0.4704
 6989TIP3    H142458   3.758   4.657  13.785 -0.5723 -0.3908 -0.7618
 6989TIP3    H242459   3.703   4.525  13.735 -3.2032  1.1193 -2.0868
 6990TIP3   OH242460   6.149   5.355   2.810 -0.5403  0.2688  0.4044
 6990TIP3    H142461   6.069   5.305   2.822 -0.0905 -0.2325  1.5415
 6990TIP3    H242462   6.215   5.289   2.789 -0.6385  0.8044 -1.7560
 6991TIP3   OH242463   1.309   3.402  15.307  0.2889  0.0471  0.5301
 6991TIP3    H142464   1.280   3.471  15.367  0.7735 -0.3969  1.2862
 6991TIP3    H242465   1.230   3.352  15.288 -0.3029  1.4374 -0.8969
 6992TIP3   OH242466   1.259   1.618   2.306 -0.2061 -0.1905 -0.2182
 6992TIP3    H142467   1.326   1.634   2.372 -2.7725  1.2551  2.2113
 6992TIP3    H242468   1.262   1.695   2.249 -0.3186  0.2253  0.3370
 6993TIP3   OH242469   6.328   5.508  11.081 -0.2988  0.4162 -0.3145
 6993TIP3    H142470   6.360   5.467  11.000 -0.0384  1.2740 -0.6582
 6993TIP3    H242471   6.240   5.539  11.059  0.2809  1.8777 -0.7324
 6994TIP3   OH242472   6.764   0.312  11.672  0.0242  0.2518  0.1307
 6994TIP3    H142473   6.834   0.371  11.642  0.6086 -0.0754  0.8086
 6994TIP3    H242474   6.758   0.328  11.766 -0.2635 -0.2972  0.2103
 6995TIP3   OH242475   1.062   2.969   4.218  0.4371 -0.8247  0.3187
 6995TIP3    H142476   1.120   2.907   4.263  0.9962 -1.0767 -0.7141
 6995TIP3    H242477   1.086   3.054   4.254  0.4579 -1.0784  0.9212
 6996TIP3   OH242478   3.381   4.138   6.125  0.6538 -0.0576 -0.2673
 6996TIP3    H142479   3.429   4.153   6.044  2.5387 -0.2895  0.7587
 6996TIP3    H242480   3.426   4.192   6.190 -1.6047  1.1340  0.4047
 6997TIP3   OH242481   4.128   5.554   2.798 -0.3204 -0.1147 -0.3748
 6997TIP3    H142482   4.105   5.483   2.738  0.9978 -0.8709 -0.0306
 6997TIP3    H242483   4.051   5.564   2.854 -1.0234 -0.3620 -1.2933
 6998TIP3   OH242484   2.699   2.461  15.318  0.3991  0.2368 -0.0491
 6998TIP3    H142485   2.732   2.393  15.259  1.9823 -0.5584  1.6361
 6998TIP3    H242486   2.608   2.436  15.335  0.9095 -1.4345  0.4348
 6999TIP3   OH242487   4.786   2.601  13.324  0.2502  0.6722 -0.2960
 6999TIP3    H142488   4.858   2.540  13.311  0.3542  0.0104  2.6693
 6999TIP3    H242489   4.718   2.572  13.263  1.5174 -0.2992 -1.2976
 7000TIP3   OH242490   0.403   0.611  15.416 -0.1802 -0.4787  0.5007
 7000TIP3    H142491   0.448   0.616  15.500  0.0686  2.4400  0.3047
 7000TIP3    H242492   0.385   0.702  15.393  0.1535 -1.1066 -2.8205
 7001TIP3   OH242493   1.800   0.223  11.369  0.2770 -0.0728  0.6112
 7001TIP3    H142494   1.778   0.195  11.458  0.8254 -2.1336  0.1500
 7001TIP3    H242495   1.889   0.190  11.355  1.2195  2.4060  0.1432
 7002TIP3   OH242496   3.499   0.797  14.542  0.4734 -0.8464  0.6058
 7002TIP3    H142497   3.574   0.812  14.485  1.6221 -1.8229  1.8229
 7002TIP3    H242498   3.442   0.738  14.493  0.9293 -0.8315  0.0580
 7003TIP3   OH242499   3.345   3.379  11.024  0.3998 -0.5328 -0.0274
 7003TIP3    H142500   3.432   3.415  11.009  0.0379 -0.0769 -1.1542
 7003TIP3    H242501   3.347   3.293  10.982 -0.3835  0.4371 -2.1986
 7004TIP3   OH242502   6.686   3.245   2.607  0.0973  0.4651 -0.7199
 7004TIP3    H142503   6.660   3.295   2.685 -1.2490 -1.3409  0.0572
 7004TIP3    H242504   6.660   3.301   2.534  3.5569  3.3081 -0.0273
 7005TIP3   OH242505   3.851   3.807   4.108  0.2955 -0.1381 -0.1843
 7005TIP3    H142506   3.781   3.821   4.171  1.1084 -0.2356  0.7749
 7005TIP3    H242507   3.932   3.819   4.159  0.9903 -2.0005 -0.7603
 7006TIP3   OH242508   5.943   2.571   0.232 -0.4733 -0.4149  0.5371
 7006TIP3    H142509   5.953   2.481   0.263 -1.9349 -0.5639  0.6905
 7006TIP3    H242510   5.960   2.567   0.138 -3.2607 -1.4672 -0.0264
 7007TIP3   OH242511   5.643   3.694   4.730 -0.0985 -0.5228 -0.5133
 7007TIP3    H142512   5.635   3.760   4.661  0.3759 -1.2380 -1.2744
 7007TIP3    H242513   5.574   3.716   4.792  1.1045  1.7266  0.1494
 7008TIP3   OH242514   5.760   1.848   4.668  0.7147  0.0657  0.5055
 7008TIP3    H142515   5.849   1.877   4.688 -0.3415  2.3572  2.3265
 7008TIP3    H242516   5.741   1.780   4.733  1.5855 -1.5970 -0.8744
 7009TIP3   OH242517   5.292   0.092   5.698  0.3507 -0.4659 -0.0518
 7009TIP3    H142518   5.345   0.052   5.629  0.4009 -2.5758  1.1502
 7009TIP3    H242519   5.346   0.165   5.730  2.0709 -1.8590  0.3710
 7010TIP3   OH242520   0.202   6.152   1.522 -0.8290  0.4121  0.3387
 7010TIP3    H142521   0.171   6.062   1.508  0.8444 -0.2554  0.5954
 7010TIP3    H242522   0.190   6.195   1.437 -0.3120 -0.5078 -0.2233
 7011TIP3   OH242523   6.828   5.566   6.383 -0.5813  0.2720  0.2863
 7011TIP3    H142524   6.739   5.583   6.354 -0.2788 -0.0081 -0.8425
 7011TIP3    H242525   6.825   5.479   6.421 -0.8336  0.3605  0.4708
 7012TIP3   OH242526   5.478   1.087  15.531 -0.1646 -0.0315  0.3721
 7012TIP3    H142527   5.461   1.160  15.590 -0.6327 -0.5014  0.8303
 7012TIP3    H242528   5.454   1.121  15.444  0.5790  0.6782  0.4310
 7013TIP3   OH242529   3.173   2.646  12.189 -0.1514 -0.2454 -0.1015
 7013TIP3    H142530   3.258   2.605  12.208  0.1782 -0.7354 -2.3724
 7013TIP3    H242531   3.129   2.585  12.131 -1.2499  0.8987 -0.5124
 7014TIP3   OH242532   6.679   1.060  11.309  0.2631  0.2484 -0.2624
 7014TIP3    H142533   6.714   1.004  11.240  0.4523 -1.6968  1.3415
 7014TIP3    H242534   6.678   1.005  11.387  0.6661  2.5368  1.4768
 7015TIP3   OH242535   3.928   0.437  14.218 -0.4883 -0.2023  0.3893
 7015TIP3    H142536   3.948   0.345  14.232  1.1116  0.0585  0.0037
 7015TIP3    H242537   3.864   0.459  14.287 -1.1138 -1.6459  0.2995
 7016TIP3   OH242538   2.049   1.148   0.467 -0.6088  0.3843  0.4193
 7016TIP3    H142539   2.134   1.122   0.501 -0.4864  0.4684  0.1766
 7016TIP3    H242540   2.019   1.073   0.415 -1.0337  0.0428  1.1356
 7017TIP3   OH242541   5.793   3.757   2.871  0.3509  0.2059  0.3964
 7017TIP3    H142542   5.706   3.751   2.831 -0.2177 -0.4778  1.6884
 7017TIP3    H242543   5.797   3.846   2.907  1.6001  1.5388 -2.6908
 7018TIP3   OH242544   4.469   5.353   3.336  0.3256 -0.2370  0.4793
 7018TIP3    H142545   4.413   5.431   3.345  0.7973  0.6232 -2.8056
 7018TIP3    H242546   4.555   5.383   3.364  0.6247  0.6869 -1.2789
 7019TIP3   OH242547   0.300   6.756   6.248 -0.4885  0.4373 -0.5705
 7019TIP3    H142548   0.237   6.825   6.266 -1.4048 -0.0320 -1.8806
 7019TIP3    H242549   0.304   6.706   6.329 -1.0752  1.0360 -0.1627
 7020TIP3   OH242550   3.083   6.605  10.832 -0.1374 -0.6372  0.5371
 7020TIP3    H142551   3.098   6.520  10.789 -0.4664 -0.1921 -0.4819
 7020TIP3    H242552   3.017   6.648  10.777 -2.1462 -0.8795  2.6379
 7021TIP3   OH242553   3.485   1.165  10.965  0.0051 -0.0706  0.5050
 7021TIP3    H142554   3.485   1.252  10.925  0.2556  0.3661  1.4217
 7021TIP3    H242555   3.415   1.118  10.920  0.5132  0.2769 -0.6847
 7022TIP3   OH242556   0.425   1.838  14.284 -0.1996  0.2720 -0.0963
 7022TIP3    H142557   0.483   1.862  14.356  0.4522  0.3614 -0.6483
 7022TIP3    H242558   0.443   1.902  14.215 -0.2574 -0.2839 -0.6390
 7023TIP3   OH242559   2.866   6.146   6.423  0.2772 -0.1708  0.0327
 7023TIP3    H142560   2.842   6.191   6.342  0.5433 -0.7933 -0.4039
 7023TIP3    H242561   2.825   6.060   6.416  2.1445 -1.0866 -0.5208
 7024TIP3   OH242562   4.110   6.647   5.585 -0.0461 -0.3870  0.0348
 7024TIP3    H142563   4.105   6.576   5.649 -1.9993 -0.5037 -0.1603
 7024TIP3    H242564   4.125   6.603   5.501 -0.9231 -0.5621 -0.0395
 7025TIP3   OH242565   3.323   3.018  13.176 -0.1531 -0.5814  0.2059
 7025TIP3    H142566   3.274   2.941  13.204  0.5969 -1.4639 -0.8474
 7025TIP3    H242567   3.381   2.986  13.107 -0.5587  1.1073 -0.9993
 7026TIP3   OH242568   0.603   5.723   5.177  0.0459 -0.0412 -0.0506
 7026TIP3    H142569   0.553   5.671   5.240  0.8038  1.9747  2.3761
 7026TIP3    H242570   0.676   5.665   5.152 -0.7070 -1.1802  0.2977
 7027TIP3   OH242571   3.668   6.757   4.585 -0.5594 -0.1127 -0.2738
 7027TIP3    H142572   3.618   6.836   4.563  0.8635  1.2337  1.1360
 7027TIP3    H242573   3.739   6.788   4.640  1.2781 -2.1001 -1.3754
 7028TIP3   OH242574   6.635   5.721  11.746  0.3813 -0.7104 -0.0201
 7028TIP3    H142575   6.670   5.646  11.792 -0.1223 -0.7865  0.2499
 7028TIP3    H242576   6.622   5.787  11.814  2.3003  0.2017 -0.4811
 7029TIP3   OH242577   6.500   4.511   6.011 -0.2153  0.0404  0.5576
 7029TIP3    H142578   6.492   4.607   6.015 -1.7132 -0.0362  0.2534
 7029TIP3    H242579   6.459   4.480   6.091 -1.5124 -0.3832 -0.2286
 7030TIP3   OH242580   3.470   6.288   1.955  0.1676  0.2422  0.4944
 7030TIP3    H142581   3.427   6.232   2.020  1.6450 -1.7211 -0.1037
 7030TIP3    H242582   3.402   6.310   1.892 -0.5288 -0.6001  0.9399
 7031TIP3   OH242583   6.736   6.870  12.657  0.2191 -0.2105  0.3352
 7031TIP3    H142584   6.712   6.960  12.633 -0.5334 -0.0370  1.6171
 7031TIP3    H242585   6.711   6.818  12.581 -0.3898  0.5317  0.0069
 7032TIP3   OH242586   2.713   5.085   0.647  0.2780  0.4654 -0.0007
 7032TIP3    H142587   2.763   5.099   0.567  3.2491  0.9008  1.7774
 7032TIP3    H242588   2.771   5.032   0.702  0.4855  3.9892  3.6295
 7033TIP3   OH242589   0.158   1.169   2.026 -0.0668  0.4124  0.0846
 7033TIP3    H142590   0.082   1.143   1.974 -0.6950 -0.3221  1.3209
 7033TIP3    H242591   0.228   1.112   1.997 -0.8661 -1.2147  1.2241
 7034TIP3   OH242592   3.774   2.682  14.368 -0.6307 -0.2089  0.0976
 7034TIP3    H142593   3.860   2.706  14.403  0.2923 -1.9160 -0.8745
 7034TIP3    H242594   3.794   2.624  14.294 -2.5719  1.0192 -1.4886
 7035TIP3   OH242595   2.147   4.510  11.172 -0.3637 -0.0182 -0.4994
 7035TIP3    H142596   2.216   4.557  11.218  0.2825  0.2568 -1.7295
 7035TIP3    H242597   2.079   4.497  11.238  0.6826  0.0680  0.6167
 7036TIP3   OH242598   6.770   0.307   4.788 -0.6710  0.4362 -0.4001
 7036TIP3    H142599   6.708   0.381   4.794  0.1085  0.9853  1.8340
 7036TIP3    H242600   6.834   0.335   4.723  0.3247  2.3939  1.2813
 7037TIP3   OH242601   4.645   2.728  12.736  0.3287 -0.0786 -0.4350
 7037TIP3    H142602   4.710   2.798  12.744  0.4865 -0.2238 -0.4433
 7037TIP3    H242603   4.678   2.672  12.666  1.7688 -1.8327  1.5128
 7038TIP3   OH242604   3.135   4.849  12.182 -0.1363 -0.1877 -0.2037
 7038TIP3    H142605   3.172   4.773  12.138 -0.8378 -0.4645 -0.3223
 7038TIP3    H242606   3.084   4.813  12.254  2.1959  0.3050  1.8303
 7039TIP3   OH242607   1.657   6.057  16.595  0.2402  0.1185  0.2054
 7039TIP3    H142608   1.693   6.125  16.651  1.3119  0.2455 -0.6203
 7039TIP3    H242609   1.718   5.984  16.604  0.1032 -0.0640 -0.3610
 7040TIP3   OH242610   2.386   3.862   2.061 -0.6471 -0.2193  0.1569
 7040TIP3    H142611   2.433   3.798   2.007 -1.9564 -1.0351 -0.0506
 7040TIP3    H242612   2.419   3.947   2.031 -1.1663 -0.6566 -1.7682
 7041TIP3   OH242613   0.468   3.534   3.267  0.2200 -0.0269  0.1330
 7041TIP3    H142614   0.480   3.626   3.242  0.1669 -0.4643 -1.5957
 7041TIP3    H242615   0.499   3.484   3.192 -1.2683 -1.4050  0.3830
 7042TIP3   OH242616   5.425   6.658  16.838 -0.4302 -0.2358  0.4483
 7042TIP3    H142617   5.440   6.751  16.818 -0.0402 -0.0765  1.4268
 7042TIP3    H242618   5.441   6.651  16.932 -0.8778 -1.2192  0.4629
 7043TIP3   OH242619   5.664   2.936  14.602 -0.6570  0.4978 -0.6720
 7043TIP3    H142620   5.670   2.990  14.523  0.9589 -0.2355 -1.0885
 7043TIP3    H242621   5.695   2.994  14.672 -0.0764  0.5006 -0.9243
 7044TIP3   OH242622   3.686   6.305   1.518 -0.0755  0.1018 -0.1619
 7044TIP3    H142623   3.766   6.309   1.570  0.5197  0.6622 -1.0936
 7044TIP3    H242624   3.689   6.383   1.463 -0.1784 -0.9513 -1.7333
 7045TIP3   OH242625   5.290   5.360  14.764  0.0790  0.0732 -0.6749
 7045TIP3    H142626   5.235   5.438  14.759 -0.1928 -0.1770 -1.9009
 7045TIP3    H242627   5.366   5.387  14.814 -1.2277  0.3751  1.2697
 7046TIP3   OH242628   2.377   4.733   6.052 -0.1514  0.6359  0.3169
 7046TIP3    H142629   2.318   4.785   6.107  0.5567  1.8336 -0.0347
 7046TIP3    H242630   2.451   4.712   6.110 -0.0203  0.7761  0.1994
 7047TIP3   OH242631   3.796   0.128  16.420 -0.1531  0.2153  0.7447
 7047TIP3    H142632   3.854   0.132  16.344 -2.2145 -0.5515 -0.9825
 7047TIP3    H242633   3.824   0.201  16.475  2.6677 -0.3762  0.2283
 7048TIP3   OH242634   6.735   3.777   5.503 -0.2585 -0.0397 -0.2372
 7048TIP3    H142635   6.699   3.740   5.584  1.8553  2.1342  1.8582
 7048TIP3    H242636   6.752   3.869   5.523  0.0980  0.6839 -3.2888
 7049TIP3   OH242637   3.406   5.032  12.537 -0.4496 -0.1491  0.2872
 7049TIP3    H142638   3.346   4.959  12.520  0.9050 -1.2805  0.2095
 7049TIP3    H242639   3.376   5.068  12.620  0.3489 -2.4194  1.6422
 7050TIP3   OH242640   5.712   0.624  10.685  0.4412  1.0531 -0.3588
 7050TIP3    H142641   5.690   0.713  10.716 -1.1681  0.4915  0.2190
 7050TIP3    H242642   5.629   0.578  10.686  1.2249 -0.4110 -0.8963
 7051TIP3   OH242643   3.133   3.373  14.667 -0.1079  0.0468 -0.7922
 7051TIP3    H142644   3.135   3.278  14.662  2.0910 -0.0136  0.0544
 7051TIP3    H242645   3.102   3.392  14.755  1.3780  0.0242 -0.2363
 7052TIP3   OH242646   4.874   1.157   1.118  1.0492  0.2231  0.1700
 7052TIP3    H142647   4.783   1.185   1.101  1.4656 -0.1136 -3.6531
 7052TIP3    H242648   4.911   1.228   1.170 -0.6610  1.8907 -0.7101
 7053TIP3   OH242649   1.801   1.711   0.729 -0.8333 -0.2055 -0.0568
 7053TIP3    H142650   1.727   1.733   0.673 -1.1290  0.5641  0.6221
 7053TIP3    H242651   1.877   1.744   0.681 -1.0673  0.2913 -0.0934
 7054TIP3   OH242652   4.819   4.548  16.380  0.2166 -0.3086 -0.0388
 7054TIP3    H142653   4.764   4.588  16.446 -0.7231 -1.0280 -0.3736
 7054TIP3    H242654   4.900   4.525  16.427 -0.4801 -0.9206  0.8771
 7055TIP3   OH242655   4.351   3.164   1.345 -0.1535  0.2510 -0.4332
 7055TIP3    H142656   4.362   3.074   1.317  1.0561  0.0266  0.6946
 7055TIP3    H242657   4.431   3.209   1.317 -0.5332  0.8646 -0.5634
 7056TIP3   OH242658   1.524   1.226  14.136 -0.0217  0.1179  0.4455
 7056TIP3    H142659   1.473   1.219  14.055  0.6667 -0.7321  0.0685
 7056TIP3    H242660   1.505   1.314  14.170  0.0514  0.6644 -0.8871
 7057TIP3   OH242661   4.614   1.509   0.049 -0.5529 -0.5426 -0.1064
 7057TIP3    H142662   4.693   1.547   0.089 -1.8243  2.6211 -0.2509
 7057TIP3    H242663   4.611   1.548  -0.038 -2.6556  0.1001  0.1981
 7058TIP3   OH242664   1.219   6.522   3.127  0.1598  0.2581  0.6906
 7058TIP3    H142665   1.246   6.480   3.209 -1.4522 -0.5845  0.8305
 7058TIP3    H242666   1.126   6.541   3.140  0.4741  2.4728  0.0004
 7059TIP3   OH242667   1.946   4.973   2.231  0.5457 -0.0750  0.1611
 7059TIP3    H142668   1.903   5.058   2.222  0.2958 -0.1029  1.0338
 7059TIP3    H242669   1.911   4.921   2.158  0.7587  0.5860 -0.4198
 7060TIP3   OH242670   5.887   4.911  16.879  0.2086  0.3500 -0.5145
 7060TIP3    H142671   5.977   4.939  16.860  0.5331 -0.1345  0.2676
 7060TIP3    H242672   5.833   4.965  16.822  0.9977  0.6290 -1.0223
 7061TIP3   OH242673   6.548   5.340  15.131  0.2311  0.5517 -0.1085
 7061TIP3    H142674   6.482   5.276  15.159 -1.7056  2.4862 -0.0085
 7061TIP3    H242675   6.629   5.311  15.173 -1.2561 -0.0230  2.5861
 7062TIP3   OH242676   2.851   4.524  15.581  0.3786  0.0966 -0.4395
 7062TIP3    H142677   2.804   4.522  15.665 -0.0819 -1.2844 -0.7117
 7062TIP3    H242678   2.783   4.545  15.517  0.2879 -1.0205 -0.7238
 7063TIP3   OH242679   2.020   3.265  14.426 -0.7001  0.2598  0.5928
 7063TIP3    H142680   2.098   3.279  14.481 -0.1305 -0.5592  0.0248
 7063TIP3    H242681   1.992   3.353  14.401  0.2368  0.5665  0.5626
 7064TIP3   OH242682   3.940   2.822   3.450  0.6079  0.2011 -0.2299
 7064TIP3    H142683   3.935   2.729   3.428  1.8447  0.1441 -0.3019
 7064TIP3    H242684   3.874   2.863   3.393 -2.6099 -1.0099  2.3019
 7065TIP3   OH242685   3.898   3.919  10.537  0.1676 -0.2977  0.2345
 7065TIP3    H142686   3.963   3.849  10.529  0.5312  0.0573  0.0516
 7065TIP3    H242687   3.941   3.985  10.591 -0.1373 -0.1699  0.3214
 7066TIP3   OH242688   3.067   5.475   4.717  0.1203  0.4009 -0.3020
 7066TIP3    H142689   3.030   5.557   4.683 -0.3678  0.6686  0.8260
 7066TIP3    H242690   3.007   5.449   4.788  2.1614  0.9749  1.7555
 7067TIP3   OH242691   1.986   3.583  12.907 -0.6241 -0.0935 -0.3079
 7067TIP3    H142692   2.039   3.503  12.902 -1.5420 -0.6599 -1.7453
 7067TIP3    H242693   1.989   3.609  12.999  0.5953 -1.1621 -0.0249
 7068TIP3   OH242694   1.201   1.165  10.478  0.1384 -0.4457  0.1487
 7068TIP3    H142695   1.233   1.122  10.399 -1.5550 -2.0381  0.2693
 7068TIP3    H242696   1.277   1.213  10.511  0.9380  0.1190 -2.3128
 7069TIP3   OH242697   2.303   4.905  11.739  0.2726  0.4336 -0.0983
 7069TIP3    H142698   2.296   4.928  11.832  1.0023  0.8979 -0.1486
 7069TIP3    H242699   2.380   4.847  11.734  0.9416  1.3379 -0.5651
 7070TIP3   OH242700   6.837   1.608  14.293 -0.2220  0.0017 -0.8772
 7070TIP3    H142701   6.926   1.610  14.327 -0.7778 -0.8474  0.7751
 7070TIP3    H242702   6.832   1.527  14.242 -0.4698 -0.8235  0.4067
 7071TIP3   OH242703   2.780   6.590  11.689  0.1935 -0.7578 -0.1645
 7071TIP3    H142704   2.828   6.545  11.758  0.2909  2.3499  1.9693
 7071TIP3    H242705   2.819   6.677  11.685 -2.3062  0.4031 -1.5132
 7072TIP3   OH242706   1.502   3.792  15.134  0.1934  0.3937 -0.0945
 7072TIP3    H142707   1.523   3.886  15.134  0.1114  0.4737  2.2078
 7072TIP3    H242708   1.450   3.779  15.055  1.6049  1.9375 -1.3498
 7073TIP3   OH242709   5.600   3.399   6.333 -0.2617 -0.5162 -1.0645
 7073TIP3    H142710   5.526   3.388   6.392 -2.6890  2.1792 -3.3328
 7073TIP3    H242711   5.612   3.313   6.293 -1.6784 -1.1811 -0.1379
 7074TIP3   OH242712   0.875   1.839   0.265  0.2650  0.5834  0.0495
 7074TIP3    H142713   0.860   1.924   0.224 -1.5707  0.6497  0.7731
 7074TIP3    H242714   0.872   1.776   0.193  0.4350  1.0107 -0.3312
 7075TIP3   OH242715   4.467   5.940   6.093 -0.9736  0.3269  0.0011
 7075TIP3    H142716   4.417   5.867   6.128  2.2352 -2.2374 -0.3270
 7075TIP3    H242717   4.533   5.959   6.159  0.9420 -0.0451 -1.7185
 7076TIP3   OH242718   6.845   3.854   1.126  0.0289 -0.1840 -0.1271
 7076TIP3    H142719   6.841   3.915   1.199  0.9191 -0.4162  0.1363
 7076TIP3    H242720   6.853   3.768   1.168  1.7983 -0.2232 -0.4608
 7077TIP3   OH242721   3.539   4.073   0.098 -0.6738  0.2930 -0.1555
 7077TIP3    H142722   3.476   4.001   0.093 -0.2929 -0.0186 -0.5850
 7077TIP3    H242723   3.622   4.031   0.121 -1.0869  0.9765  2.9803
 7078TIP3   OH242724   4.957   6.286  10.701 -0.0878 -0.4305  0.0980
 7078TIP3    H142725   4.919   6.281  10.613 -0.0480 -2.9901  0.1453
 7078TIP3    H242726   5.050   6.299  10.686  0.0109 -1.4896 -0.2889
 7079TIP3   OH242727   6.021   6.247  15.328  0.6333  0.3264 -0.3093
 7079TIP3    H142728   6.074   6.317  15.291  1.5956 -0.3101 -0.1777
 7079TIP3    H242729   6.048   6.169  15.280 -0.5750  0.0677 -0.6022
 7080TIP3   OH242730   5.561   4.523  13.955 -0.2356  0.6019 -0.1578
 7080TIP3    H142731   5.538   4.454  14.017  0.3304 -0.5555 -1.2003
 7080TIP3    H242732   5.520   4.496  13.873  3.3068 -0.7117 -1.6751
 7081TIP3   OH242733   6.449   3.699   0.584 -1.0219  0.2033 -0.0660
 7081TIP3    H142734   6.475   3.633   0.520  1.3913 -0.4159  1.4335
 7081TIP3    H242735   6.404   3.651   0.652 -0.7322  0.3553  0.2363
 7082TIP3   OH242736   1.257   3.925  16.425 -0.7196  0.1870 -0.1713
 7082TIP3    H142737   1.341   3.972  16.427 -1.0353  0.7580  0.0744
 7082TIP3    H242738   1.203   3.975  16.364 -0.8541 -0.2279 -0.3948
 7083TIP3   OH242739   5.649   3.378  11.311  0.4141  0.0526  0.0542
 7083TIP3    H142740   5.669   3.327  11.232  0.6555  0.0854  0.0929
 7083TIP3    H242741   5.560   3.351  11.335  0.6446 -0.5809  0.2445
 7084TIP3   OH242742   5.886   1.140   0.457  0.5745 -0.1292  0.0943
 7084TIP3    H142743   5.833   1.118   0.534 -0.0192  2.1913  0.4242
 7084TIP3    H242744   5.883   1.061   0.403 -0.8148 -1.0691  1.4475
 7085TIP3   OH242745   6.182   1.045  13.996  0.0769 -0.6022 -0.0132
 7085TIP3    H142746   6.160   1.138  14.006 -0.3575 -0.6449 -0.5549
 7085TIP3    H242747   6.177   1.029  13.902 -0.3133 -1.2933  0.1232
 7086TIP3   OH242748   2.047   5.920   2.896  0.4359 -0.5009 -0.0882
 7086TIP3    H142749   1.982   5.855   2.869  0.6734 -0.9480  0.3822
 7086TIP3    H242750   2.129   5.889   2.857  1.0314 -1.8197  2.0197
 7087TIP3   OH242751   6.313   4.620   6.330 -0.1537  0.7516  0.3418
 7087TIP3    H142752   6.361   4.546   6.293 -0.5987 -0.3098  1.7981
 7087TIP3    H242753   6.260   4.581   6.401 -1.0721  2.3194  0.5580
 7088TIP3   OH242754   3.718   2.839   1.706  0.1227  0.0227  0.0490
 7088TIP3    H142755   3.733   2.858   1.799 -2.7047 -0.5720  0.7358
 7088TIP3    H242756   3.640   2.891   1.684  0.5533 -0.1035 -1.9095
 7089TIP3   OH242757   0.354   6.647   0.884  0.9682 -0.1508  0.2493
 7089TIP3    H142758   0.330   6.739   0.873  0.9736 -0.2330 -0.5265
 7089TIP3    H242759   0.442   6.640   0.846  1.2991 -0.3155  1.0251
 7090TIP3   OH242760   0.722   6.712   2.714  0.2510 -0.2797  0.3363
 7090TIP3    H142761   0.802   6.664   2.736  1.5794  0.6699 -2.0408
 7090TIP3    H242762   0.673   6.653   2.657 -0.9654 -0.9627  1.9923
 7091TIP3   OH242763   6.056   4.026   6.231  0.0707  0.7898 -0.7983
 7091TIP3    H142764   6.065   3.942   6.275  1.4089  0.6189 -1.3649
 7091TIP3    H242765   6.128   4.080   6.263 -0.5295  1.5987 -0.7484
 7092TIP3   OH242766   0.768   3.567   6.336  0.0953  0.2071 -0.1847
 7092TIP3    H142767   0.694   3.594   6.390  0.7056  1.0682  0.2577
 7092TIP3    H242768   0.841   3.558   6.397  0.4970 -0.0615 -0.6903
 7093TIP3   OH242769   1.687   4.527   0.753 -0.8499  0.2970 -0.2306
 7093TIP3    H142770   1.727   4.614   0.744  0.0295 -0.0646  0.1061
 7093TIP3    H242771   1.720   4.494   0.836 -0.3685 -0.7788 -0.8323
 7094TIP3   OH242772   3.766   5.759   0.837 -0.0095 -0.3445  0.2568
 7094TIP3    H142773   3.703   5.708   0.887  0.9935  0.0675  2.0287
 7094TIP3    H242774   3.756   5.729   0.747 -3.1512  0.1457  0.3312
 7095TIP3   OH242775   2.676   4.343   3.267 -0.2612  0.3770 -0.5907
 7095TIP3    H142776   2.678   4.260   3.315 -1.3552 -0.7413 -2.3722
 7095TIP3    H242777   2.604   4.392   3.305  1.2634  1.1963  1.4318
 7096TIP3   OH242778   0.400   4.175  14.487  0.1051 -0.5159  0.4544
 7096TIP3    H142779   0.462   4.157  14.417 -0.0097  1.1236 -0.1262
 7096TIP3    H242780   0.389   4.270  14.485 -0.8019 -0.5555  1.9380
 7097TIP3   OH242781   2.376   3.899   3.404 -0.0544  0.5003  0.0458
 7097TIP3    H142782   2.396   3.896   3.310 -0.4748 -2.2372 -0.0586
 7097TIP3    H242783   2.443   3.843   3.444 -1.3198 -0.3658  1.0170
 7098TIP3   OH242784   3.159   0.939  15.753 -0.1151  0.4587  0.0479
 7098TIP3    H142785   3.146   0.869  15.816  2.4011  1.4079  1.7750
 7098TIP3    H242786   3.171   0.895  15.669  1.8231 -1.2640  1.1576
 7099TIP3   OH242787   2.502   5.285   3.106  0.0449 -0.2368 -0.2741
 7099TIP3    H142788   2.470   5.304   3.195  1.1942 -0.4252  0.1987
 7099TIP3    H242789   2.444   5.334   3.049 -0.4640  0.2238  0.6123
 7100TIP3   OH242790   4.747   2.869  14.855  0.5555  0.1866  0.1087
 7100TIP3    H142791   4.711   2.930  14.920  1.1920  1.1179 -0.3944
 7100TIP3    H242792   4.715   2.783  14.883  2.7200  0.1828  3.0636
 7101TIP3   OH242793   4.920   5.031   0.052  0.2616 -0.1531  0.1333
 7101TIP3    H142794   4.956   5.101   0.106  3.3601 -1.6991  0.3040
 7101TIP3    H242795   4.894   5.075  -0.029 -0.9290  1.6306  1.4189
 7102TIP3   OH242796   1.765   0.898  14.902 -0.1279  0.5244 -0.2464
 7102TIP3    H142797   1.689   0.870  14.952  0.1841  0.1268  0.0114
 7102TIP3    H242798   1.754   0.992  14.891 -0.6587  0.4655 -0.2154
 7103TIP3   OH242799   1.791   1.334  16.005 -0.9826 -0.2258 -0.4629
 7103TIP3    H142800   1.744   1.416  16.022 -2.0653 -0.6122 -1.4570
 7103TIP3    H242801   1.795   1.291  16.090 -0.9620  0.5680 -0.0481
 7104TIP3   OH242802   3.458   4.191   4.279  0.0714  0.1888 -0.4493
 7104TIP3    H142803   3.454   4.164   4.187  0.0917 -0.9402 -0.1353
 7104TIP3    H242804   3.369   4.178   4.311 -0.5579  2.8605 -0.8843
 7105TIP3   OH242805   1.956   1.801   4.766  0.1774  0.2498  0.5053
 7105TIP3    H142806   2.044   1.769   4.746  0.5332 -0.1586  2.5221
 7105TIP3    H242807   1.904   1.780   4.688  1.8081  0.3322 -0.6375
 7106TIP3   OH242808   2.774   4.830  14.148  0.1515  0.5455 -0.1741
 7106TIP3    H142809   2.735   4.863  14.229 -1.6233  0.3947 -0.9130
 7106TIP3    H242810   2.732   4.881  14.078 -1.0907 -1.7368 -1.2159
 7107TIP3   OH242811   1.917   5.927  16.641  0.1231  0.3521 -0.5431
 7107TIP3    H142812   1.911   5.832  16.643 -0.0667  0.3828  0.4031
 7107TIP3    H242813   1.940   5.947  16.550  0.5405 -0.6146 -0.6636
 7108TIP3   OH242814   3.989   5.144  16.639 -0.1402 -0.1491  0.0489
 7108TIP3    H142815   3.908   5.107  16.603  1.2517 -1.0197 -2.3933
 7108TIP3    H242816   3.981   5.238  16.625 -1.0480 -0.1290  0.5965
 7109TIP3   OH242817   6.344   5.070  16.900  0.1265 -0.0399  0.0298
 7109TIP3    H142818   6.249   5.071  16.906 -0.2455 -0.5892 -3.5436
 7109TIP3    H242819   6.370   4.989  16.943 -1.0984 -0.3290  0.2646
 7110TIP3   OH242820   5.746   3.984   5.892 -0.5005 -0.0252  0.3641
 7110TIP3    H142821   5.731   3.915   5.828 -0.0580  0.7886 -0.6370
 7110TIP3    H242822   5.717   3.946   5.975 -0.6362 -1.2647 -0.2279
 7111TIP3   OH242823   0.148   6.835  16.907 -0.0813 -0.3797  0.1708
 7111TIP3    H142824   0.121   6.907  16.964 -0.4216 -1.4995  1.5034
 7111TIP3    H242825   0.170   6.764  16.968  2.4734 -0.6850 -0.9760
 7112TIP3   OH242826   0.292   5.876  11.750  0.1153  0.2603 -0.8218
 7112TIP3    H142827   0.359   5.888  11.817 -0.1082  0.9732 -0.7173
 7112TIP3    H242828   0.338   5.831  11.679  0.4668 -0.0960 -0.3753
 7113TIP3   OH242829   3.849   3.807  12.080 -0.4514 -0.3051 -0.0231
 7113TIP3    H142830   3.769   3.780  12.126  0.4987 -0.2601  1.7411
 7113TIP3    H242831   3.857   3.745  12.008 -1.8522 -0.5587 -0.0021
 7114TIP3   OH242832   1.343   1.907   1.438 -0.0282 -0.3686 -0.0854
 7114TIP3    H142833   1.376   1.925   1.349  0.8414 -0.9963  0.1008
 7114TIP3    H242834   1.421   1.903   1.492 -0.6329  1.7044  1.0544
 7115TIP3   OH242835   1.468   3.648  16.305  0.0313 -0.5687  0.4033
 7115TIP3    H142836   1.445   3.735  16.274 -0.7234 -0.9500 -0.1438
 7115TIP3    H242837   1.564   3.646  16.302  0.0835  0.4919  1.1530
 7116TIP3   OH242838   3.667   5.760   4.122 -0.2898 -0.0644  0.3349
 7116TIP3    H142839   3.622   5.839   4.093  1.1609  0.7633  0.2505
 7116TIP3    H242840   3.701   5.721   4.041 -0.0935 -0.2007  0.4832
 7117TIP3   OH242841   1.812   6.338  13.685  0.4756  0.4731 -0.4983
 7117TIP3    H142842   1.787   6.276  13.754  1.0895  0.8431  0.0693
 7117TIP3    H242843   1.905   6.353  13.698  0.3943  1.3110 -0.7848
 7118TIP3   OH242844   1.886   3.436   5.886  0.0312 -0.0135 -0.0274
 7118TIP3    H142845   1.967   3.479   5.860  0.5217  0.5308  2.2246
 7118TIP3    H242846   1.836   3.504   5.931 -0.9118 -0.8066  0.1548
 7119TIP3   OH242847   3.240   0.409   3.581  0.0980 -0.0971  0.3536
 7119TIP3    H142848   3.281   0.464   3.513  0.9550  0.1874  1.0830
 7119TIP3    H242849   3.229   0.323   3.539 -1.4276  0.6449 -0.8591
 7120TIP3   OH242850   1.169   0.000  11.599  0.1484 -0.1027  0.4034
 7120TIP3    H142851   1.215  -0.079  11.626 -0.4023  0.3168  2.7852
 7120TIP3    H242852   1.199   0.068  11.660 -2.2861  0.5715  0.9650
 7121TIP3   OH242853   0.875   0.608  13.365 -1.2468 -0.1070  0.5492
 7121TIP3    H142854   0.796   0.613  13.311  0.5717 -0.3182 -2.3668
 7121TIP3    H242855   0.885   0.697  13.400 -1.5038  0.6032 -1.0666
 7122TIP3   OH242856   2.451   2.364  12.363  0.3206 -0.4805  0.0877
 7122TIP3    H142857   2.364   2.402  12.349  0.8692  1.3741  1.3606
 7122TIP3    H242858   2.444   2.318  12.446  0.6920  0.1601  0.4797
 7123TIP3   OH242859   5.561   3.260   0.261  0.0802 -0.3694  0.2590
 7123TIP3    H142860   5.628   3.300   0.205  1.3200 -0.0216  1.9088
 7123TIP3    H242861   5.546   3.324   0.331 -1.2388 -0.8860  0.4936
 7124TIP3   OH242862   0.762   0.243   4.182  0.7377  0.1675  0.3923
 7124TIP3    H142863   0.750   0.167   4.125 -0.3381  0.2031  0.5557
 7124TIP3    H242864   0.748   0.209   4.271 -2.0347  0.9406  0.3457
 7125TIP3   OH242865   0.797   6.479   5.233 -0.1633 -0.2018 -0.2632
 7125TIP3    H142866   0.737   6.490   5.307 -1.1080  1.1618 -1.1877
 7125TIP3    H242867   0.749   6.512   5.157  1.0105 -0.9943 -1.3964
 7126TIP3   OH242868   3.312   5.084  14.898 -0.3354  0.5522  0.3258
 7126TIP3    H142869   3.363   5.165  14.896  0.4220  0.0858 -1.4837
 7126TIP3    H242870   3.354   5.032  14.967  1.1417  0.5131 -0.5642
 7127TIP3   OH242871   1.482   6.785   1.704  0.6601  0.3374  0.1854
 7127TIP3    H142872   1.539   6.709   1.716 -0.0658 -0.0266  1.6855
 7127TIP3    H242873   1.497   6.813   1.614 -1.3311 -3.4706 -1.5461
 7128TIP3   OH242874   2.235   1.933  13.012  0.0115 -0.3396 -0.4808
 7128TIP3    H142875   2.307   1.871  13.019 -1.2958 -1.8017  0.7432
 7128TIP3    H242876   2.258   2.003  13.073  0.8465 -0.2973 -0.8321
 7129TIP3   OH242877   4.572   1.270  16.535  0.2072 -0.5464 -0.6129
 7129TIP3    H142878   4.547   1.257  16.627  0.7536  2.4551  0.0523
 7129TIP3    H242879   4.496   1.311  16.494 -0.0225 -1.8378 -1.5644
 7130TIP3   OH242880   0.438   4.135  12.219  0.5450 -0.4714 -0.4260
 7130TIP3    H142881   0.486   4.172  12.293 -0.5462  2.3516 -0.9933
 7130TIP3    H242882   0.348   4.126  12.251  0.4413 -1.0432 -0.8554
 7131TIP3   OH242883   1.517   1.395   5.278 -1.0725  0.0330  0.0257
 7131TIP3    H142884   1.477   1.379   5.192  0.8237 -0.7574 -0.7662
 7131TIP3    H242885   1.576   1.468   5.264 -0.5333 -0.2855  0.5798
 7132TIP3   OH242886   4.244   6.501  14.865  0.2167  0.1178 -0.1039
 7132TIP3    H142887   4.193   6.581  14.876  1.1570  0.9292 -1.3865
 7132TIP3    H242888   4.306   6.502  14.938 -0.8620 -0.3274  0.8431
 7133TIP3   OH242889   5.051   3.712   4.318 -0.2089 -0.5894 -0.4021
 7133TIP3    H142890   5.068   3.648   4.387 -0.8695  0.2027  0.5335
 7133TIP3    H242891   5.058   3.663   4.236 -0.5286 -1.8085  0.2864
 7134TIP3   OH242892   1.733   3.523   0.288 -0.1368 -0.1001 -0.3322
 7134TIP3    H142893   1.824   3.547   0.269 -0.3469  1.0640  0.0570
 7134TIP3    H242894   1.740   3.439   0.332  0.5517 -1.4811 -2.8447
 7135TIP3   OH242895   6.292   5.905  15.484 -0.0236 -0.2700  0.2258
 7135TIP3    H142896   6.319   5.890  15.575  0.0174  0.0245  0.2639
 7135TIP3    H242897   6.370   5.888  15.432 -0.0994 -0.6317  0.2283
 7136TIP3   OH242898   0.362   1.102  10.936 -0.0764 -0.0731 -0.0552
 7136TIP3    H142899   0.410   1.149  10.868 -0.6197 -0.9178 -1.0644
 7136TIP3    H242900   0.420   1.031  10.962  0.6687  1.0058  1.3352
 7137TIP3   OH242901   0.131   4.989   3.250 -0.1978 -0.1675 -0.7224
 7137TIP3    H142902   0.065   4.948   3.307 -2.1635  0.8953 -2.0987
 7137TIP3    H242903   0.174   4.915   3.207 -2.1977 -0.9087 -1.5669
 7138TIP3   OH242904   1.799   3.089  11.218 -0.2735 -0.2142 -0.4975
 7138TIP3    H142905   1.865   3.020  11.219 -1.0874 -1.1376 -2.8364
 7138TIP3    H242906   1.718   3.044  11.194 -1.7584  0.9432  1.9127
 7139TIP3   OH242907   3.318   5.632  12.478 -0.2035  0.3066  0.2332
 7139TIP3    H142908   3.406   5.595  12.486 -0.2809  0.2680  0.8833
 7139TIP3    H242909   3.311   5.695  12.549 -0.2069  1.3286 -0.6391
 7140TIP3   OH242910   6.301   6.357  15.401  0.0527  0.0209 -0.4042
 7140TIP3    H142911   6.263   6.407  15.329 -0.7071 -0.6168 -0.4589
 7140TIP3    H242912   6.394   6.381  15.400 -0.4092  1.9717  0.0333
 7141TIP3   OH242913   1.799   2.212  14.056  0.2217  0.3151 -0.0887
 7141TIP3    H142914   1.861   2.180  14.122 -1.8178  1.8476  2.7725
 7141TIP3    H242915   1.844   2.286  14.015  0.6012  0.9596  1.4254
 7142TIP3   OH242916   5.995   5.567   4.303  0.1888  0.4653 -0.5687
 7142TIP3    H142917   5.983   5.662   4.308 -1.1883  0.3138 -0.6118
 7142TIP3    H242918   6.007   5.549   4.209 -2.8708  0.3089 -1.0609
 7143TIP3   OH242919   5.591   5.263  13.425  0.5598  0.0199  0.1389
 7143TIP3    H142920   5.579   5.326  13.355 -1.2558  1.7026  1.8369
 7143TIP3    H242921   5.506   5.219  13.433  0.1806  0.9951  2.2365
 7144TIP3   OH242922   6.578   5.766   3.771  0.0835 -0.3199  0.0557
 7144TIP3    H142923   6.522   5.793   3.698 -1.0316  0.4578  1.1511
 7144TIP3    H242924   6.646   5.834   3.775  0.7232 -0.8809 -0.8273
 7145TIP3   OH242925   6.158   5.432  12.096  0.2687 -0.5856 -0.4734
 7145TIP3    H142926   6.181   5.355  12.149  3.2422  0.6927  0.2505
 7145TIP3    H242927   6.201   5.417  12.012 -1.1933 -0.7641 -1.2373
 7146TIP3   OH242928   3.651   2.779   5.517  0.1273  0.5054  0.2206
 7146TIP3    H142929   3.657   2.850   5.453  1.4501 -1.3406 -1.8482
 7146TIP3    H242930   3.566   2.738   5.500  0.4283  0.0876 -0.2986
 7147TIP3   OH242931   5.906   0.307   4.287  0.5801 -0.1666  0.0718
 7147TIP3    H142932   6.001   0.303   4.277  0.4724  1.2387 -2.5223
 7147TIP3    H242933   5.892   0.358   4.367  1.9747 -1.0150  0.8895
 7148TIP3   OH242934   5.870   6.866   4.954 -0.2465 -0.1108 -0.5344
 7148TIP3    H142935   5.947   6.857   4.897  0.2087 -1.6037  0.2658
 7148TIP3    H242936   5.805   6.806   4.917  0.3352 -1.7133  0.9152
 7149TIP3   OH242937   2.279   0.334  16.783 -0.3918  0.8372 -0.3754
 7149TIP3    H142938   2.195   0.360  16.746 -0.8498  0.7239  0.5411
 7149TIP3    H242939   2.345   0.378  16.729 -0.9249 -0.8362 -2.5288
 7150TIP3   OH242940   1.335   2.245   0.139 -0.3087 -0.4215 -0.2146
 7150TIP3    H142941   1.367   2.280   0.056  1.1912  1.4020  1.0414
 7150TIP3    H242942   1.411   2.202   0.178 -0.3304  0.6951  1.1629
 7151TIP3   OH242943   2.132   2.558  16.371 -0.2911  0.4105 -0.0982
 7151TIP3    H142944   2.110   2.614  16.297  0.6936  1.0790  0.0987
 7151TIP3    H242945   2.218   2.588  16.400  0.0105 -0.8399  0.3644
 7152TIP3   OH242946   4.060   4.634  11.188  0.4655 -0.1103 -0.6353
 7152TIP3    H142947   4.001   4.703  11.216 -0.2756 -0.7946 -0.4529
 7152TIP3    H242948   4.071   4.579  11.266  2.4346  0.7174 -0.2578
 7153TIP3   OH242949   3.988   1.927   4.902 -0.3802 -0.6416  0.7697
 7153TIP3    H142950   3.929   2.000   4.884  0.1990 -0.1901  0.6584
 7153TIP3    H242951   4.064   1.968   4.943  1.1946 -0.7295 -1.7922
 7154TIP3   OH242952   3.894   2.243  15.310 -0.7565  0.1379  0.0590
 7154TIP3    H142953   3.851   2.306  15.368 -2.1746 -0.3815 -0.3685
 7154TIP3    H242954   3.986   2.270  15.308 -1.0471  1.2837  1.0484
 7155TIP3   OH242955   2.688   3.611   5.839 -0.3471 -0.2710 -0.0377
 7155TIP3    H142956   2.739   3.691   5.827 -0.4023 -0.3414 -0.7805
 7155TIP3    H242957   2.750   3.541   5.820 -0.0821 -0.4378  1.3845
 7156TIP3   OH242958   0.532   5.638  16.863  0.6928 -0.5875  0.5757
 7156TIP3    H142959   0.580   5.561  16.893 -1.3096 -0.9819  3.1844
 7156TIP3    H242960   0.512   5.687  16.944 -0.1869  1.3925 -0.7412
 7157TIP3   OH242961   5.509   3.063   5.065  0.0624  0.0797  0.1506
 7157TIP3    H142962   5.479   3.143   5.022 -0.2639 -0.2097 -0.1674
 7157TIP3    H242963   5.586   3.090   5.116  0.8373  0.3037 -1.1104
 7158TIP3   OH242964   2.062   0.930   3.151  0.2442  0.7663  0.0027
 7158TIP3    H142965   2.068   0.968   3.239 -0.3888 -1.0669  0.9121
 7158TIP3    H242966   1.993   0.863   3.159  1.6807 -0.9661 -1.2782
 7159TIP3   OH242967   6.461   5.529  15.317  0.0823  0.4174 -0.0093
 7159TIP3    H142968   6.480   5.501  15.406  2.0442  1.4856 -0.0279
 7159TIP3    H242969   6.498   5.460  15.261 -0.6750  0.0065 -0.0083
 7160TIP3   OH242970   2.500   5.588   0.857  0.7797 -0.2949 -0.0041
 7160TIP3    H142971   2.473   5.499   0.879  0.7507 -0.0480  1.0474
 7160TIP3    H242972   2.421   5.630   0.824  0.3551 -0.1795  1.1052
 7161TIP3   OH242973   4.765   0.776   3.115 -0.0466 -0.0465 -0.5653
 7161TIP3    H142974   4.675   0.799   3.140 -0.0289 -0.5587 -0.0069
 7161TIP3    H242975   4.758   0.688   3.079  0.3549 -0.4567  0.3186
 7162TIP3   OH242976   1.960   2.538  12.306  0.2844  0.1058 -0.1906
 7162TIP3    H142977   1.926   2.552  12.395  0.0413  1.2443 -0.4387
 7162TIP3    H242978   1.916   2.459  12.276  0.0742 -0.0800  0.5625
 7163TIP3   OH242979   2.743   0.011   5.001  0.0193 -0.4127 -0.2280
 7163TIP3    H142980   2.664  -0.032   5.032 -1.4699  0.7968 -2.1398
 7163TIP3    H242981   2.785   0.044   5.081 -1.7259 -0.5175  0.7861
 7164TIP3   OH242982   3.810   0.346   2.282  0.2673 -0.3332 -0.2560
 7164TIP3    H142983   3.896   0.363   2.319  0.8105 -0.3772 -1.4437
 7164TIP3    H242984   3.751   0.345   2.357  0.9478  1.9179  0.3903
 7165TIP3   OH242985   4.376   5.671   2.693  0.2508  0.2911  0.4128
 7165TIP3    H142986   4.373   5.762   2.723 -1.8117  0.3945  0.0427
 7165TIP3    H242987   4.443   5.630   2.747  1.6883  2.1686  0.1474
 7166TIP3   OH242988   5.733   4.135  13.469 -0.2646  0.2183  0.2019
 7166TIP3    H142989   5.667   4.093  13.414 -2.0505  0.1858  2.2363
 7166TIP3    H242990   5.716   4.229  13.460 -1.4323  0.1730  1.6386
 7167TIP3   OH242991   0.624   1.209   4.964 -0.2700  0.1133 -0.4245
 7167TIP3    H142992   0.546   1.224   5.019 -0.3608  1.4337 -0.8853
 7167TIP3    H242993   0.652   1.297   4.938 -0.1717 -0.4599 -2.4223
 7168TIP3   OH242994   0.866   5.532   0.955 -0.5477 -0.3204 -0.0445
 7168TIP3    H142995   0.959   5.537   0.977 -0.0975 -2.5582 -1.1555
 7168TIP3    H242996   0.851   5.440   0.935 -2.8535  0.1166 -0.6104
 7169TIP3   OH242997   0.814   3.354   0.191  0.2566 -0.6696 -0.2727
 7169TIP3    H142998   0.740   3.403   0.227  0.0615  0.1008 -1.6469
 7169TIP3    H242999   0.796   3.263   0.214 -0.9984 -0.4638 -0.3768
 7170TIP3   OH243000   0.401   4.881   3.297  0.2425 -0.4522 -0.3919
 7170TIP3    H143001   0.490   4.851   3.315 -0.4874 -1.7816  1.3999
 7170TIP3    H243002   0.367   4.906   3.383 -1.4153 -0.9175 -0.8838
 7171TIP3   OH243003   5.041   5.244  11.530 -0.6066  0.4835  0.4698
 7171TIP3    H143004   5.013   5.254  11.439 -1.4568 -1.1032  0.5234
 7171TIP3    H243005   4.979   5.182  11.568  0.6554 -0.0716  1.7145
 7172TIP3   OH243006   5.831   6.060   2.218 -0.6090 -1.1410  0.1868
 7172TIP3    H143007   5.896   6.128   2.237 -0.4605 -1.5248  1.1044
 7172TIP3    H243008   5.782   6.050   2.300 -1.5140 -1.1964 -0.3511
 7173TIP3   OH243009   4.477   5.160   5.151  0.3199  0.0763  0.5428
 7173TIP3    H143010   4.476   5.209   5.069  0.9941 -3.5117 -1.8106
 7173TIP3    H243011   4.445   5.222   5.216  0.5938  3.3844 -2.2234
 7174TIP3   OH243012   2.040   6.392  12.072 -0.2278  0.1483  0.1531
 7174TIP3    H143013   2.068   6.303  12.089 -1.1921 -0.4588 -1.2773
 7174TIP3    H243014   2.118   6.437  12.040 -0.0795 -0.5845 -0.5220
 7175TIP3   OH243015   3.504   4.414  16.713  0.5101  0.2394  0.1716
 7175TIP3    H143016   3.441   4.414  16.642  0.9152 -0.9285 -0.2084
 7175TIP3    H243017   3.456   4.449  16.788 -0.0625  1.0067 -0.5433
 7176TIP3   OH243018   2.312   0.758   2.377  0.9394  0.2968  0.3776
 7176TIP3    H143019   2.275   0.730   2.461  1.4607  2.0113  1.2103
 7176TIP3    H243020   2.293   0.852   2.373  0.5712  0.1734 -1.6256
 7177TIP3   OH243021   2.652   5.398  16.403 -0.1897  0.3271 -0.2529
 7177TIP3    H143022   2.559   5.396  16.427 -0.1934 -1.3898 -0.2724
 7177TIP3    H243023   2.658   5.468  16.339 -0.6690  3.3622  2.6949
 7178TIP3   OH243024   6.037   3.596   2.566  0.1784 -0.2476  0.2587
 7178TIP3    H143025   6.059   3.587   2.659  0.8362 -0.6852  0.0709
 7178TIP3    H243026   6.122   3.594   2.521 -0.1461 -0.2486 -0.3686
 7179TIP3   OH243027   3.611   3.759   3.487  0.5864  0.4544 -0.0848
 7179TIP3    H143028   3.532   3.770   3.541 -0.6128  0.6942 -1.7997
 7179TIP3    H243029   3.638   3.668   3.503 -0.5718  0.0792 -0.1211
 7180TIP3   OH243030   4.420   1.525   5.838  0.0145  0.3665 -0.2440
 7180TIP3    H143031   4.500   1.550   5.884 -0.7031  1.4256  0.4589
 7180TIP3    H243032   4.355   1.513   5.907 -0.9252  1.3950 -0.9136
 7181TIP3   OH243033   6.086   0.148   4.797 -0.3869  0.0801 -0.1985
 7181TIP3    H143034   6.142   0.221   4.771  2.4403 -2.6280 -2.4363
 7181TIP3    H243035   6.146   0.086   4.840 -2.2376 -1.8054 -0.1616
 7182TIP3   OH243036   5.488   5.238  11.849  0.1599  0.0671  0.0838
 7182TIP3    H143037   5.471   5.199  11.763  0.3376  0.8002 -0.2982
 7182TIP3    H243038   5.571   5.200  11.877  1.5903  1.8841 -1.3763
 7183TIP3   OH243039   1.780   4.035  11.259  0.2816  0.3201 -0.2693
 7183TIP3    H143040   1.695   3.993  11.265  1.1271 -1.3657  1.0126
 7183TIP3    H243041   1.780   4.101  11.328  0.4210 -0.5500  0.5905
 7184TIP3   OH243042   2.823   6.834  10.935 -0.1271  0.5706 -0.1845
 7184TIP3    H143043   2.851   6.802  10.850 -0.1538 -1.1471  0.4094
 7184TIP3    H243044   2.902   6.871  10.974  0.1004  0.5124 -0.5890
 7185TIP3   OH243045   4.379   5.047  12.131  0.4708 -0.1789  0.1634
 7185TIP3    H143046   4.365   5.141  12.125 -0.3152 -0.3163 -0.3323
 7185TIP3    H243047   4.426   5.024  12.051  0.9073 -0.1717  0.4142
 7186TIP3   OH243048   0.471   2.858  10.981  0.3517  0.2039 -0.1108
 7186TIP3    H143049   0.475   2.786  10.918  0.7091  0.5563 -0.4900
 7186TIP3    H243050   0.464   2.937  10.928  0.5287  0.4938  0.2919
 7187TIP3   OH243051   1.007   6.695  12.242 -0.7306 -1.2429 -0.0184
 7187TIP3    H143052   1.044   6.721  12.158 -0.1587 -0.3019  0.5057
 7187TIP3    H243053   1.057   6.617  12.267 -0.9325 -1.5506 -0.5694
 7188TIP3   OH243054   3.808   0.964  10.872  0.1418 -0.3109 -0.3539
 7188TIP3    H143055   3.774   0.945  10.960 -1.0785  0.8723 -0.5298
 7188TIP3    H243056   3.851   1.049  10.881  0.1000 -0.2297 -0.8871
 7189TIP3   OH243057   0.636   4.616   4.512 -0.3300  0.2207 -0.0628
 7189TIP3    H143058   0.598   4.649   4.430 -0.0558  1.5106  0.3076
 7189TIP3    H243059   0.698   4.548   4.484 -0.8004  0.1098 -0.8643
 7190TIP3   OH243060   1.445   3.410   2.196 -0.1963 -0.1876  0.3971
 7190TIP3    H143061   1.451   3.484   2.137 -2.4360  0.2575  0.6473
 7190TIP3    H243062   1.469   3.446   2.282  1.4324 -0.4516  0.0871
 7191TIP3   OH243063   5.147   6.306  11.101 -0.3007  0.8543  0.4512
 7191TIP3    H143064   5.212   6.292  11.171 -1.0381  0.1641  1.0168
 7191TIP3    H243065   5.068   6.332  11.148 -0.2454  2.4921 -0.2836
 7192TIP3   OH243066   4.181   1.818  15.063  0.3271  0.2590 -0.0214
 7192TIP3    H143067   4.270   1.786  15.076  0.9515  1.8785 -0.0927
 7192TIP3    H243068   4.125   1.748  15.097  1.6528 -0.1459  1.4351
 7193TIP3   OH243069   3.210   3.879   4.259 -0.3260  0.8199  0.3477
 7193TIP3    H143070   3.231   3.963   4.300  1.3075  1.5735 -1.8363
 7193TIP3    H243071   3.121   3.890   4.227  0.2239  2.2234 -0.8776
 7194TIP3   OH243072   5.564   2.106  15.941 -0.3396 -0.3893 -0.0480
 7194TIP3    H143073   5.596   2.027  15.984  1.8574  0.3917 -0.1052
 7194TIP3    H243074   5.559   2.083  15.849 -0.1646 -0.6047 -0.0047
 7195TIP3   OH243075   1.468   5.233   5.932  0.0232  0.2555 -0.2078
 7195TIP3    H143076   1.512   5.155   5.965  3.4545  1.9738 -0.2425
 7195TIP3    H243077   1.448   5.284   6.010 -0.4771  0.1937 -0.2915
 7196TIP3   OH243078   2.716   2.884  12.366  0.0849 -0.3362  0.4174
 7196TIP3    H143079   2.804   2.881  12.328  0.2729  0.9572  0.6834
 7196TIP3    H243080   2.701   2.796  12.401  1.2078 -0.6165  0.2218
 7197TIP3   OH243081   0.611   5.411   6.174 -0.1060 -0.2485 -0.4934
 7197TIP3    H143082   0.548   5.469   6.217 -0.8759 -1.4014 -0.0461
 7197TIP3    H243083   0.582   5.409   6.082  1.3080  1.8937 -1.0838
 7198TIP3   OH243084   1.015   2.519  11.393 -0.3421  0.1216  0.0654
 7198TIP3    H143085   1.044   2.607  11.372 -1.2762  0.4039 -0.0866
 7198TIP3    H243086   0.943   2.502  11.332 -1.4696  0.0043  1.3853
 7199TIP3   OH243087   4.167   6.592   3.362 -0.0860 -0.2034  0.4090
 7199TIP3    H143088   4.137   6.504   3.385 -2.8950  1.3375  3.4158
 7199TIP3    H243089   4.091   6.634   3.322  0.3511  1.5721  1.3074
 7200TIP3   OH243090   4.160   6.551   0.857  0.4748  0.1083  0.5928
 7200TIP3    H143091   4.132   6.526   0.769  0.3462  0.3775  0.5579
 7200TIP3    H243092   4.240   6.499   0.871  0.4400 -0.0139  0.3597
 7201TIP3   OH243093   0.331   0.763  16.313  0.1038  0.5980  0.1223
 7201TIP3    H143094   0.355   0.837  16.367  0.9728  0.4174 -0.0111
 7201TIP3    H243095   0.383   0.690  16.347 -1.4951 -0.2278  0.9455
 7202TIP3   OH243096   4.731   3.405   3.056 -0.0841 -0.0527  0.1847
 7202TIP3    H143097   4.789   3.342   3.013  0.4333  0.1051  0.6544
 7202TIP3    H243098   4.663   3.351   3.096  1.0307 -0.4254  1.6430
 7203TIP3   OH243099   4.228   6.668   3.082 -0.1384 -0.2951 -0.4700
 7203TIP3    H143100   4.185   6.698   3.002 -0.1153 -0.6217 -0.6066
 7203TIP3    H243101   4.157   6.663   3.146  0.2641  2.8459  0.4142
 7204TIP3   OH243102   2.955   3.546  11.391  0.1806 -0.2195  0.3677
 7204TIP3    H143103   3.044   3.517  11.410  0.5980  0.1161 -0.9719
 7204TIP3    H243104   2.924   3.487  11.323 -0.1148  0.4916 -0.1341
 7205TIP3   OH243105   4.021   0.797   2.854  0.4106  0.3157  0.1992
 7205TIP3    H143106   4.051   0.762   2.771  0.4783 -1.2935  0.8791
 7205TIP3    H243107   4.090   0.860   2.879  0.8698  0.0960 -0.4833
 7206TIP3   OH243108   1.200   1.573   5.124  0.4297 -0.2871  0.3596
 7206TIP3    H143109   1.225   1.641   5.062  0.1251  1.1912  1.7853
 7206TIP3    H243110   1.129   1.525   5.079  0.6432  0.3214 -0.6681
 7207TIP3   OH243111   0.901   0.001  16.328 -0.4098 -0.3895  0.3444
 7207TIP3    H143112   0.864   0.089  16.341 -1.0377 -0.5592 -0.2409
 7207TIP3    H243113   0.994   0.016  16.313 -0.8837  0.4128 -2.2422
 7208TIP3   OH243114   4.947   5.161  16.637  0.3159  0.2576 -0.4255
 7208TIP3    H143115   5.014   5.224  16.607  0.1279  0.4115 -0.5234
 7208TIP3    H243116   4.867   5.212  16.642 -0.0074 -0.1450 -1.2572
 7209TIP3   OH243117   3.302   2.397   3.202 -0.3623  0.2399  0.5616
 7209TIP3    H143118   3.377   2.450   3.230 -1.3957  0.2849  3.6302
 7209TIP3    H243119   3.241   2.401   3.275 -3.1950 -0.2192 -1.5785
 7210TIP3   OH243120   5.769   6.445  12.412 -0.2942  0.3475 -0.1227
 7210TIP3    H143121   5.699   6.382  12.427 -1.6171  1.6497 -0.5842
 7210TIP3    H243122   5.740   6.496  12.336  0.8379  1.3604  0.0931
 7211TIP3   OH243123   4.255   6.063  13.393  0.2476 -0.2251  0.7268
 7211TIP3    H143124   4.302   6.094  13.471 -0.0992  0.5678  0.6294
 7211TIP3    H243125   4.250   6.140  13.336 -0.7870 -0.4171  0.5475
 7212TIP3   OH243126   4.147   3.337  11.096 -0.2467  0.1363 -0.3316
 7212TIP3    H143127   4.233   3.376  11.110 -0.5671  0.4208  0.9797
 7212TIP3    H243128   4.154   3.249  11.132 -0.5076  0.1716 -0.1900
 7213TIP3   OH243129   0.511   3.598   3.634  0.3564 -0.1202 -0.4885
 7213TIP3    H143130   0.445   3.629   3.696  1.3949  4.0680 -1.1631
 7213TIP3    H243131   0.469   3.524   3.590 -2.8100  0.6274  0.9414
 7214TIP3   OH243132   1.496   6.070  14.064  0.0481  0.1512  0.2734
 7214TIP3    H143133   1.542   5.988  14.082 -0.3631  0.2214  1.7492
 7214TIP3    H243134   1.551   6.137  14.105 -1.1782  0.2649  1.8463
 7215TIP3   OH243135   5.756   5.274   4.287 -0.0042  0.3188 -0.2547
 7215TIP3    H143136   5.824   5.336   4.260 -0.4132  2.1262  2.4663
 7215TIP3    H243137   5.683   5.329   4.314 -0.4965 -1.3285  2.0563
 7216TIP3   OH243138   0.336   6.114   0.920 -0.3670 -0.2377 -0.1643
 7216TIP3    H143139   0.316   6.120   1.014 -0.4523 -0.7675 -0.1457
 7216TIP3    H243140   0.362   6.203   0.896 -0.7827  0.0085  0.2622
 7217TIP3   OH243141   3.513   4.008   0.430  0.2862 -0.0549 -0.1623
 7217TIP3    H143142   3.528   4.084   0.374 -0.0428 -0.5987 -0.9938
 7217TIP3    H243143   3.435   3.966   0.394  0.0477 -0.3997  0.7241
 7218TIP3   OH243144   1.649   4.426  16.537 -0.0097 -0.1451  0.3792
 7218TIP3    H143145   1.593   4.503  16.526 -0.0531 -0.0374  1.3256
 7218TIP3    H243146   1.589   4.356  16.562  0.2947  0.0099  1.5581
 7219TIP3   OH243147   2.168   0.926  13.055  0.1883  0.2556 -0.2036
 7219TIP3    H143148   2.079   0.949  13.029 -0.0311  1.0572  1.1488
 7219TIP3    H243149   2.208   1.010  13.079  1.7583  0.0964 -1.9764
 7220TIP3   OH243150   5.621   4.863   3.097 -0.3867  0.0773  0.4007
 7220TIP3    H143151   5.669   4.847   3.017 -0.5018  2.4328 -0.2248
 7220TIP3    H243152   5.687   4.891   3.160 -0.7947  3.4963 -0.5113
 7221TIP3   OH243153   0.974   5.258  13.244 -0.3533  0.3441 -0.0357
 7221TIP3    H143154   1.028   5.327  13.282 -1.5440  1.5719 -0.5004
 7221TIP3    H243155   0.889   5.266  13.289 -0.5971 -0.6424 -0.2901
 7222TIP3   OH243156   1.076   1.541   3.244 -0.1580 -0.4065 -0.2990
 7222TIP3    H143157   1.162   1.561   3.206  1.1738 -2.1404  1.5756
 7222TIP3    H243158   1.064   1.607   3.312 -0.0759 -0.4687 -0.2244
 7223TIP3   OH243159   0.121   0.752   6.565  0.1132 -0.8325 -0.1469
 7223TIP3    H143160   0.196   0.707   6.527  1.1182  1.0488 -0.5029
 7223TIP3    H243161   0.082   0.800   6.492  0.8671  1.2088  0.7030
 7224TIP3   OH243162   2.329   0.758   2.009 -0.6003 -0.2470  0.0632
 7224TIP3    H143163   2.262   0.826   2.006  1.1143  1.6017  1.1923
 7224TIP3    H243164   2.326   0.726   2.099 -2.5971 -3.1227 -0.8424
 7225TIP3   OH243165   1.085   3.215   4.328  0.2038  0.1706 -0.3928
 7225TIP3    H143166   1.084   3.274   4.252 -0.9990  0.5963 -0.0710
 7225TIP3    H243167   1.002   3.233   4.373 -0.2972 -1.8975 -0.3869
 7226TIP3   OH243168   0.423   6.278   4.848  0.0479  0.9584 -0.1759
 7226TIP3    H143169   0.506   6.312   4.815  0.0799  1.3479  0.3060
 7226TIP3    H243170   0.359   6.346   4.826  0.0415  1.1458  0.4142
 7227TIP3   OH243171   6.052   0.138  13.452  0.1641  0.4417 -0.0009
 7227TIP3    H143172   6.060   0.232  13.466 -0.1467  0.9854 -2.8316
 7227TIP3    H243173   6.138   0.103  13.473  0.8914  1.6752 -0.7983
 7228TIP3   OH243174   0.977   5.163   1.550 -0.2038  0.3489 -0.3907
 7228TIP3    H143175   0.913   5.133   1.615  1.4272  1.6162  1.9704
 7228TIP3    H243176   1.013   5.243   1.588  3.3740 -0.7490 -1.1101
 7229TIP3   OH243177   5.690   1.831  10.982  0.4043 -0.1947  0.3759
 7229TIP3    H143178   5.651   1.897  10.925 -1.9022 -0.3382  1.6815
 7229TIP3    H243179   5.750   1.881  11.038  0.8306  0.3277 -0.5282
 7230TIP3   OH243180   1.846   3.367   1.757 -0.0515 -0.3141 -0.5177
 7230TIP3    H143181   1.909   3.430   1.791 -1.4004 -0.1424  1.8635
 7230TIP3    H243182   1.763   3.414   1.754 -0.5452 -1.1872 -1.4402
 7231TIP3   OH243183   0.797   4.695  15.450 -0.1950  0.4567 -0.0519
 7231TIP3    H143184   0.788   4.748  15.529 -1.2742 -1.0558  0.8817
 7231TIP3    H243185   0.880   4.648  15.463  1.3506  2.6015 -1.3844
 7232TIP3   OH243186   2.983   2.730  16.215 -0.5938  0.6247 -0.2660
 7232TIP3    H143187   2.945   2.790  16.280  0.8375 -0.0276  1.2628
 7232TIP3    H243188   3.077   2.748  16.218 -0.2293 -1.0773 -0.3994
 7233TIP3   OH243189   5.673   4.461  15.805  0.1506 -0.1286 -0.3204
 7233TIP3    H143190   5.722   4.493  15.730 -0.0751  1.0435  0.0112
 7233TIP3    H243191   5.647   4.372  15.781  0.0530  0.2385 -1.6310
 7234TIP3   OH243192   0.509   6.009   5.617 -0.1026 -0.0767 -0.1211
 7234TIP3    H143193   0.434   5.949   5.619  0.1682 -0.4560 -1.0224
 7234TIP3    H243194   0.513   6.039   5.526 -0.6626  1.8796  0.4497
 7235TIP3   OH243195   3.772   1.750  14.284 -0.2104 -0.5785  0.5772
 7235TIP3    H143196   3.849   1.707  14.322 -0.9129 -1.6796  0.8125
 7235TIP3    H243197   3.797   1.768  14.194  0.1227 -1.4790  0.4788
 7236TIP3   OH243198   2.342   6.384   3.740 -0.6413 -0.1357  0.1034
 7236TIP3    H143199   2.326   6.397   3.834 -0.0907  2.5852 -0.1258
 7236TIP3    H243200   2.291   6.452   3.697 -1.3659 -1.7163 -1.6706
 7237TIP3   OH243201   4.390   1.586   4.600  0.2039  0.1333  0.4680
 7237TIP3    H143202   4.474   1.539   4.607  0.8780  0.6582 -2.5187
 7237TIP3    H243203   4.324   1.517   4.600  0.8456 -0.4934  0.4799
 7238TIP3   OH243204   5.120   3.473  12.212  1.2408  0.5396 -0.3073
 7238TIP3    H143205   5.146   3.389  12.250 -2.3249 -0.9256 -0.7198
 7238TIP3    H243206   5.167   3.477  12.129  0.6202 -1.6589 -0.8246
 7239TIP3   OH243207   5.276   0.350   3.116 -0.2391  0.1572  0.1563
 7239TIP3    H143208   5.288   0.265   3.073 -4.8249 -0.8563  0.3777
 7239TIP3    H243209   5.252   0.410   3.046 -2.5223 -0.1934  0.5830
 7240TIP3   OH243210   6.756   3.598  12.899  0.1892 -0.2795  0.0194
 7240TIP3    H143211   6.734   3.608  12.806 -0.5585 -1.4391  0.0389
 7240TIP3    H243212   6.826   3.533  12.900 -0.1249 -0.6136  0.2936
 7241TIP3   OH243213   4.993   1.579   4.647 -0.7677 -0.5292  0.0827
 7241TIP3    H143214   4.916   1.628   4.620  1.0768  2.2102 -0.5799
 7241TIP3    H243215   4.998   1.592   4.742  0.2148  1.5479 -0.1899
 7242TIP3   OH243216   3.507   0.113  16.407 -0.0458 -0.3032 -0.1756
 7242TIP3    H143217   3.595   0.078  16.393  0.7620  1.6258 -0.1065
 7242TIP3    H243218   3.508   0.147  16.496 -1.1100 -0.9097  0.0855
 7243TIP3   OH243219   4.354   4.570  16.683 -0.6502  0.5177  0.0251
 7243TIP3    H143220   4.347   4.663  16.662 -0.4019  0.5420  0.0447
 7243TIP3    H243221   4.430   4.540  16.634 -0.3070  0.4834  0.5648
 7244TIP3   OH243222   1.667   3.522   5.604 -0.3707 -0.2039 -0.1807
 7244TIP3    H143223   1.756   3.555   5.598 -1.0595  2.0100  0.8154
 7244TIP3    H243224   1.672   3.452   5.669  0.8872 -1.2299 -1.3257
 7245TIP3   OH243225   6.213   1.977  13.683  0.8484 -0.2281 -0.3710
 7245TIP3    H143226   6.178   1.925  13.611  1.1724  0.5723 -1.1227
 7245TIP3    H243227   6.140   1.986  13.744  0.5123 -0.7529 -0.6895
 7246TIP3   OH243228   1.153   4.979  13.530  0.5655  0.0226  0.3083
 7246TIP3    H143229   1.062   4.952  13.528  0.6080 -0.1214 -1.4197
 7246TIP3    H243230   1.154   5.056  13.588 -0.6147 -0.0530  0.4528
 7247TIP3   OH243231   6.746   4.688  15.641  0.3834  0.1721  0.3718
 7247TIP3    H143232   6.714   4.603  15.610  0.7395  0.4886 -0.9465
 7247TIP3    H243233   6.692   4.708  15.717 -2.5431  0.6055 -1.6432
 7248TIP3   OH243234   1.086   3.422  11.513  0.7047 -0.7226 -0.0831
 7248TIP3    H143235   1.044   3.478  11.579  1.0046  1.0895 -1.3499
 7248TIP3    H243236   1.047   3.336  11.526 -0.6257  0.0313  1.2245
 7249TIP3   OH243237   5.788   0.592  16.258 -0.1563 -0.6718  0.0124
 7249TIP3    H143238   5.730   0.533  16.306 -1.1434 -0.6193 -1.0527
 7249TIP3    H243239   5.746   0.601  16.172  0.8649  0.2519 -0.4094
 7250TIP3   OH243240   3.293   0.893   4.252  0.6315  0.7049  0.2923
 7250TIP3    H143241   3.261   0.814   4.295 -0.2220  0.5365 -0.6234
 7250TIP3    H243242   3.370   0.865   4.204 -0.7478 -0.0477 -1.5992
 7251TIP3   OH243243   3.315   6.096   2.102  0.3576  0.4660  0.3884
 7251TIP3    H143244   3.248   6.045   2.147  2.3284 -2.2291  0.5217
 7251TIP3    H243245   3.376   6.122   2.171  1.9985 -1.4226 -0.2629
 7252TIP3   OH243246   5.975   6.197  14.855  0.2819  0.0692 -0.2110
 7252TIP3    H143247   6.001   6.198  14.763 -1.1577 -0.6399 -0.6503
 7252TIP3    H243248   6.043   6.147  14.899  0.4779 -0.4154 -1.0545
 7253TIP3   OH243249   4.158   0.760  11.085  0.1349  0.6857 -0.1240
 7253TIP3    H143250   4.245   0.721  11.075  0.0253  0.0886  1.0924
 7253TIP3    H243251   4.139   0.799  10.999  1.6862  1.0239 -0.3409
 7254TIP3   OH243252   2.333   5.222  13.128  0.2851  0.0744 -0.2484
 7254TIP3    H143253   2.253   5.224  13.077 -1.7209 -1.9469  2.5058
 7254TIP3    H243254   2.393   5.167  13.078 -0.7857 -0.0490 -1.4215
 7255TIP3   OH243255   4.791   1.009  14.823  0.6719 -0.2908 -0.7375
 7255TIP3    H143256   4.885   1.022  14.831  0.3941  0.4882  1.8344
 7255TIP3    H243257   4.751   1.076  14.878 -1.4085 -0.7322 -1.5834
 7256TIP3   OH243258   3.296   1.021  15.398 -0.2084  0.3302  0.1417
 7256TIP3    H143259   3.382   1.003  15.437  0.5355 -1.3870 -2.0799
 7256TIP3    H243260   3.251   0.937  15.402  0.0837 -0.0685 -2.9715
 7257TIP3   OH243261   1.515   0.835  14.361  0.1401  0.1662  0.1428
 7257TIP3    H143262   1.481   0.862  14.276 -0.7396 -2.7640 -0.5464
 7257TIP3    H243263   1.443   0.852  14.422  0.0555  0.4622 -0.0381
 7258TIP3   OH243264   2.219   4.244  16.343 -0.5311 -0.1270  0.4466
 7258TIP3    H143265   2.162   4.254  16.419 -1.1436  1.4305 -0.1899
 7258TIP3    H243266   2.275   4.321  16.344 -1.2406  0.4670 -1.2270
 7259TIP3   OH243267   1.210   3.469  15.903 -0.0326  0.5760  0.0064
 7259TIP3    H143268   1.140   3.469  15.968 -0.0459  0.0721 -0.0029
 7259TIP3    H243269   1.273   3.533  15.935 -0.6857  1.3298 -0.1926
 7260TIP3   OH243270   4.466   4.325   3.196 -0.2303 -0.4258 -0.7211
 7260TIP3    H143271   4.466   4.238   3.236  1.3537 -0.2151 -0.1859
 7260TIP3    H243272   4.445   4.384   3.268  2.7666 -0.0319 -0.0466
 7261TIP3   OH243273   1.035   6.343  11.439  0.4616 -0.3783 -0.4729
 7261TIP3    H143274   1.004   6.288  11.368  0.7614 -1.0723 -0.0756
 7261TIP3    H243275   1.130   6.347  11.427  0.4236  0.2266 -0.6175
 7262TIP3   OH243276   1.272   1.860   2.742  0.0892 -0.0165  0.1194
 7262TIP3    H143277   1.197   1.868   2.800 -0.7337 -0.1594 -0.8870
 7262TIP3    H243278   1.242   1.896   2.659  0.7168 -1.2272 -0.6674
 7263TIP3   OH243279   2.954   3.825  10.961  0.3460 -0.0997 -0.1333
 7263TIP3    H143280   3.032   3.831  11.016 -0.7669  0.4717  1.4258
 7263TIP3    H243281   2.930   3.732  10.964  0.2244 -0.0509  0.4458
 7264TIP3   OH243282   3.248   4.135  16.940 -0.2627 -0.4034  0.6270
 7264TIP3    H143283   3.270   4.108  16.851  0.2734  0.4126  0.5008
 7264TIP3    H243284   3.183   4.071  16.969 -0.5689 -0.5872 -0.4125
 7265TIP3   OH243285   1.217   3.103   3.471  0.4695  0.3173 -0.4366
 7265TIP3    H143286   1.163   3.182   3.469 -1.0935 -0.7066 -0.7096
 7265TIP3    H243287   1.181   3.052   3.543  1.5790 -0.0858 -0.1541
 7266TIP3   OH243288   1.787   2.763   2.024  0.2193  0.2563 -0.2590
 7266TIP3    H143289   1.727   2.704   2.069  0.0108  1.0031  0.4714
 7266TIP3    H243290   1.873   2.725   2.039  0.2398  0.8739  1.4487
 7267TIP3   OH243291   1.635   4.441  15.515 -0.4147  0.0438 -0.5446
 7267TIP3    H143292   1.693   4.495  15.569 -2.5894  2.3012 -0.3174
 7267TIP3    H243293   1.603   4.373  15.576  0.0860  0.2616 -0.0295
 7268TIP3   OH243294   3.681   0.649  15.049  0.3591  0.5773  0.7620
 7268TIP3    H143295   3.639   0.682  14.970  0.6620 -1.3674 -0.2651
 7268TIP3    H243296   3.608   0.625  15.106  0.1078  0.3551  0.3545
 7269TIP3   OH243297   4.439   2.088  15.094  0.2436 -0.1402 -0.4777
 7269TIP3    H143298   4.458   2.166  15.145 -1.9740 -0.7844  1.4705
 7269TIP3    H243299   4.431   2.018  15.158 -0.8258 -1.3670 -1.8768
 7270TIP3   OH243300   2.819   1.025   3.414  0.3227 -0.1023  0.0930
 7270TIP3    H143301   2.824   0.930   3.407  1.2323 -0.1836  1.4768
 7270TIP3    H243302   2.826   1.043   3.508 -0.7599  1.2898 -0.0589
 7271TIP3   OH243303   2.389   1.116   4.995 -0.2161 -0.3052 -0.1117
 7271TIP3    H143304   2.437   1.198   5.002  0.3569 -0.5320 -1.1577
 7271TIP3    H243305   2.455   1.051   4.973 -0.1681 -1.6428  3.3946
 7272TIP3   OH243306   0.761   2.183   3.837  0.0262 -0.4023  0.0974
 7272TIP3    H143307   0.680   2.228   3.813 -0.3692 -1.0483  0.1892
 7272TIP3    H243308   0.826   2.212   3.772 -0.4129 -0.2767 -0.2884
 7273TIP3   OH243309   1.414   4.265  15.408 -0.3652  0.2912  0.0176
 7273TIP3    H143310   1.496   4.252  15.361 -0.0108  0.2521  0.6369
 7273TIP3    H243311   1.408   4.190  15.467 -0.3695  0.7775  0.6488
 7274TIP3   OH243312   0.612   2.020  16.524 -0.0618  0.2604  0.0591
 7274TIP3    H143313   0.673   1.974  16.582 -1.1698 -0.6777  0.5052
 7274TIP3    H243314   0.669   2.066  16.462  1.0931 -0.6964  0.3727
 7275TIP3   OH243315   5.710   4.841   1.894  0.4381  0.1342 -0.2566
 7275TIP3    H143316   5.802   4.823   1.913  0.0029 -0.1805  1.7940
 7275TIP3    H243317   5.680   4.893   1.969 -1.0653  0.2090 -0.8773
 7276TIP3   OH243318   5.828   2.097  15.472 -0.3863 -0.1136 -0.1002
 7276TIP3    H143319   5.896   2.162  15.456 -1.4828  1.1917  0.3871
 7276TIP3    H243320   5.871   2.030  15.525  0.2981  1.1365  0.9772
 7277TIP3   OH243321   3.338   1.159  13.234  0.0819 -0.0790  0.5038
 7277TIP3    H143322   3.292   1.212  13.169 -1.8617 -0.0616  1.8395
 7277TIP3    H243323   3.406   1.218  13.268 -0.3260  0.6461  0.0998
 7278TIP3   OH243324   5.821   3.156  13.466 -0.4124  0.1550  0.0188
 7278TIP3    H143325   5.768   3.079  13.486 -1.2918  1.0457  1.3041
 7278TIP3    H243326   5.758   3.223  13.440  0.3884  0.2879 -1.7072
 7279TIP3   OH243327   5.077   5.584  13.332 -0.4544  0.5039 -0.0523
 7279TIP3    H143328   5.068   5.572  13.426  0.1821  1.6749  0.1774
 7279TIP3    H243329   5.131   5.510  13.304 -0.1599  0.4702  0.5880
 7280TIP3   OH243330   1.813   5.913   5.764  0.1368 -0.0477  0.1823
 7280TIP3    H143331   1.876   5.850   5.731  0.7494  0.2086  0.8347
 7280TIP3    H243332   1.803   5.891   5.857  0.5388  0.9514  0.4721
 7281TIP3   OH243333   1.289   2.580  15.627 -0.0797 -0.3121  0.0162
 7281TIP3    H143334   1.314   2.556  15.538 -0.3671  1.4889 -0.5987
 7281TIP3    H243335   1.361   2.549  15.682  0.4308 -0.8337 -0.9206
 7282TIP3   OH243336   3.563   5.013   1.296 -0.3269 -0.1916  0.3499
 7282TIP3    H143337   3.482   4.986   1.340  0.1989 -1.5677  0.4976
 7282TIP3    H243338   3.533   5.071   1.226 -1.5469 -1.5413 -0.2974
 7283TIP3   OH243339   4.212   3.750  14.526 -0.5511 -0.1158  0.3382
 7283TIP3    H143340   4.211   3.656  14.546 -1.0619  0.1287  1.5927
 7283TIP3    H243341   4.120   3.777  14.537 -0.1437  0.8373  1.6740
 7284TIP3   OH243342   1.708   0.266   0.994 -0.7982  0.1626  0.0642
 7284TIP3    H143343   1.706   0.336   1.059  0.9414  0.6365 -0.3558
 7284TIP3    H243344   1.745   0.306   0.916  0.4108 -1.2446 -0.1322
 7285TIP3   OH243345   4.172   2.486  14.138 -0.5513  1.1762  0.3112
 7285TIP3    H143346   4.218   2.407  14.164  1.8643  2.3115 -0.1960
 7285TIP3    H243347   4.084   2.477  14.174 -0.9785 -2.5189 -1.2239
 7286TIP3   OH243348   0.640   1.794  12.658  0.1636 -0.3235  0.5303
 7286TIP3    H143349   0.734   1.795  12.680  0.1626 -0.5549  0.5515
 7286TIP3    H243350   0.612   1.704  12.678  0.3092 -0.7347 -0.9976
 7287TIP3   OH243351   1.210   4.127  10.212 -0.0215  0.0891 -0.2027
 7287TIP3    H143352   1.119   4.143  10.239  0.5640  1.3365  1.1671
 7287TIP3    H243353   1.213   4.034  10.194 -1.6247  0.0491 -0.4632
 7288TIP3   OH243354   1.079   6.523  16.928  0.6866 -0.2129 -0.2398
 7288TIP3    H143355   1.088   6.602  16.874 -0.1426  0.7941  1.0430
 7288TIP3    H243356   1.069   6.556  17.017  0.6753 -1.7971  0.3728
 7289TIP3   OH243357   0.293   4.817  11.231 -0.6044  0.0950  0.1725
 7289TIP3    H143358   0.356   4.801  11.302  0.2778  0.5213 -0.4865
 7289TIP3    H243359   0.348   4.844  11.157 -1.6322  1.1350 -0.2256
 7290TIP3   OH243360   0.660   0.373  14.626 -0.8296 -0.2609 -0.3459
 7290TIP3    H143361   0.603   0.352  14.552 -0.9951 -1.7048  0.1408
 7290TIP3    H243362   0.605   0.425  14.685 -1.1658 -0.3542 -0.5760
 7291TIP3   OH243363   1.810   4.451   4.239 -0.7846 -0.6863  0.2971
 7291TIP3    H143364   1.776   4.453   4.329 -1.0178 -3.4654  0.3569
 7291TIP3    H243365   1.889   4.398   4.244  0.0896  0.4223 -0.9359
 7292TIP3   OH243366   5.198   4.770   2.836  0.0390  0.3467 -0.3272
 7292TIP3    H143367   5.134   4.807   2.775  1.5856  1.4577 -1.3623
 7292TIP3    H243368   5.281   4.812   2.812  1.2729 -1.4194  0.6137
 7293TIP3   OH243369   3.594   2.446  14.523 -0.0334 -0.2883 -0.4187
 7293TIP3    H143370   3.601   2.541  14.525  0.1773 -0.3116  0.2519
 7293TIP3    H243371   3.684   2.415  14.512 -0.0564 -0.4137 -0.2684
 7294TIP3   OH243372   0.737   1.458   2.236  0.0770 -0.8017 -0.7470
 7294TIP3    H143373   0.717   1.518   2.308  0.2588  1.3414 -2.3776
 7294TIP3    H243374   0.829   1.438   2.246 -0.1153 -1.2768  0.1350
 7295TIP3   OH243375   3.539   5.105   2.154 -0.3113  0.4344  0.5941
 7295TIP3    H143376   3.617   5.110   2.098 -1.2470  1.7123 -0.6728
 7295TIP3    H243377   3.470   5.071   2.096 -0.6479 -1.1045  1.8085
 7296TIP3   OH243378   6.411   3.533   0.101  0.2376  0.1379 -0.1082
 7296TIP3    H143379   6.443   3.588   0.172  0.7354  1.0285 -1.0007
 7296TIP3    H243380   6.320   3.560   0.089 -0.5970 -1.6422  1.7095
 7297TIP3   OH243381   4.944   3.944   3.673  0.3851  0.4669 -0.2316
 7297TIP3    H143382   4.883   3.941   3.601  0.3578  0.0969 -0.1915
 7297TIP3    H243383   4.988   3.859   3.672  1.5675  1.0619 -0.8463
 7298TIP3   OH243384   5.384   1.308   1.705  0.1943  0.6571 -0.3672
 7298TIP3    H143385   5.453   1.373   1.709 -0.7240  1.7797 -1.8259
 7298TIP3    H243386   5.307   1.356   1.676 -1.4001 -0.4248  1.7604
 7299TIP3   OH243387   1.261   5.170   4.956 -0.1461  0.5222  0.4869
 7299TIP3    H143388   1.270   5.075   4.959 -0.4099  0.4869  0.2095
 7299TIP3    H243389   1.221   5.188   4.870  0.6773  0.9441  0.1846
 7300TIP3   OH243390   1.623   0.681   3.346 -0.2420 -0.1209  0.3016
 7300TIP3    H143391   1.654   0.591   3.350 -1.7787 -0.7464 -0.7354
 7300TIP3    H243392   1.656   0.714   3.263 -1.1767 -0.3620 -0.1867
 7301TIP3   OH243393   0.460   0.708  11.786 -0.5230 -0.2137  0.0503
 7301TIP3    H143394   0.485   0.774  11.722 -0.7346  1.8218  1.9118
 7301TIP3    H243395   0.449   0.627  11.736 -1.2497  1.3757 -2.5271
 7302TIP3   OH243396   0.235   3.308  14.054 -0.1340 -0.1379  0.1545
 7302TIP3    H143397   0.264   3.246  13.987  1.3195  0.2005  0.4452
 7302TIP3    H243398   0.180   3.255  14.112 -0.8860 -0.5809 -0.9192
 7303TIP3   OH243399   2.310   0.438   2.507 -0.1838  0.1042 -0.4419
 7303TIP3    H143400   2.309   0.365   2.445 -1.5434  1.9846 -2.8255
 7303TIP3    H243401   2.218   0.453   2.527  0.1876  0.0901  1.4276
 7304TIP3   OH243402   0.420   1.245  11.902  0.2019  0.2550 -0.4369
 7304TIP3    H143403   0.459   1.183  11.964  0.2697  1.0146  0.2903
 7304TIP3    H243404   0.346   1.283  11.950 -0.9480 -0.5465 -1.5009
 7305TIP3   OH243405   1.277   1.026   3.456  0.2940  0.1450 -0.3325
 7305TIP3    H143406   1.237   1.026   3.369  0.5595 -1.3858 -0.4804
 7305TIP3    H243407   1.211   0.983   3.512  0.4555  0.4031  0.0568
 7306TIP3   OH243408   6.784   6.779  14.177 -0.4404  0.0457 -0.0357
 7306TIP3    H143409   6.787   6.749  14.268  2.0354 -0.1948 -0.1283
 7306TIP3    H243410   6.715   6.726  14.136 -0.0853 -1.4179  1.1803
 7307TIP3   OH243411   5.397   6.329   6.133  0.6184 -0.1441  0.2611
 7307TIP3    H143412   5.305   6.313   6.154  0.4572 -2.0496 -1.5256
 7307TIP3    H243413   5.422   6.403   6.188 -2.0580  0.6400  0.5739
 7308TIP3   OH243414   5.918   4.565  11.142  0.6775 -0.3153 -0.0818
 7308TIP3    H143415   5.969   4.555  11.061 -0.5427  0.8697 -1.0530
 7308TIP3    H243416   5.828   4.581  11.112 -0.2650 -2.0732  1.5699
 7309TIP3   OH243417   3.276   1.155   4.346 -0.1568 -0.0867  0.0654
 7309TIP3    H143418   3.296   1.062   4.333 -0.0651 -0.6183  3.1812
 7309TIP3    H243419   3.331   1.181   4.420 -1.2974  2.0720  0.2434
 7310TIP3   OH243420   5.591   4.484   3.216  0.0998 -0.2400 -0.0004
 7310TIP3    H143421   5.537   4.500   3.293  0.6782  0.7198  0.2253
 7310TIP3    H243422   5.585   4.389   3.201  0.3544 -0.5186  1.5148
 7311TIP3   OH243423   3.942   5.937  14.588 -0.0727 -0.3382  0.0573
 7311TIP3    H143424   3.949   5.987  14.669 -2.1354  0.8514 -0.4327
 7311TIP3    H243425   3.990   5.989  14.524 -0.3429 -0.1102  0.0366
 7312TIP3   OH243426   3.046   1.580  11.767  0.1262 -0.3854 -0.2662
 7312TIP3    H143427   3.078   1.669  11.749  1.5313 -1.0447 -1.1612
 7312TIP3    H243428   2.984   1.563  11.696 -0.8961  0.2200  0.4558
 7313TIP3   OH243429   5.625   4.410  14.617 -0.0934  0.3090  0.0474
 7313TIP3    H143430   5.599   4.334  14.669 -1.9934  0.2266 -0.9181
 7313TIP3    H243431   5.592   4.486  14.665 -0.9011  0.2981 -0.4625
 7314TIP3   OH243432   1.822   0.807   0.932  0.2695 -0.2028 -0.2954
 7314TIP3    H143433   1.894   0.861   0.900 -1.2603  3.0011  1.2726
 7314TIP3    H243434   1.752   0.821   0.869  0.3871 -1.9551 -0.8806
 7315TIP3   OH243435   0.077   5.613   2.824 -0.3719 -0.1747  0.0636
 7315TIP3    H143436   0.011   5.544   2.827 -0.8306  0.0921 -1.9981
 7315TIP3    H243437   0.130   5.600   2.902 -0.7617 -2.5418 -0.0018
 7316TIP3   OH243438   1.792   4.382  15.116 -0.1501 -0.1208  0.4246
 7316TIP3    H143439   1.885   4.402  15.107 -0.3558  0.3087 -1.0610
 7316TIP3    H243440   1.786   4.287  15.107  0.1687 -0.1859  0.8766
 7317TIP3   OH243441   1.406   0.384   5.453  0.0734 -0.0446  0.4705
 7317TIP3    H143442   1.481   0.424   5.410  0.0966 -0.2054  0.3631
 7317TIP3    H243443   1.331   0.410   5.400  0.1574 -0.6672  0.0361
 7318TIP3   OH243444   1.107   5.407  13.007 -0.1419 -0.4380 -0.1998
 7318TIP3    H143445   1.020   5.367  13.003 -0.6248  0.3193  1.5810
 7318TIP3    H243446   1.145   5.375  13.089  1.2830 -0.7797 -0.9694
 7319TIP3   OH243447   5.843   4.718  16.054 -0.6947 -0.0321 -0.0840
 7319TIP3    H143448   5.766   4.775  16.047 -2.3873 -2.1852  0.0537
 7319TIP3    H243449   5.883   4.742  16.138 -1.6155  0.6154  0.1866
 7320TIP3   OH243450   0.774   4.968   4.378 -0.1900 -0.2417  0.1854
 7320TIP3    H143451   0.812   5.029   4.315 -1.4227 -0.5615 -0.8874
 7320TIP3    H243452   0.706   4.921   4.330 -3.3773  1.6485  2.4825
 7321TIP3   OH243453   0.312   6.853  14.397  0.2431 -0.3829 -0.5118
 7321TIP3    H143454   0.394   6.803  14.401 -0.7830 -2.1011  0.1070
 7321TIP3    H243455   0.252   6.805  14.454 -0.5871  2.0374  0.7703
 7322TIP3   OH243456   1.566   4.020   4.905  0.4262  0.4434  0.3822
 7322TIP3    H143457   1.606   4.053   4.985  2.9748 -2.1916  0.3587
 7322TIP3    H243458   1.474   4.005   4.927  0.3120  2.7713  1.7601
 7323TIP3   OH243459   5.940   2.206  16.266  0.0739 -0.4085 -0.0948
 7323TIP3    H143460   5.989   2.285  16.291  1.3431 -1.4021  0.6792
 7323TIP3    H243461   6.002   2.155  16.214 -1.2308 -0.2537 -1.8937
 7324TIP3   OH243462   5.184   0.674  13.861  0.1427 -0.2585 -0.3223
 7324TIP3    H143463   5.247   0.692  13.791  0.4378  1.3075  0.3187
 7324TIP3    H243464   5.213   0.590  13.897  1.2112 -0.0878 -0.7452
 7325TIP3   OH243465   6.549   1.652  15.110 -0.4716  0.3815 -0.2433
 7325TIP3    H143466   6.537   1.705  15.189 -0.0623 -0.5066  0.4226
 7325TIP3    H243467   6.643   1.648  15.098 -0.3135 -2.3199  1.2226
 7326TIP3   OH243468   0.166   3.703  14.171 -0.1202 -0.1892  0.0760
 7326TIP3    H143469   0.207   3.782  14.207 -0.8356  0.6379 -0.8849
 7326TIP3    H243470   0.238   3.658  14.126  0.2542  0.0027  0.4713
 7327TIP3   OH243471   2.445   0.938   0.490 -0.4550 -0.0215 -0.2042
 7327TIP3    H143472   2.403   1.024   0.492  0.9560  0.6994 -0.0403
 7327TIP3    H243473   2.414   0.894   0.568 -2.3347 -0.2596 -1.0192
 7328TIP3   OH243474   0.108   4.500   1.781 -0.5585 -0.1991 -0.2274
 7328TIP3    H143475   0.166   4.452   1.840  0.4486  0.4809 -0.6380
 7328TIP3    H243476   0.030   4.517   1.834 -0.8531 -2.0378  0.0098
 7329TIP3   OH243477   1.611   4.822  11.094 -0.6581  0.3434 -0.4412
 7329TIP3    H143478   1.517   4.834  11.085 -0.8532 -0.6773  0.0559
 7329TIP3    H243479   1.636   4.772  11.016 -0.9370 -1.3531  0.5179
 7330TIP3   OH243480   0.060   4.560  14.946  0.0836 -0.5738  0.3632
 7330TIP3    H143481   0.059   4.500  14.872 -1.0273 -0.0960 -0.0328
 7330TIP3    H243482   0.017   4.512  15.017  1.8983 -1.3546  1.0093
 7331TIP3   OH243483   4.627   0.584   1.769 -0.3731 -0.6017  0.2858
 7331TIP3    H143484   4.646   0.634   1.689 -1.2039 -0.9333 -0.1351
 7331TIP3    H243485   4.708   0.588   1.819  0.1161 -0.2467 -0.5023
 7332TIP3   OH243486   0.998   5.615  11.666 -1.1024  0.4490  0.0073
 7332TIP3    H143487   1.080   5.568  11.655 -1.0903  0.2896  0.7632
 7332TIP3    H243488   1.020   5.692  11.718 -1.3634  0.6196 -0.1281
 7333TIP3   OH243489   1.513   5.304   6.420 -0.0145  0.0777 -0.0035
 7333TIP3    H143490   1.562   5.223   6.437  2.9624  1.6964 -0.1322
 7333TIP3    H243491   1.488   5.336   6.506  2.8922  1.2750  0.4940
 7334TIP3   OH243492   0.359   2.484  15.643  0.1336  0.5242 -0.4230
 7334TIP3    H143493   0.316   2.476  15.728 -2.0112  2.0481 -1.2667
 7334TIP3    H243494   0.335   2.404  15.596  0.5694  0.0963  0.0764
 7335TIP3   OH243495   1.803   4.213   5.630 -0.0873  0.1296  0.0487
 7335TIP3    H143496   1.804   4.162   5.711  0.9082 -0.5353 -0.3550
 7335TIP3    H243497   1.889   4.197   5.591 -0.1834  1.2321 -0.6559
 7336TIP3   OH243498   6.305   0.544   3.979  0.4190 -0.7620  0.5265
 7336TIP3    H143499   6.314   0.577   4.069 -0.6953  1.5245 -0.1226
 7336TIP3    H243500   6.212   0.554   3.960  0.7888 -0.3624 -1.1935
 7337TIP3   OH243501   4.697   0.977  14.004 -0.6486  0.6775  0.0515
 7337TIP3    H143502   4.648   0.895  13.997  0.8663 -0.2308 -0.4038
 7337TIP3    H243503   4.778   0.952  14.049  0.1300  1.7851 -0.6883
 7338TIP3   OH243504   5.823   5.954   5.947  0.0681 -0.5794  0.1827
 7338TIP3    H143505   5.882   5.962   5.872 -0.0748 -1.6164 -0.0470
 7338TIP3    H243506   5.745   6.005   5.923  0.3840 -0.1703  0.0110
 7339TIP3   OH243507   5.332   3.472   1.515 -0.3332  0.5033 -0.2164
 7339TIP3    H143508   5.305   3.517   1.595 -0.4897  0.1849 -0.0872
 7339TIP3    H243509   5.402   3.412   1.544 -0.0772  0.7151 -0.3982
 7340TIP3   OH243510   3.878   4.482  17.028  0.4192  0.3938  0.0408
 7340TIP3    H143511   3.936   4.438  17.091 -0.8355  0.7402  1.4852
 7340TIP3    H243512   3.798   4.498  17.077 -0.3136  1.3972 -1.4393
 7341TIP3   OH243513   1.606   4.536  15.257  0.1870 -0.2058  0.0677
 7341TIP3    H143514   1.607   4.510  15.349 -0.0866  0.4586  0.2575
 7341TIP3    H243515   1.677   4.484  15.218 -1.0842 -2.1149  0.1929
 7342TIP3   OH243516   1.204   4.856   1.076 -0.1229  0.1155  0.1365
 7342TIP3    H143517   1.124   4.811   1.100  1.0478 -2.0185  0.2537
 7342TIP3    H243518   1.264   4.787   1.049  1.9889  1.5314  0.9110
 7343TIP3   OH243519   1.575   5.611   4.319 -0.6909  0.3843  0.1479
 7343TIP3    H143520   1.607   5.624   4.229 -2.5591  0.6335 -0.5205
 7343TIP3    H243521   1.654   5.613   4.373  0.7356 -1.8899 -1.6751
 7344TIP3   OH243522   3.047   5.533   4.032 -0.6734  0.0130 -0.1833
 7344TIP3    H143523   3.022   5.449   3.994 -0.6841  0.3104 -0.8657
 7344TIP3    H243524   2.990   5.597   3.987 -1.2604  0.2964  0.9354
 7345TIP3   OH243525   1.597   0.821  10.801  0.0222 -0.4098  0.1255
 7345TIP3    H143526   1.692   0.810  10.811  0.3725  1.2099 -1.0857
 7345TIP3    H243527   1.560   0.774  10.875  1.8110 -0.5050  1.0131
 7346TIP3   OH243528   3.504   5.980   1.782 -0.2214  0.4404  0.0174
 7346TIP3    H143529   3.514   5.955   1.690  1.4864  1.4935 -0.1295
 7346TIP3    H243530   3.571   6.048   1.795 -1.3269  1.2696  1.6821
 7347TIP3   OH243531   6.790   0.979  10.751 -0.1262  0.6434  0.2229
 7347TIP3    H143532   6.869   0.946  10.794 -1.3131 -0.7642  1.4774
 7347TIP3    H243533   6.791   0.939  10.664 -0.1315 -0.5265  0.7341
 7348TIP3   OH243534   6.457   6.401   2.785 -0.6479 -0.1686 -0.0454
 7348TIP3    H143535   6.444   6.418   2.691 -1.1313  1.2628  0.2541
 7348TIP3    H243536   6.472   6.488   2.823  1.6946 -0.8947  0.9040
 7349TIP3   OH243537   2.865   1.498  13.608  0.3283  0.5072  0.7167
 7349TIP3    H143538   2.948   1.503  13.656  0.6718  0.0206  0.1876
 7349TIP3    H243539   2.844   1.404  13.607 -1.2776  0.7913  2.5965
 7350TIP3   OH243540   6.000   1.883   0.949  0.3275  0.0017  0.5666
 7350TIP3    H143541   5.928   1.924   0.900  1.5769  0.8013 -0.6594
 7350TIP3    H243542   6.010   1.797   0.909  1.4425  0.7102 -0.7347
 7351TIP3   OH243543   2.103   6.204  13.982 -0.2797 -0.5504 -0.0131
 7351TIP3    H143544   2.123   6.165  13.897 -1.3514 -2.1105  0.4049
 7351TIP3    H243545   2.121   6.134  14.045 -0.0554  0.3929  0.9989
 7352TIP3   OH243546   4.544   6.308  15.997 -0.7195  0.2144 -0.1974
 7352TIP3    H143547   4.523   6.221  16.031  0.3101 -0.1781 -0.5257
 7352TIP3    H243548   4.573   6.357  16.073 -0.7271  0.0830 -0.1085
 7353TIP3   OH243549   4.593   0.751   2.212  0.0040 -0.3090  0.1197
 7353TIP3    H143550   4.669   0.804   2.192  0.3584 -0.1088  1.8362
 7353TIP3    H243551   4.629   0.672   2.253 -0.7020 -0.2667  0.8373
 7354TIP3   OH243552   5.076   6.572   1.013 -0.0266 -0.4020  0.9019
 7354TIP3    H143553   5.091   6.533   1.100 -0.1604 -1.7343  0.3484
 7354TIP3    H243554   5.159   6.614   0.991  0.1325 -0.3790  1.5173
 7355TIP3   OH243555   2.539   0.685  15.789  0.0058 -0.0593  0.0726
 7355TIP3    H143556   2.465   0.658  15.734  0.8141 -0.2824 -0.9460
 7355TIP3    H243557   2.604   0.616  15.776  0.3520  0.0779  1.0396
 7356TIP3   OH243558   3.904   4.569   3.119 -0.4049 -0.4676  0.3633
 7356TIP3    H143559   3.818   4.573   3.158 -1.3175 -1.7503 -1.3576
 7356TIP3    H243560   3.958   4.521   3.182 -1.1013 -0.1882  1.1755
 7357TIP3   OH243561   6.278   0.259   4.271  0.8031 -0.4731  0.3541
 7357TIP3    H143562   6.284   0.243   4.176  1.3504 -2.0257  0.6190
 7357TIP3    H243563   6.245   0.348   4.278 -0.8725 -0.8960 -1.3177
 7358TIP3   OH243564   4.700   0.444   3.455 -0.4954  0.0014 -0.3296
 7358TIP3    H143565   4.658   0.525   3.428  1.0447  1.0468  0.2645
 7358TIP3    H243566   4.794   0.463   3.450 -0.1094 -0.8282  2.4408
 7359TIP3   OH243567   4.532   1.837   1.051  0.0043  0.3429  0.3513
 7359TIP3    H143568   4.626   1.841   1.070  0.4048 -1.0979 -1.1603
 7359TIP3    H243569   4.493   1.897   1.115  1.7879 -0.1085  1.9770
 7360TIP3   OH243570   1.295   5.142   3.675 -0.1246  0.6469 -0.2022
 7360TIP3    H143571   1.263   5.088   3.747  0.0229  4.8990  3.5051
 7360TIP3    H243572   1.388   5.121   3.669 -0.1705  0.1277  0.7530
 7361TIP3   OH243573   0.310   2.216   5.399 -0.3829  0.2214  0.2968
 7361TIP3    H143574   0.307   2.126   5.367 -1.4383  0.4646 -0.3339
 7361TIP3    H243575   0.376   2.259   5.345 -0.5330  0.0529 -0.0220
 7362TIP3   OH243576   4.121   4.585   1.815  0.5261  0.1592 -0.1255
 7362TIP3    H143577   4.063   4.650   1.855 -0.7535 -0.7071 -0.5301
 7362TIP3    H243578   4.062   4.521   1.775  1.7646 -0.8784 -0.3529
 7363TIP3   OH243579   4.754   0.754  11.297 -0.2304  0.0900  0.2440
 7363TIP3    H143580   4.703   0.735  11.218  1.3633 -0.5198 -0.6804
 7363TIP3    H243581   4.818   0.820  11.269 -1.3388  1.9258  1.7346
 7364TIP3   OH243582   3.377   2.732   1.584 -0.1543  0.2693 -0.5190
 7364TIP3    H143583   3.428   2.709   1.507 -0.5506 -0.8680 -0.4635
 7364TIP3    H243584   3.420   2.810   1.619 -0.1629  1.0024 -2.0557
 7365TIP3   OH243585   1.076   6.757   3.332 -0.4556 -0.2145 -0.1085
 7365TIP3    H143586   1.075   6.791   3.242 -2.4583  0.7217  0.2075
 7365TIP3    H243587   1.169   6.757   3.356  0.0584  0.2476 -1.8992
 7366TIP3   OH243588   4.535   4.730   5.416 -0.0510  0.0636  0.3973
 7366TIP3    H143589   4.480   4.719   5.494 -0.4789  1.9935  0.4083
 7366TIP3    H243590   4.473   4.739   5.344  0.3416 -2.6359 -0.4024
 7367TIP3   OH243591   3.039   3.130   5.809 -0.3161 -0.0677  0.0297
 7367TIP3    H143592   3.129   3.144   5.837 -0.8612  0.7705  1.4727
 7367TIP3    H243593   2.990   3.203   5.848 -1.7156 -0.8683 -0.1575
 7368TIP3   OH243594   1.972   1.766  14.871  0.6353 -0.5101 -0.4153
 7368TIP3    H143595   1.923   1.713  14.933  1.6964  0.8312  1.6650
 7368TIP3    H243596   2.014   1.702  14.813  1.7759 -2.0029  1.9313
 7369TIP3   OH243597   2.187   1.175  12.697 -0.4305  0.3396  0.5854
 7369TIP3    H143598   2.240   1.107  12.654 -0.3407  2.1768 -2.5542
 7369TIP3    H243599   2.252   1.232  12.738 -0.2818  0.2853  0.4299
 7370TIP3   OH243600   4.855   1.498   1.898  0.4868  0.0357 -0.0383
 7370TIP3    H143601   4.817   1.477   1.984  1.9205  0.5509  0.7599
 7370TIP3    H243602   4.786   1.545   1.852 -0.5497 -0.8432  0.5599
 7371TIP3   OH243603   2.797   0.330   4.529 -0.0512  0.1554 -0.0259
 7371TIP3    H143604   2.767   0.376   4.608  0.6212 -0.4566  0.6067
 7371TIP3    H243605   2.727   0.341   4.466 -0.8294  0.2273  0.8364
 7372TIP3   OH243606   5.556   6.271   0.162  0.6264 -0.0010  0.0844
 7372TIP3    H143607   5.553   6.366   0.173 -0.8383 -0.0827  0.6586
 7372TIP3    H243608   5.557   6.237   0.251 -0.2999 -0.5243 -0.0886
 7373TIP3   OH243609   5.536   6.005   3.480 -0.4457 -0.1114 -0.3405
 7373TIP3    H143610   5.617   6.015   3.530 -1.7164 -0.5490  1.9314
 7373TIP3    H243611   5.548   6.061   3.404  1.2539  1.3020  0.8874
 7374TIP3   OH243612   3.225   2.305   4.340 -0.2301 -0.0112 -0.0484
 7374TIP3    H143613   3.269   2.348   4.413  1.2784 -1.8897  0.2292
 7374TIP3    H243614   3.203   2.376   4.280 -2.1435  1.6924  2.4790
 7375TIP3   OH243615   2.208   5.965  15.534  0.1624 -0.0062 -0.6754
 7375TIP3    H143616   2.115   5.940  15.534 -0.1657  1.1318 -1.1700
 7375TIP3    H243617   2.248   5.909  15.468 -0.2575 -0.2228 -0.7498
 7376TIP3   OH243618   6.325   3.164   6.301  0.0686 -0.0414  0.7355
 7376TIP3    H143619   6.385   3.099   6.265  0.1064 -0.2647  1.1973
 7376TIP3    H243620   6.359   3.248   6.271  1.0756 -0.1038  1.6664
 7377TIP3   OH243621   2.073   4.896   6.642  0.3162 -0.0870 -0.9393
 7377TIP3    H143622   2.019   4.963   6.598  0.2367 -1.3207 -2.8454
 7377TIP3    H243623   2.163   4.921   6.622  0.5479  1.5648  1.6426
 7378TIP3   OH243624   5.622   6.458  14.437  0.0900  0.0753 -0.0516
 7378TIP3    H143625   5.603   6.402  14.513  2.5806  0.1403  0.6938
 7378TIP3    H243626   5.648   6.541  14.475 -2.1984  1.3671 -1.1312
 7379TIP3   OH243627   2.204   5.547   2.288  0.0638  0.0681  0.2438
 7379TIP3    H143628   2.177   5.474   2.233  1.7669 -0.0158 -0.5512
 7379TIP3    H243629   2.207   5.622   2.228 -0.2339  0.4695  0.7231
 7380TIP3   OH243630   6.413   2.940   2.415 -0.4575 -0.7320  0.2585
 7380TIP3    H143631   6.447   2.927   2.504 -1.3869 -1.1275  0.5637
 7380TIP3    H243632   6.351   3.012   2.423 -1.0613 -1.2247  0.0698
 7381TIP3   OH243633   6.691   0.877  12.770  0.4006 -0.5989 -0.0825
 7381TIP3    H143634   6.764   0.933  12.797  0.5842 -0.9206  0.1039
 7381TIP3    H243635   6.678   0.818  12.844 -1.6332  0.9717  0.8947
 7382TIP3   OH243636   2.890   3.551  10.959 -0.2278 -0.2006 -0.4374
 7382TIP3    H143637   2.950   3.511  11.021 -0.4190 -0.9060 -0.6955
 7382TIP3    H243638   2.940   3.556  10.877  1.0985  3.4449  0.3948
 7383TIP3   OH243639   2.505   1.985  15.710  0.3261  0.6556 -0.2367
 7383TIP3    H143640   2.433   2.020  15.763 -0.7103 -0.6916 -0.6850
 7383TIP3    H243641   2.569   2.056  15.706 -1.0818  1.9915 -0.0189
 7384TIP3   OH243642   2.032   2.925  15.659 -0.1738  0.2734 -0.3671
 7384TIP3    H143643   2.111   2.922  15.714  1.1510 -0.8595 -2.1812
 7384TIP3    H243644   1.998   2.835  15.661 -0.7220  0.4731 -0.5382
 7385TIP3   OH243645   1.507   2.508   2.002 -0.4520  0.1025 -0.1583
 7385TIP3    H143646   1.536   2.577   1.943 -0.2374 -0.2600 -0.4807
 7385TIP3    H243647   1.413   2.523   2.011 -0.4905  0.1570 -0.6005
 7386TIP3   OH243648   3.528   1.524  14.248 -0.0668  0.3583 -0.0109
 7386TIP3    H143649   3.567   1.535  14.335  0.9184  1.1333 -0.5265
 7386TIP3    H243650   3.434   1.520  14.264  0.0290  1.5472  1.0111
 7387TIP3   OH243651   3.127   5.375   0.409 -0.5076  0.5381 -0.2055
 7387TIP3    H143652   3.041   5.399   0.444 -0.5268  0.2202 -0.0330
 7387TIP3    H243653   3.152   5.296   0.458 -0.3828  0.2866 -0.6733
 7388TIP3   OH243654   3.179   6.445   1.917  0.4643  0.1236  0.8710
 7388TIP3    H143655   3.227   6.502   1.857 -0.7895  0.4878  0.1789
 7388TIP3    H243656   3.143   6.376   1.862  0.1488 -0.1089  1.3592
 7389TIP3   OH243657   1.252   0.705   5.551 -0.5149 -0.0479 -0.0906
 7389TIP3    H143658   1.313   0.779   5.554 -0.4369 -0.0505 -1.1693
 7389TIP3    H243659   1.276   0.651   5.626 -0.4558  0.9269  0.6056
 7390TIP3   OH243660   1.994   3.175  13.237  0.0097 -0.4563 -0.2792
 7390TIP3    H143661   1.960   3.149  13.323  0.1543 -2.1922 -0.6986
 7390TIP3    H243662   2.032   3.261  13.250 -0.1709 -0.6040  1.3467
 7391TIP3   OH243663   6.726   1.401  13.360  0.5840  0.1208 -0.0665
 7391TIP3    H143664   6.737   1.429  13.269 -0.2026  0.2120 -0.1367
 7391TIP3    H243665   6.665   1.328  13.355  2.9761 -2.0305  0.0544
 7392TIP3   OH243666   5.386   3.900  11.128 -0.0666  0.0856 -0.2072
 7392TIP3    H143667   5.343   3.983  11.151 -1.1512  0.2745 -2.6914
 7392TIP3    H243668   5.323   3.855  11.072  1.3253 -1.5367 -0.5285
 7393TIP3   OH243669   1.242   6.654  13.235 -0.3206  0.7402  0.0043
 7393TIP3    H143670   1.258   6.701  13.317 -0.7690 -0.0666  0.5760
 7393TIP3    H243671   1.147   6.638  13.235 -0.0087 -1.4182  0.5752
 7394TIP3   OH243672   0.822   1.567   0.166  0.7448 -0.2655 -0.0749
 7394TIP3    H143673   0.777   1.576   0.082  1.2819 -1.5351 -0.5216
 7394TIP3    H243674   0.769   1.504   0.215 -0.0555  1.1124  0.9216
 7395TIP3   OH243675   1.222   5.388   4.001  0.7511  0.3775  0.3161
 7395TIP3    H143676   1.206   5.375   3.908  2.5035  1.7517 -0.2342
 7395TIP3    H243677   1.147   5.439   4.032 -0.5975 -1.3805  0.0352
 7396TIP3   OH243678   4.372   0.891  16.727  0.1502  0.0026  0.2890
 7396TIP3    H143679   4.358   0.972  16.776 -0.9030  1.1117 -1.7169
 7396TIP3    H243680   4.466   0.891  16.708  0.4154 -0.0029  1.4989
 7397TIP3   OH243681   1.752   3.279  11.663  0.4645 -0.4299  0.2140
 7397TIP3    H143682   1.660   3.258  11.644  0.3748  0.2682 -0.1355
 7397TIP3    H243683   1.750   3.368  11.697  0.9478 -0.6370  0.8072
 7398TIP3   OH243684   3.392   2.336   5.304 -0.0941 -0.4891  0.0906
 7398TIP3    H143685   3.472   2.286   5.325  0.3308  0.8285  1.8042
 7398TIP3    H243686   3.329   2.310   5.371 -0.9722 -1.1353 -0.9542
 7399TIP3   OH243687   1.411   0.770  12.741  0.2312  0.1855  0.4592
 7399TIP3    H143688   1.346   0.722  12.792 -0.5963  1.4430  0.6547
 7399TIP3    H243689   1.493   0.723  12.755 -0.7125 -1.7313 -0.1963
 7400TIP3   OH243690   5.221   0.013   0.414  0.2359  0.0661  0.2050
 7400TIP3    H143691   5.272   0.052   0.485  0.0903 -0.8351  0.8196
 7400TIP3    H243692   5.192  -0.071   0.449  1.3319 -1.0238 -1.4040
 7401TIP3   OH243693   3.452   6.735   1.993 -0.2508  0.8705 -0.5292
 7401TIP3    H143694   3.531   6.746   1.941 -0.1298 -1.4606 -0.9655
 7401TIP3    H243695   3.380   6.752   1.933 -0.1040 -1.3911 -1.4516
 7402TIP3   OH243696   0.450   5.613  15.417 -0.5485 -0.0814 -0.0441
 7402TIP3    H143697   0.373   5.630  15.471 -0.1616 -1.1966  0.8880
 7402TIP3    H243698   0.439   5.522  15.388  0.5421 -0.3454  0.3187
 7403TIP3   OH243699   3.314   5.255  13.686 -0.1323 -0.0350 -0.2317
 7403TIP3    H143700   3.274   5.223  13.604 -1.1605 -0.9880  0.6077
 7403TIP3    H243701   3.318   5.350  13.675 -3.7888  0.3112  0.0584
 7404TIP3   OH243702   2.461   4.814   5.557 -0.6619 -0.2811 -0.5479
 7404TIP3    H143703   2.518   4.770   5.494  0.7244  0.6046  0.0389
 7404TIP3    H243704   2.519   4.838   5.629 -1.4692  2.0188 -0.5972
 7405TIP3   OH243705   5.683   2.043   6.848 -0.2379  0.6090 -0.2008
 7405TIP3    H143706   5.637   2.002   6.774 -0.3761  0.0647  0.1843
 7405TIP3    H243707   5.776   2.033   6.827 -0.2680 -0.0207 -0.0483
 7406TIP3   OH243708   1.082   5.263   3.489  0.1071  0.3454 -0.9943
 7406TIP3    H143709   1.161   5.227   3.529 -1.3514 -0.0886  1.7550
 7406TIP3    H243710   1.042   5.189   3.443 -0.9560 -0.7255  1.4819
 7407TIP3   OH243711   5.533   6.121  15.198 -0.0427  0.2478 -0.5947
 7407TIP3    H143712   5.535   6.131  15.103  0.0966  0.3086 -0.5845
 7407TIP3    H243713   5.611   6.068  15.219 -0.2145  0.0110 -0.5420
 7408TIP3   OH243714   5.264   2.798   0.126  0.0355  0.1579 -1.0088
 7408TIP3    H143715   5.351   2.831   0.148  0.1385 -0.8043  0.1553
 7408TIP3    H243716   5.274   2.702   0.127 -0.8553  0.0467 -1.6563
 7409TIP3   OH243717   1.438   2.700  13.164 -0.5479 -0.0939  0.0411
 7409TIP3    H143718   1.516   2.652  13.137 -0.5327  0.5361 -1.0876
 7409TIP3    H243719   1.451   2.788  13.129 -2.8227 -0.5745 -2.2417
 7410TIP3   OH243720   6.079   5.734   2.039  0.4875  0.0274 -0.3153
 7410TIP3    H143721   6.006   5.672   2.047 -0.1792  0.7528 -0.5909
 7410TIP3    H243722   6.088   5.771   2.127 -0.6109  1.1532 -0.6413
 7411TIP3   OH243723   3.454   1.151  16.764 -0.0229 -0.7335 -0.1536
 7411TIP3    H143724   3.359   1.144  16.772  0.0101  0.1320  1.1677
 7411TIP3    H243725   3.484   1.061  16.748 -1.0721 -0.9668 -0.9016
 7412TIP3   OH243726   3.430   2.679   4.094  0.2986 -0.4028  0.6711
 7412TIP3    H143727   3.407   2.667   4.186  1.4640  1.1923  1.2195
 7412TIP3    H243728   3.507   2.623   4.081  0.5148 -0.1448  0.8411
 7413TIP3   OH243729   5.683   4.449  12.477 -0.1781 -0.1503 -0.2558
 7413TIP3    H143730   5.753   4.433  12.414  0.1672  0.1824  0.0330
 7413TIP3    H243731   5.649   4.362  12.498 -0.4424 -0.2407 -1.0596
 7414TIP3   OH243732   1.533   2.744   1.840 -0.9306 -0.0290  0.1825
 7414TIP3    H143733   1.610   2.694   1.812 -0.8278  0.0718  0.2833
 7414TIP3    H243734   1.535   2.823   1.785 -0.2782  0.5532  1.0093
 7415TIP3   OH243735   4.033   6.572  14.110 -0.1167  0.1303  0.6179
 7415TIP3    H143736   4.098   6.505  14.090  0.8790  1.2141  0.1487
 7415TIP3    H243737   3.966   6.525  14.161  0.5837 -1.1903  0.3710
 7416TIP3   OH243738   3.145   1.780   2.843 -0.1403 -0.1385 -0.1828
 7416TIP3    H143739   3.122   1.801   2.753 -0.6002 -0.7208 -0.2079
 7416TIP3    H243740   3.084   1.831   2.897  1.2401  1.5619 -0.1325
 7417TIP3   OH243741   5.892   0.712  10.501 -0.0536 -0.1899 -0.3706
 7417TIP3    H143742   5.965   0.666  10.543  0.9480  1.1986 -0.5518
 7417TIP3    H243743   5.814   0.669  10.537  0.7924 -0.1243  1.7099
 7418TIP3   OH243744   3.690   5.613  10.589  0.3464 -0.3203  0.6062
 7418TIP3    H143745   3.782   5.589  10.601 -0.5229 -2.5618  3.8755
 7418TIP3    H243746   3.686   5.705  10.613  1.9091  0.2830 -1.1602
 7419TIP3   OH243747   1.915   5.765   4.248 -0.4165  0.0170 -0.3967
 7419TIP3    H143748   1.992   5.805   4.289 -1.3824  0.4936  0.9982
 7419TIP3    H243749   1.843   5.825   4.267 -1.3895 -1.0691 -0.5504
 7420TIP3   OH243750   3.538   0.908  16.695 -0.4842  0.0367  0.4002
 7420TIP3    H143751   3.513   0.824  16.658  1.7014 -0.5887  0.1654
 7420TIP3    H243752   3.589   0.886  16.773  0.3188  1.1053  0.2119
 7421TIP3   OH243753   5.876   2.649   1.838  0.0867 -0.2679  0.4208
 7421TIP3    H143754   5.805   2.617   1.782 -3.1193  0.7612  3.5223
 7421TIP3    H243755   5.929   2.572   1.857 -0.5339 -1.2130 -1.4857
 7422TIP3   OH243756   1.538   0.981   5.310  0.3882 -0.2253  0.2302
 7422TIP3    H143757   1.514   0.990   5.402  2.1054 -1.6700  0.8757
 7422TIP3    H243758   1.454   0.983   5.263 -0.9006 -2.9907  2.1464
 7423TIP3   OH243759   3.968   2.990   0.503  0.2463  0.3278 -0.3426
 7423TIP3    H143760   4.014   3.073   0.498  1.8370 -0.3791  1.4676
 7423TIP3    H243761   4.006   2.936   0.434  0.0039  0.7084 -0.7796
 7424TIP3   OH243762   0.235   4.851  16.550 -1.1236 -0.0468  0.0262
 7424TIP3    H143763   0.144   4.879  16.562 -1.6815 -1.2366 -1.1666
 7424TIP3    H243764   0.232   4.756  16.560  0.2522  0.0190  1.3523
 7425TIP3   OH243765   1.137   1.269  15.938 -0.3425 -0.3458  0.2675
 7425TIP3    H143766   1.095   1.235  15.859 -0.7115  0.9838 -0.1383
 7425TIP3    H243767   1.111   1.361  15.941  0.6753 -0.0696  1.2717
 7426TIP3   OH243768   2.797   5.713  11.004  0.6253  0.8865 -0.5712
 7426TIP3    H143769   2.839   5.793  10.973  4.7380 -0.2777  1.2513
 7426TIP3    H243770   2.846   5.642  10.962  0.1495 -0.6204  1.2616
 7427TIP3   OH243771   0.278   4.560  16.236  0.2275  0.4867  0.1125
 7427TIP3    H143772   0.368   4.528  16.237  0.2190  0.4550  1.1479
 7427TIP3    H243773   0.268   4.603  16.151  1.8625  2.2889  0.7480
 7428TIP3   OH243774   6.577   5.260  11.789  0.2505 -0.3105 -0.1733
 7428TIP3    H143775   6.521   5.199  11.837 -1.0246 -0.5102 -1.8231
 7428TIP3    H243776   6.516   5.311  11.736  1.3312  1.9910  0.6504
 7429TIP3   OH243777   2.600   5.223  14.121 -0.5800  0.4998 -0.1800
 7429TIP3    H143778   2.618   5.315  14.103  0.2601  0.5396  0.7854
 7429TIP3    H243779   2.611   5.214  14.216 -2.1501 -0.2704 -0.0299
 7430TIP3   OH243780   2.453   4.844   2.177 -0.1980 -0.2211 -0.2761
 7430TIP3    H143781   2.372   4.895   2.173 -0.5276 -0.8113 -1.4985
 7430TIP3    H243782   2.462   4.806   2.089  1.7512  0.3799 -0.3900
 7431TIP3   OH243783   5.792   0.276  16.721 -0.1528  0.3823 -0.3642
 7431TIP3    H143784   5.887   0.280  16.722 -0.0359 -0.4129 -2.4617
 7431TIP3    H243785   5.764   0.332  16.793  1.8709  2.0141 -0.7795
 7432TIP3   OH243786   5.845   2.442   5.888  0.2048  0.6145 -0.0094
 7432TIP3    H143787   5.768   2.385   5.889  0.4916 -0.0235  4.4693
 7432TIP3    H243788   5.919   2.382   5.893  0.8445  1.3174 -0.7054
 7433TIP3   OH243789   4.889   6.595  12.477 -0.1986  0.3004 -0.0947
 7433TIP3    H143790   4.953   6.582  12.547 -0.1944 -0.9835 -0.3184
 7433TIP3    H243791   4.939   6.589  12.396 -0.0069  2.8465 -0.2667
 7434TIP3   OH243792   0.641   3.341  14.642 -0.1475 -0.0720 -0.1989
 7434TIP3    H143793   0.678   3.347  14.554  0.4778 -0.9671 -0.0089
 7434TIP3    H243794   0.556   3.300  14.629 -0.4822  0.6905 -0.4832
 7435TIP3   OH243795   2.232   0.476  15.116 -0.7023 -0.2868  0.1270
 7435TIP3    H143796   2.173   0.531  15.168 -1.7191 -2.8077  1.8326
 7435TIP3    H243797   2.174   0.412  15.075  0.6622 -2.0291  0.7866
 7436TIP3   OH243798   0.649   3.024  15.056  0.6026  0.2605 -0.3710
 7436TIP3    H143799   0.682   3.073  15.131 -0.5482  0.9608 -0.2992
 7436TIP3    H243800   0.600   2.951  15.093  0.6604  0.1845 -0.4452
 7437TIP3   OH243801   3.860   5.257  15.911  0.1024  0.2503 -0.1925
 7437TIP3    H143802   3.945   5.275  15.951 -0.8939 -0.7275  2.5732
 7437TIP3    H243803   3.799   5.314  15.958 -0.7134  1.8576 -2.9739
 7438TIP3   OH243804   6.310   1.345   4.163 -0.5440  0.0942 -0.0714
 7438TIP3    H143805   6.226   1.307   4.186 -0.6910  0.6737  0.3871
 7438TIP3    H243806   6.311   1.430   4.208  1.2107 -0.8310  1.8130
 7439TIP3   OH243807   1.120   2.797   2.352 -0.3146  0.9367  0.4969
 7439TIP3    H143808   1.133   2.766   2.442 -1.3173 -2.4037 -0.3562
 7439TIP3    H243809   1.026   2.784   2.336  0.0363  0.4567 -1.3496
 7440TIP3   OH243810   3.458   0.865   0.590  0.3795  0.7079  0.2541
 7440TIP3    H143811   3.478   0.782   0.635 -1.5168  1.3674  2.5283
 7440TIP3    H243812   3.540   0.914   0.592  1.2355 -0.6316 -0.1309
 7441TIP3   OH243813   6.467   3.727   4.411  0.0725 -0.8802  0.1803
 7441TIP3    H143814   6.405   3.732   4.484 -0.1947  0.4884 -0.1242
 7441TIP3    H243815   6.520   3.650   4.431  1.0230  0.2916  2.6635
 7442TIP3   OH243816   4.269   5.471   0.203  0.1984 -0.3120  0.3487
 7442TIP3    H143817   4.190   5.462   0.151  0.0614 -0.0288  0.5086
 7442TIP3    H243818   4.266   5.560   0.238  1.1425  0.1072 -0.5611
 7443TIP3   OH243819   1.570   2.318  14.431  0.3924  0.0895  0.3021
 7443TIP3    H143820   1.662   2.332  14.452  0.1092  1.2314  0.8229
 7443TIP3    H243821   1.528   2.403  14.443 -0.6896 -0.3407 -0.1967
 7444TIP3   OH243822   6.139   5.436  13.277  0.0997  0.3231 -0.0556
 7444TIP3    H143823   6.127   5.497  13.205  1.1951  0.6463  0.0314
 7444TIP3    H243824   6.146   5.492  13.355  1.9794  0.1746 -0.0731
 7445TIP3   OH243825   3.661   5.743   1.578  0.4081  0.5052  0.1038
 7445TIP3    H143826   3.655   5.836   1.558  1.2892  0.8833  1.4942
 7445TIP3    H243827   3.594   5.703   1.523 -0.3398  2.0172 -0.1449
 7446TIP3   OH243828   5.078   5.861   0.670  0.5029  0.3421 -0.1382
 7446TIP3    H143829   5.099   5.804   0.745 -2.0026 -0.6023 -0.0485
 7446TIP3    H243830   5.138   5.834   0.602  2.3299  0.6774  1.2618
 7447TIP3   OH243831   4.525   0.341  14.189 -0.0271 -0.2668 -0.3089
 7447TIP3    H143832   4.589   0.274  14.218 -0.8295 -0.1388  1.9766
 7447TIP3    H243833   4.579   0.410  14.152  0.9854 -1.2174 -0.6883
 7448TIP3   OH243834   5.473   3.105  15.305  0.1607  0.5940  0.1701
 7448TIP3    H143835   5.437   3.148  15.383 -0.9898  0.2870 -0.1692
 7448TIP3    H243836   5.565   3.091  15.326  0.3805  2.4610  0.6153
 7449TIP3   OH243837   5.144   0.984  12.206 -0.2056 -0.1980 -0.3757
 7449TIP3    H143838   5.058   0.992  12.247 -0.9096 -1.1738 -1.5530
 7449TIP3    H243839   5.143   1.050  12.137  0.0331 -0.1400 -0.3222
 7450TIP3   OH243840   6.201   0.682  14.346 -0.4524  0.1152 -0.8503
 7450TIP3    H143841   6.198   0.676  14.250  0.3796  1.6963 -1.0102
 7450TIP3    H243842   6.173   0.772  14.365 -1.5926 -0.4952  0.4762
 7451TIP3   OH243843   2.598   0.045   0.549  0.0484 -0.2969 -0.1958
 7451TIP3    H143844   2.525   0.105   0.563  0.8278  1.1078 -1.8292
 7451TIP3    H243845   2.563  -0.023   0.491  0.2637  0.8957 -1.7570
 7452TIP3   OH243846   5.623   0.684  14.045 -0.2338 -0.4183 -0.2380
 7452TIP3    H143847   5.584   0.642  14.122  1.4271 -0.7858  0.4356
 7452TIP3    H243848   5.715   0.658  14.048  0.6789  2.4839 -0.3279
 7453TIP3   OH243849   4.352   4.301  13.556 -0.2544  0.0970 -0.0593
 7453TIP3    H143850   4.354   4.395  13.538 -1.4299  0.8914  3.1461
 7453TIP3    H243851   4.272   4.270  13.513 -1.1555  1.1503  0.7684
 7454TIP3   OH243852   2.922   2.094   3.342 -0.0557 -0.3257 -0.4572
 7454TIP3    H143853   2.922   2.141   3.426 -1.1801  1.0486 -1.1805
 7454TIP3    H243854   2.936   2.003   3.365 -0.1644  0.0530  1.2172
 7455TIP3   OH243855   1.387   6.561   5.640  0.1088  0.3453  0.4663
 7455TIP3    H143856   1.294   6.542   5.649  0.3027 -0.8132  0.2501
 7455TIP3    H243857   1.411   6.608   5.720 -0.6752  0.7120  0.4863
 7456TIP3   OH243858   2.748   6.274   1.651 -0.0981 -0.0050  0.0946
 7456TIP3    H143859   2.760   6.194   1.599  0.2660  0.9873 -1.3914
 7456TIP3    H243860   2.654   6.290   1.649 -0.3283 -1.0112  1.3931
 7457TIP3   OH243861   5.846   6.771  14.766  0.0098 -0.0104 -0.2253
 7457TIP3    H143862   5.915   6.764  14.700  0.3567  0.4317  0.0814
 7457TIP3    H243863   5.891   6.806  14.843 -0.3344 -0.7885  0.3400
 7458TIP3   OH243864   6.560   4.468   5.519  0.1828  0.1708  0.4694
 7458TIP3    H143865   6.577   4.561   5.533 -2.0337  0.6735  0.2145
 7458TIP3    H243866   6.480   4.451   5.568 -1.8870 -0.5204 -2.8566
 7459TIP3   OH243867   5.075   5.396   0.747  0.4858  0.0898  0.1725
 7459TIP3    H143868   5.127   5.406   0.667  0.9945 -0.5037  0.4266
 7459TIP3    H243869   4.998   5.347   0.719  1.8744 -2.4547  0.5017
 7460TIP3   OH243870   5.906   4.988  13.760 -0.1763  0.3396 -0.0530
 7460TIP3    H143871   5.957   4.929  13.705 -0.1885  1.3931 -1.2428
 7460TIP3    H243872   5.867   5.050  13.698 -0.6405  1.2250  1.1015
 7461TIP3   OH243873   3.424   3.102   3.787  0.0591  0.0906  0.7139
 7461TIP3    H143874   3.424   3.179   3.845  0.6126  1.1065 -0.5671
 7461TIP3    H243875   3.430   3.139   3.699  2.6609 -1.4628  0.1316
 7462TIP3   OH243876   2.655   2.296   1.729  0.5005 -0.3015  0.4938
 7462TIP3    H143877   2.628   2.228   1.667 -0.4422 -0.1259  0.7005
 7462TIP3    H243878   2.588   2.363   1.722  1.7181  0.9103 -0.1367
 7463TIP3   OH243879   3.393   2.102  13.122  0.0569 -0.1090 -0.3163
 7463TIP3    H143880   3.424   2.052  13.048  1.0357  1.3789 -0.9570
 7463TIP3    H243881   3.371   2.036  13.188 -0.5537 -1.4447 -1.7839
 7464TIP3   OH243882   6.349   5.555  11.823 -0.0765 -0.2385 -0.2406
 7464TIP3    H143883   6.297   5.627  11.860  0.2322 -0.5512  0.8424
 7464TIP3    H243884   6.339   5.564  11.728 -0.0214  1.2503 -0.1302
 7465TIP3   OH243885   6.408   2.744  16.771  0.8018 -0.3306  0.1547
 7465TIP3    H143886   6.421   2.770  16.679 -1.1293  1.3238  0.2872
 7465TIP3    H243887   6.348   2.670  16.766  0.8066 -0.3300  0.0718
 7466TIP3   OH243888   4.369   4.360   0.303  0.2292 -0.1337 -0.6136
 7466TIP3    H143889   4.444   4.410   0.334  0.9159 -0.9985 -0.8445
 7466TIP3    H243890   4.384   4.349   0.209  0.3704 -1.2349 -0.4714
 7467TIP3   OH243891   4.193   1.822   5.311  0.6234  0.1010 -0.1659
 7467TIP3    H143892   4.147   1.869   5.381  1.0169  1.3588 -0.7035
 7467TIP3    H243893   4.245   1.890   5.268  0.1051 -0.5594 -1.9248
 7468TIP3   OH243894   3.323   6.147   6.330  0.3326 -0.3636  0.1733
 7468TIP3    H143895   3.273   6.161   6.250  0.0229  0.5805  0.5180
 7468TIP3    H243896   3.257   6.142   6.399  0.6865  1.2260  0.6817
 7469TIP3   OH243897   6.187   1.305  12.865  0.2118  0.0770  0.1658
 7469TIP3    H143898   6.282   1.293  12.871  0.5203  2.0392 -0.0532
 7469TIP3    H243899   6.176   1.395  12.834 -1.7326  0.2129  1.0756
 7470TIP3   OH243900   6.099   4.647  16.376  0.1731 -0.0201 -0.1271
 7470TIP3    H143901   6.081   4.555  16.397  0.8300 -0.4192 -1.1794
 7470TIP3    H243902   6.194   4.655  16.385  0.6279 -0.4148 -3.3768
 7471TIP3   OH243903   6.760   2.626  13.994  0.3165 -0.1404  0.2934
 7471TIP3    H143904   6.832   2.651  13.935  0.4601  2.0574  1.3085
 7471TIP3    H243905   6.699   2.699  13.989 -2.9100 -2.6999 -1.9515
 7472TIP3   OH243906   4.727   5.678  14.264 -0.5749  0.2064 -0.3488
 7472TIP3    H143907   4.817   5.665  14.292 -0.5604  0.4326 -0.2814
 7472TIP3    H243908   4.676   5.679  14.346 -0.7099 -0.4590 -0.4242
 7473TIP3   OH243909   3.575   2.739  12.330 -0.1844 -0.2279 -0.0998
 7473TIP3    H143910   3.668   2.760  12.341 -0.5331  0.4682  1.7840
 7473TIP3    H243911   3.547   2.795  12.258  1.0458 -1.1779 -1.3894
 7474TIP3   OH243912   4.812   2.717  12.476 -0.7620  0.7733  0.3335
 7474TIP3    H143913   4.902   2.747  12.489 -0.5507  0.8466 -1.1441
 7474TIP3    H243914   4.821   2.624  12.452 -1.1766  0.4366  1.4391
 7475TIP3   OH243915   3.203   6.302  16.788 -0.0518  0.2411  0.4747
 7475TIP3    H143916   3.191   6.342  16.874 -0.0220 -1.4716  1.3002
 7475TIP3    H243917   3.118   6.264  16.767  0.6922 -1.8966  1.1152
 7476TIP3   OH243918   2.517   5.092  12.156  0.2259 -0.3017  0.4842
 7476TIP3    H143919   2.446   5.072  12.217 -1.0143 -0.7855 -1.0303
 7476TIP3    H243920   2.593   5.048  12.193 -0.0947  0.6383  2.4203
 7477TIP3   OH243921   2.632   5.928  12.332 -0.0953  0.1921 -0.6196
 7477TIP3    H143922   2.722   5.933  12.364 -0.1349 -1.7062 -0.0575
 7477TIP3    H243923   2.579   5.913  12.411 -0.7712  0.2135 -1.0536
 7478TIP3   OH243924   0.768   2.389  12.784  0.0853  0.1537  0.4671
 7478TIP3    H143925   0.763   2.431  12.699  0.0222  0.2821  0.5347
 7478TIP3    H243926   0.824   2.446  12.836  0.2993 -0.0358  0.4465
 7479TIP3   OH243927   2.252   1.481  13.220 -0.4180 -0.2125 -0.4617
 7479TIP3    H143928   2.320   1.486  13.152 -1.1252  0.0962 -1.1645
 7479TIP3    H243929   2.297   1.442  13.295  0.4779 -0.2336 -0.9839
 7480TIP3   OH243930   0.396   6.367  14.925 -0.3257  0.7155 -0.5889
 7480TIP3    H143931   0.314   6.417  14.927 -0.0376  1.1922  1.4470
 7480TIP3    H243932   0.427   6.368  15.015  0.6838 -1.5684 -0.8517
 7481TIP3   OH243933   3.317   6.138  13.122 -0.0830 -0.2405 -0.7700
 7481TIP3    H143934   3.369   6.219  13.127 -0.4662 -0.0616  1.8107
 7481TIP3    H243935   3.379   6.069  13.143 -0.0398 -0.5052 -1.7178
 7482TIP3   OH243936   0.800   0.081   0.263  0.0639 -0.1140 -0.1963
 7482TIP3    H143937   0.797   0.172   0.233 -0.3544 -0.2422 -0.5564
 7482TIP3    H243938   0.718   0.069   0.311  0.9157  0.2128  1.3948
 7483TIP3   OH243939   5.258   2.018  16.003 -0.3187 -0.2361 -0.5161
 7483TIP3    H143940   5.334   2.073  16.022 -0.6668  0.1167 -0.0914
 7483TIP3    H243941   5.215   2.061  15.929  0.5562 -1.1195 -1.5628
 7484TIP3   OH243942   4.230   4.287   1.297  0.3121  0.0130 -0.2174
 7484TIP3    H143943   4.262   4.377   1.296  0.0763  0.1010  0.1423
 7484TIP3    H243944   4.264   4.250   1.378  2.0372 -0.8221 -1.2589
 7485TIP3   OH243945   5.656   0.904  13.581  0.7704  0.0130 -0.1959
 7485TIP3    H143946   5.599   0.971  13.544  1.4625  0.0569 -1.2509
 7485TIP3    H243947   5.599   0.853  13.639 -0.2344  0.3065 -0.8909
 7486TIP3   OH243948   2.789   5.285  12.672  0.4284 -0.1977  0.1712
 7486TIP3    H143949   2.815   5.375  12.692  0.0142  0.1306 -0.7048
 7486TIP3    H243950   2.863   5.232  12.701  0.9966  0.4947  0.0130
 7487TIP3   OH243951   6.121   3.602  16.602  0.5200 -0.2585 -0.1104
 7487TIP3    H143952   6.206   3.645  16.610  0.7664 -0.7380 -0.0850
 7487TIP3    H243953   6.142   3.508  16.603  0.1131 -0.3821 -1.3000
 7488TIP3   OH243954   6.716   5.125  16.742 -0.0590 -0.5204  0.0207
 7488TIP3    H143955   6.742   5.217  16.736 -1.4065 -0.1679 -0.8769
 7488TIP3    H243956   6.786   5.083  16.794  0.2579  1.1208  0.9882
 7489TIP3   OH243957   1.502   6.805   1.409  0.1731  0.2297 -0.0217
 7489TIP3    H143958   1.584   6.758   1.426 -0.3427 -0.1117  1.7866
 7489TIP3    H243959   1.528   6.882   1.359  1.3304 -0.8437 -1.1554
 7490TIP3   OH243960   1.612   2.572  16.822 -0.0141  0.2760 -0.5408
 7490TIP3    H143961   1.612   2.605  16.733  0.1958  3.3473  0.4760
 7490TIP3    H243962   1.693   2.521  16.829 -0.3207 -0.4792 -2.2047
 7491TIP3   OH243963   0.197   5.120   4.138 -0.1103  0.3660 -0.1713
 7491TIP3    H143964   0.228   5.061   4.069 -1.7657  0.6596 -1.2238
 7491TIP3    H243965   0.258   5.106   4.210 -1.2643 -3.7699  0.2125
 7492TIP3   OH243966   4.684   3.818   3.172 -0.2047  0.2104 -0.2477
 7492TIP3    H143967   4.744   3.763   3.222 -0.0341  0.4925 -0.1382
 7492TIP3    H243968   4.737   3.895   3.147 -0.3310  0.1421 -0.7306
 7493TIP3   OH243969   5.006   1.754  12.460 -0.1111 -0.3889 -0.1445
 7493TIP3    H143970   4.989   1.844  12.435  0.3973 -0.4003 -0.5590
 7493TIP3    H243971   4.920   1.717  12.481 -0.3050  0.2203  0.1346
 7494TIP3   OH243972   3.801   5.058  10.822  0.1192 -0.2219 -0.4138
 7494TIP3    H143973   3.743   4.995  10.778 -1.1508  1.4749 -1.2494
 7494TIP3    H243974   3.889   5.025  10.803 -0.4437 -0.7064 -2.5075
 7495TIP3   OH243975   6.360   3.939  14.082  0.0976  0.5084  0.3874
 7495TIP3    H143976   6.405   3.873  14.029  0.8663  1.1106  0.2791
 7495TIP3    H243977   6.322   3.999  14.018  0.2733  0.7430  0.5018
 7496TIP3   OH243978   3.249   5.751  12.015  0.4317  0.4810 -0.2004
 7496TIP3    H143979   3.233   5.657  12.018 -0.8861  0.6750 -0.8094
 7496TIP3    H243980   3.247   5.773  11.922  0.3789  1.1718 -0.0413
 7497TIP3   OH243981   3.456   1.016   0.994 -1.0280 -0.3787  0.2299
 7497TIP3    H143982   3.538   1.047   1.033 -1.8689  0.6856  1.2067
 7497TIP3    H243983   3.462   1.045   0.902 -0.5750  0.2362  0.4417
 7498TIP3   OH243984   0.563   5.399  17.022  0.1661 -0.0716  0.4546
 7498TIP3    H143985   0.589   5.459  17.092 -0.8254  0.5601  0.2942
 7498TIP3    H243986   0.467   5.395  17.027 -0.1678  1.7458 -2.2549
 7499TIP3   OH243987   0.741   6.299   2.548  0.2101  0.0999  0.0851
 7499TIP3    H143988   0.693   6.258   2.476  0.5026 -0.8696  0.4182
 7499TIP3    H243989   0.790   6.370   2.507 -0.4870  0.2649 -0.4783
 7500TIP3   OH243990   2.859   3.422  14.454  0.2994 -0.2307  0.4235
 7500TIP3    H143991   2.797   3.494  14.441  0.4170 -0.1657  0.2342
 7500TIP3    H243992   2.844   3.395  14.545 -1.9901 -2.0502 -0.3851
 7501TIP3   OH243993   0.375   0.084   2.366 -0.0339  0.1152  0.4567
 7501TIP3    H143994   0.350   0.095   2.458  0.8653  1.3819  0.5671
 7501TIP3    H243995   0.423   0.001   2.365  0.3867  0.3355  1.2388
 7502TIP3   OH243996   4.512   1.191  16.813 -0.3941 -0.0060  0.6122
 7502TIP3    H143997   4.419   1.192  16.791 -0.6573 -0.2884  1.6759
 7502TIP3    H243998   4.515   1.202  16.908  0.8170  3.7875  0.3104
 7503TIP3   OH243999   3.831   5.109   0.581  0.0888 -0.1781 -0.0135
 7503TIP3    H144000   3.825   5.094   0.487  1.2844 -2.0529  0.1613
 7503TIP3    H244001   3.917   5.148   0.595 -0.0133 -0.0656  0.3358
 7504TIP3   OH244002   4.158   6.209  10.165  0.2101  0.0213 -0.5007
 7504TIP3    H144003   4.173   6.115  10.158 -0.7198 -0.1414 -0.3480
 7504TIP3    H244004   4.241   6.248  10.136  0.2428 -0.8145 -1.5878
 7505TIP3   OH244005   5.778   1.641   2.769  0.1919 -0.3758  0.2064
 7505TIP3    H144006   5.696   1.625   2.815  0.7302 -2.1861  0.5889
 7505TIP3    H244007   5.835   1.569   2.795  1.6985  0.5032 -0.5500
 7506TIP3   OH244008   0.983   2.380  14.496  0.2214 -0.4727  0.2702
 7506TIP3    H144009   1.068   2.409  14.464 -0.2881  1.9681  0.9030
 7506TIP3    H244010   0.987   2.391  14.591 -1.1467  0.9227  0.2187
 7507TIP3   OH244011   2.408   5.964   1.645 -0.4660 -0.4357  0.1317
 7507TIP3    H144012   2.450   6.048   1.661  0.1968 -0.6999 -0.1684
 7507TIP3    H244013   2.372   5.938   1.730 -1.2533  0.4513  0.0808
 7508TIP3   OH244014   6.803   3.895  12.476 -0.3038  0.4244 -0.3695
 7508TIP3    H144015   6.732   3.863  12.420 -0.8928  1.7667 -0.4112
 7508TIP3    H244016   6.763   3.963  12.530  1.1611  1.9240 -1.0874
 7509TIP3   OH244017   4.464   0.132  15.187  0.7952  1.1247  0.4309
 7509TIP3    H144018   4.518   0.106  15.262  0.4665 -0.2564  0.2144
 7509TIP3    H244019   4.515   0.107  15.110 -0.5877 -1.3488  0.2108
 7510TIP3   OH244020   1.819   4.406   0.995  0.2404  0.4220 -0.6504
 7510TIP3    H144021   1.898   4.429   1.044  0.5819  2.7638 -2.1359
 7510TIP3    H244022   1.752   4.394   1.063  1.7319 -1.2748  0.6209
 7511TIP3   OH244023   3.051   2.529  13.994 -0.1010 -0.0377  0.1217
 7511TIP3    H144024   2.974   2.487  14.032  1.1053  0.2225  3.1572
 7511TIP3    H244025   3.118   2.460  13.992  0.8734  0.7636  1.9301
 7512TIP3   OH244026   0.529   1.288   3.575 -0.0007  0.0173 -0.2860
 7512TIP3    H144027   0.558   1.196   3.571  0.4364  0.1387  0.0528
 7512TIP3    H244028   0.517   1.305   3.668  1.0933  0.6609 -0.2502
 7513TIP3   OH244029   4.426   1.788   1.868 -0.7511  0.3630  0.0529
 7513TIP3    H144030   4.441   1.861   1.928  0.1903 -1.0141  1.5360
 7513TIP3    H244031   4.369   1.729   1.916  0.1076 -0.8212 -0.3491
 7514TIP3   OH244032   2.706   4.972  13.477  0.9256 -0.0824 -0.6927
 7514TIP3    H144033   2.702   4.938  13.566 -1.4809  0.4861 -0.5300
 7514TIP3    H244034   2.794   4.949  13.447  0.9150 -2.5844  0.9030
 7515TIP3   OH244035   5.784   4.157  12.818  0.0898 -0.1208 -0.2006
 7515TIP3    H144036   5.736   4.075  12.820  1.0122 -0.7242  2.7718
 7515TIP3    H244037   5.724   4.221  12.857  0.6503 -0.2522  0.9164
 7516TIP3   OH244038   4.694   0.047   4.113 -0.4799 -0.0348  0.4736
 7516TIP3    H144039   4.760   0.005   4.057 -0.6436 -0.9705  0.9684
 7516TIP3    H244040   4.630   0.083   4.052  0.6991  1.2521 -0.0323
 7517TIP3   OH244041   0.637   1.467  12.044  0.5723  0.2123  0.3691
 7517TIP3    H144042   0.708   1.454  12.106  0.1122 -2.1520  0.4965
 7517TIP3    H244043   0.651   1.400  11.977 -0.7816  0.5707 -0.3139
 7518TIP3   OH244044   0.907   1.538   1.115 -0.2802  0.4677 -0.1052
 7518TIP3    H144045   0.822   1.536   1.158 -1.9132  2.6840 -2.8627
 7518TIP3    H244046   0.900   1.473   1.045 -0.2680  1.5196 -1.1263
 7519TIP3   OH244047   0.472   5.722   2.898  0.4129 -0.0337  0.5692
 7519TIP3    H144048   0.557   5.755   2.924 -0.1895 -0.6318  3.7479
 7519TIP3    H244049   0.478   5.627   2.911  0.2441 -0.5724 -2.5297
 7520TIP3   OH244050   3.569   1.405   3.424 -0.1767 -0.2474  0.5007
 7520TIP3    H144051   3.589   1.409   3.518 -2.1965  0.8036  0.9327
 7520TIP3    H244052   3.526   1.488   3.405 -0.2410 -0.6458 -1.2724
 7521TIP3   OH244053   2.723   0.354  11.071 -0.3209  0.7055  0.5994
 7521TIP3    H144054   2.698   0.430  11.019 -0.7149  1.0040  1.2204
 7521TIP3    H244055   2.642   0.324  11.111  0.0690  0.8508  1.5355
 7522TIP3   OH244056   4.721   3.247   0.675  0.4328 -0.4732  0.2264
 7522TIP3    H144057   4.673   3.178   0.629 -0.7541  0.0860  0.6104
 7522TIP3    H244058   4.804   3.205   0.698 -0.6637 -2.1490  1.3796
 7523TIP3   OH244059   5.476   2.277  11.457 -0.2597  0.1836 -0.1862
 7523TIP3    H144060   5.416   2.325  11.513 -2.7614 -0.5684 -2.0388
 7523TIP3    H244061   5.469   2.186  11.486  2.3756  0.4234  1.5231
 7524TIP3   OH244062   0.205   4.080  16.052  0.3784 -0.1376  0.1338
 7524TIP3    H144063   0.169   4.166  16.074  0.8038 -0.2648  1.4492
 7524TIP3    H244064   0.295   4.097  16.025 -0.0342 -0.0176 -1.1844
 7525TIP3   OH244065   2.965   0.132   1.647 -0.2688  0.6240  0.2807
 7525TIP3    H144066   2.958   0.040   1.672  0.7246  0.4834  0.0818
 7525TIP3    H244067   2.925   0.180   1.719 -0.4159  0.0553  0.5794
 7526TIP3   OH244068   6.623   2.384  13.988 -0.5169  0.4397 -0.3979
 7526TIP3    H144069   6.533   2.403  14.017 -0.3689  2.1641 -0.9688
 7526TIP3    H244070   6.670   2.466  14.001  0.8811 -0.3174 -0.5223
 7527TIP3   OH244071   4.246   0.583   4.038 -0.6681  0.0582 -0.6452
 7527TIP3    H144072   4.212   0.559   3.952 -1.8680 -0.5918 -0.0177
 7527TIP3    H244073   4.328   0.629   4.020 -0.6195 -0.5522 -2.1015
 7528TIP3   OH244074   3.584   5.532   1.158  0.0163  0.4464  0.1305
 7528TIP3    H144075   3.541   5.449   1.181  0.2394 -0.6583 -3.0014
 7528TIP3    H244076   3.676   5.518   1.181  0.1057 -0.3169 -0.6360
 7529TIP3   OH244077   3.597   0.242  11.477  0.2156  0.0054 -0.6220
 7529TIP3    H144078   3.521   0.294  11.503  0.2147  0.3064 -1.2104
 7529TIP3    H244079   3.673   0.294  11.502  0.2275 -0.1591 -0.3097
 7530TIP3   OH244080   4.348   6.806   1.680 -0.2426  0.4146 -0.0536
 7530TIP3    H144081   4.369   6.775   1.768  0.3245  0.8349 -0.0382
 7530TIP3    H244082   4.418   6.868   1.659 -0.4008  0.3497 -0.7832
 7531TIP3   OH244083   1.616   4.226   2.985  0.1927  0.0754 -0.0764
 7531TIP3    H144084   1.531   4.189   2.965  0.2259 -0.2068  0.2952
 7531TIP3    H244085   1.674   4.193   2.917  0.7023 -2.3374  1.4199
 7532TIP3   OH244086   1.644   3.914   1.416  0.0747  0.1384  0.0593
 7532TIP3    H144087   1.556   3.877   1.429 -0.7582  1.7902 -0.5660
 7532TIP3    H244088   1.628   3.999   1.375  1.9532  0.7598  0.5337
 7533TIP3   OH244089   1.020   3.720   1.463 -0.2633 -0.0795 -0.1160
 7533TIP3    H144090   0.942   3.761   1.425 -1.1401 -0.6472  1.0221
 7533TIP3    H244091   1.025   3.635   1.420 -0.2389 -0.0370 -0.2000
 7534TIP3   OH244092   5.880   4.742  14.387  0.2571  0.0631  0.0671
 7534TIP3    H144093   5.802   4.688  14.402 -0.6246  1.9258  3.0495
 7534TIP3    H244094   5.849   4.813  14.330  0.0999  0.1133  0.2144
 7535TIP3   OH244095   4.380   4.853  13.321 -0.1209 -0.0251  0.5827
 7535TIP3    H144096   4.389   4.899  13.238  1.5385 -3.2634 -1.1889
 7535TIP3    H244097   4.432   4.905  13.383 -1.2938  2.3684 -0.3088
 7536TIP3   OH244098   1.580   3.922  13.571 -0.2290  0.3795 -0.0331
 7536TIP3    H144099   1.671   3.893  13.577  0.3571  1.5796 -2.0820
 7536TIP3    H244100   1.529   3.841  13.569  0.7546 -0.3075  1.1253
 7537TIP3   OH244101   0.194   0.931  12.586 -0.3262  0.0061 -0.4664
 7537TIP3    H144102   0.281   0.935  12.546 -0.3005 -2.3929 -0.7652
 7537TIP3    H244103   0.136   0.971  12.522  0.0558 -1.7245 -1.9677
 7538TIP3   OH244104   3.640   6.354  13.664  0.3248 -0.1976  0.2102
 7538TIP3    H144105   3.656   6.290  13.595  0.1918 -0.5255  0.4816
 7538TIP3    H244106   3.687   6.432  13.635 -0.0656 -0.2006 -0.4488
 7539TIP3   OH244107   6.790   4.080  11.128 -0.2581 -0.3320  0.0598
 7539TIP3    H144108   6.745   4.006  11.168 -1.5184  0.4051  0.0563
 7539TIP3    H244109   6.877   4.080  11.168 -1.0175 -0.4456  1.8001
 7540TIP3   OH244110   4.292   3.739   2.750 -0.2634  0.3681  0.0298
 7540TIP3    H144111   4.203   3.760   2.777 -0.9449 -1.1472 -0.8781
 7540TIP3    H244112   4.307   3.794   2.673 -0.9942 -0.4147 -0.6970
 7541TIP3   OH244113   3.428   3.349   4.970 -0.3863 -0.2342 -0.3735
 7541TIP3    H144114   3.459   3.266   5.007  0.0382  0.5792  1.1865
 7541TIP3    H244115   3.485   3.415   5.009 -1.0985  0.8591 -1.1312
 7542TIP3   OH244116   1.981   6.494  15.229 -0.3444  0.0056 -0.0881
 7542TIP3    H144117   1.934   6.501  15.146  0.2566 -0.5039 -0.4804
 7542TIP3    H244118   2.053   6.433  15.212  0.3056  0.5561  0.5626
 7543TIP3   OH244119   3.018   0.782   0.485  0.5999  0.0845  0.2510
 7543TIP3    H144120   3.102   0.785   0.530  0.7514  0.2452 -0.0442
 7543TIP3    H244121   3.013   0.864   0.437 -1.0350  1.4871  2.5962
 7544TIP3   OH244122   6.385   2.112  14.097 -0.3367  0.1837 -0.2226
 7544TIP3    H144123   6.353   2.035  14.145 -0.2312  0.5001  0.3697
 7544TIP3    H244124   6.317   2.130  14.032 -0.4384 -0.3145 -0.2580
 7545TIP3   OH244125   1.851   4.793  10.909 -0.5851  0.2004  0.1891
 7545TIP3    H144126   1.851   4.808  11.004  0.8719  1.2036  0.0745
 7545TIP3    H244127   1.911   4.719  10.896  0.4419  1.0461 -0.0381
 7546TIP3   OH244128   2.551   0.227   2.897 -0.2769  0.4043  0.0863
 7546TIP3    H144129   2.505   0.222   2.814 -0.7071  0.7786  0.3012
 7546TIP3    H244130   2.620   0.160   2.890  0.3329  1.1239 -0.9659
 7547TIP3   OH244131   3.906   4.440   5.228  0.3561  0.0396 -0.4245
 7547TIP3    H144132   3.885   4.409   5.140  0.8917 -1.0084 -0.1973
 7547TIP3    H244133   4.001   4.444   5.230  0.3177  0.8041 -0.1385
 7548TIP3   OH244134   6.727   6.256  15.917  0.2037 -0.7072  0.5301
 7548TIP3    H144135   6.727   6.277  15.824 -0.0670 -0.2788  0.6279
 7548TIP3    H244136   6.645   6.209  15.931  0.3908 -1.0498  0.4911
 7549TIP3   OH244137   4.259   5.729   4.032 -0.2694 -0.4346 -0.0486
 7549TIP3    H144138   4.344   5.760   4.064 -0.2811  1.6155 -1.7799
 7549TIP3    H244139   4.200   5.739   4.107  0.0993  2.4139 -0.0130
 7550TIP3   OH244140   5.117   0.827   1.131 -0.7071  0.2753 -0.2375
 7550TIP3    H144141   5.060   0.860   1.200 -1.2302  1.1459 -1.0623
 7550TIP3    H244142   5.205   0.847   1.161 -0.6239 -2.6355  1.8839
 7551TIP3   OH244143   6.116   0.555   5.335 -0.1498  0.0643  0.5636
 7551TIP3    H144144   6.103   0.643   5.371  2.5467  0.4625  0.7802
 7551TIP3    H244145   6.169   0.510   5.401 -1.0992 -1.6035  0.2449
 7552TIP3   OH244146   0.379   0.355  12.319  0.3855 -0.0562  0.2325
 7552TIP3    H144147   0.454   0.305  12.289  1.5503  0.9665  1.3447
 7552TIP3    H244148   0.321   0.291  12.360  1.3110 -0.6484  0.6261
 7553TIP3   OH244149   0.300   5.914   3.630 -0.4949  0.3779  0.2508
 7553TIP3    H144150   0.358   5.990   3.639 -1.9235  1.4596  0.7425
 7553TIP3    H244151   0.273   5.915   3.538  0.1313 -0.0471  0.0544
 7554TIP3   OH244152   0.962   5.471  16.626 -0.3034  0.4736  0.2036
 7554TIP3    H144153   1.038   5.485  16.682  2.6670  1.0622 -3.5757
 7554TIP3    H244154   0.903   5.544  16.648  2.0079  2.3404  0.6196
 7555TIP3   OH244155   0.452   0.814   3.438 -0.1443 -0.3668 -0.2885
 7555TIP3    H144156   0.514   0.853   3.377  1.1830 -1.4668  0.2905
 7555TIP3    H244157   0.397   0.757   3.384 -0.3898  0.3007 -0.7503
 7556TIP3   OH244158   3.105   3.202   5.264  0.3270 -0.4804  0.7245
 7556TIP3    H144159   3.017   3.188   5.229  1.4794 -3.2348 -1.4547
 7556TIP3    H244160   3.162   3.151   5.206  3.6084  2.4355  1.0766
 7557TIP3   OH244161   0.284   2.166   0.026 -0.2998 -0.3335 -0.2667
 7557TIP3    H144162   0.352   2.233   0.028 -0.8186  0.1945 -0.1567
 7557TIP3    H244163   0.264   2.156  -0.067 -1.8774  1.3797 -0.1618
 7558TIP3   OH244164   6.880   3.397   5.170  0.6353  0.4645  0.3005
 7558TIP3    H144165   6.942   3.470   5.173 -0.6873  1.8278 -1.9518
 7558TIP3    H244166   6.920   3.328   5.223  2.1135  2.6801  2.3010
 7559TIP3   OH244167   1.444   2.912   3.694  0.5521  0.5858 -0.4535
 7559TIP3    H144168   1.453   2.902   3.599 -0.4251 -1.4362 -0.3903
 7559TIP3    H244169   1.352   2.937   3.707  0.4012 -0.1649 -0.0047
 7560TIP3   OH244170   6.461   6.700  11.248 -0.1482  0.7769 -0.4528
 7560TIP3    H144171   6.509   6.779  11.222 -2.0531  2.5560  1.0940
 7560TIP3    H244172   6.530   6.635  11.265  1.5063  2.1590 -1.4879
 7561TIP3   OH244173   3.338   4.392  16.513 -0.1703  0.0285 -0.5327
 7561TIP3    H144174   3.320   4.442  16.433 -0.2461  0.5974 -0.1716
 7561TIP3    H244175   3.289   4.311  16.503 -0.2916  0.1569 -1.0023
 7562TIP3   OH244176   0.931   4.871  11.823 -0.2060  0.1780 -0.0782
 7562TIP3    H144177   0.944   4.777  11.815 -0.0492  0.1767  0.1983
 7562TIP3    H244178   1.012   4.905  11.860 -0.1480  0.4632 -0.4550
 7563TIP3   OH244179   2.919   2.589   1.734 -0.2268  0.2330 -0.2315
 7563TIP3    H144180   3.012   2.566   1.724 -0.1178 -0.9401  2.5752
 7563TIP3    H244181   2.889   2.606   1.645  2.6410  0.5410 -1.2559
 7564TIP3   OH244182   4.916   1.704   3.916 -0.5946 -0.2858  0.2503
 7564TIP3    H144183   4.825   1.684   3.894  0.1452 -2.3668 -1.2515
 7564TIP3    H244184   4.947   1.626   3.962  0.2718  0.6943  1.4125
 7565TIP3   OH244185   6.844   3.993   6.070 -0.0967  0.3677  0.2450
 7565TIP3    H144186   6.836   4.039   6.154 -0.0010  0.0878  0.4057
 7565TIP3    H244187   6.905   3.922   6.087 -1.9482 -1.2244  0.6117
 7566TIP3   OH244188   0.992   4.695   5.107  0.5267  0.1559 -0.2631
 7566TIP3    H144189   0.957   4.619   5.151  0.2842  1.0729  1.1955
 7566TIP3    H244190   0.970   4.682   5.015 -1.1559 -0.6271  0.2173
 7567TIP3   OH244191   1.253   4.968  11.706  0.2140  0.1918 -0.7656
 7567TIP3    H144192   1.303   4.890  11.731 -2.1241 -1.1754 -0.0825
 7567TIP3    H244193   1.283   4.988  11.618  1.9799 -0.4985 -0.3769
 7568TIP3   OH244194   0.235   6.214  15.275 -0.0548 -0.0037 -0.0065
 7568TIP3    H144195   0.220   6.119  15.276  0.3016 -0.1010 -1.6637
 7568TIP3    H244196   0.330   6.223  15.281 -0.1060  0.2730  0.4411
 7569TIP3   OH244197   2.688   5.433   0.708  0.1830  0.3984  0.0590
 7569TIP3    H144198   2.718   5.363   0.766  0.7417  1.2152  0.7918
 7569TIP3    H244199   2.626   5.483   0.762 -1.3619 -0.3725 -0.9380
 7570TIP3   OH244200   0.130   2.976   4.048  0.0290  0.7884  0.4920
 7570TIP3    H144201   0.128   3.050   4.109  2.2075 -0.1120  1.7865
 7570TIP3    H244202   0.224   2.960   4.034 -0.3231 -2.2780  1.0190
 7571TIP3   OH244203   0.447   3.090   0.195 -0.2832  0.1359  0.5547
 7571TIP3    H144204   0.463   3.181   0.169 -1.4263  0.5326  1.1673
 7571TIP3    H244205   0.491   3.082   0.280  1.0854 -0.3473 -0.1633
 7572TIP3   OH244206   0.873   3.337  13.344  0.0569  0.1532 -0.4943
 7572TIP3    H144207   0.893   3.292  13.262 -0.2285  0.1399 -0.5575
 7572TIP3    H244208   0.913   3.423  13.333  0.9910 -0.2301 -0.1907
 7573TIP3   OH244209   1.664   0.231   1.737 -0.7690 -0.0251 -0.0640
 7573TIP3    H144210   1.723   0.157   1.728 -1.9636 -1.0147  0.0032
 7573TIP3    H244211   1.617   0.214   1.819 -1.9159  0.1772 -0.6694
 7574TIP3   OH244212   4.989   0.487  16.644  0.1405  0.3012 -0.0571
 7574TIP3    H144213   4.924   0.418  16.632 -0.1164  0.4858  0.2535
 7574TIP3    H244214   4.994   0.531  16.559  1.3732 -1.0065 -0.7119
 7575TIP3   OH244215   3.217   0.025   1.426  0.2480 -0.1194 -0.6025
 7575TIP3    H144216   3.223   0.019   1.331 -0.1078 -1.7642 -0.5429
 7575TIP3    H244217   3.200   0.118   1.443  2.7921  0.6994 -1.9787
 7576TIP3   OH244218   3.292   0.881   3.659 -0.0638  0.0162  0.2053
 7576TIP3    H144219   3.335   0.951   3.707 -1.6403  1.9372 -1.0347
 7576TIP3    H244220   3.356   0.854   3.593  0.7621 -0.1490  1.0510
 7577TIP3   OH244221   4.948   1.613   2.424  0.0627 -0.3749 -0.1170
 7577TIP3    H144222   4.856   1.620   2.396 -0.6824  0.1333  2.2305
 7577TIP3    H244223   4.963   1.691   2.477  0.2497 -2.6241  3.5511
 7578TIP3   OH244224   4.937   4.000   2.284  0.4223 -0.8729 -0.0583
 7578TIP3    H144225   4.853   4.028   2.320 -1.0332 -2.3034 -2.1418
 7578TIP3    H244226   4.967   3.931   2.343  0.1172 -0.4182  0.6461
 7579TIP3   OH244227   1.089   4.334  15.852 -0.0776  0.4050 -0.4940
 7579TIP3    H144228   1.146   4.401  15.814  0.9540 -0.4879 -0.5953
 7579TIP3    H244229   1.027   4.313  15.783  0.3581  0.4088 -0.8963
 7580TIP3   OH244230   0.292   5.682   4.806 -0.1914  0.1653  0.1059
 7580TIP3    H144231   0.274   5.589   4.791 -0.1040  0.4247 -1.9282
 7580TIP3    H244232   0.382   5.684   4.839 -0.0565 -0.4502 -0.2238
 7581TIP3   OH244233   4.456   1.745  15.787 -0.2337 -0.7212 -0.5438
 7581TIP3    H144234   4.470   1.728  15.694 -0.3174 -0.6340 -0.5728
 7581TIP3    H244235   4.361   1.756  15.795  0.0113  3.0031 -1.1085
 7582TIP3   OH244236   4.885   6.508  15.477  0.1150 -1.1152 -0.1649
 7582TIP3    H144237   4.793   6.481  15.478 -1.2727  2.9485  0.1357
 7582TIP3    H244238   4.898   6.550  15.562  1.4184  0.6782 -1.1799
 7583TIP3   OH244239   4.338   4.108   2.861  0.1626 -0.4020 -0.0531
 7583TIP3    H144240   4.266   4.170   2.875  0.1376 -0.4362 -0.0334
 7583TIP3    H244241   4.320   4.037   2.922  0.4461 -0.2075  0.2545
 7584TIP3   OH244242   1.952   3.882  12.985  0.3820  0.0894 -0.3776
 7584TIP3    H144243   1.945   3.864  12.891 -0.2099 -0.4766 -0.2355
 7584TIP3    H244244   2.011   3.813  13.018 -0.8549 -0.8415 -0.0456
 7585TIP3   OH244245   4.603   2.367  13.217  0.1752 -0.4728  1.1244
 7585TIP3    H144246   4.604   2.412  13.132 -1.7548 -0.3803  1.1132
 7585TIP3    H244247   4.634   2.279  13.197 -3.9335 -1.7832 -0.5849
 7586TIP3   OH244248   5.230   2.595   4.112  0.0254  0.2109  0.3898
 7586TIP3    H144249   5.174   2.673   4.117 -0.6301 -0.2758  0.7077
 7586TIP3    H244250   5.171   2.522   4.132 -0.1156 -0.7022 -2.7990
 7587TIP3   OH244251   1.884   4.993  14.849 -0.7027 -0.2474 -0.2166
 7587TIP3    H144252   1.863   4.970  14.939  3.7238  0.2847  1.1835
 7587TIP3    H244253   1.909   4.911  14.807  1.9857  0.0275  0.6680
 7588TIP3   OH244254   2.830   4.925  14.816  0.3890 -0.2918 -0.4005
 7588TIP3    H144255   2.922   4.905  14.838 -0.2030 -1.4535  1.2706
 7588TIP3    H244256   2.800   4.849  14.766 -0.2624 -1.0168  1.0255
 7589TIP3   OH244257   6.163   6.486  17.009 -0.7518  0.6115 -0.8162
 7589TIP3    H144258   6.257   6.470  17.008  0.0974  4.0817  1.7930
 7589TIP3    H244259   6.124   6.400  17.023  2.1071 -0.8012 -0.8340
 7590TIP3   OH244260   1.405   1.887  15.180 -0.4270 -0.5980  0.3711
 7590TIP3    H144261   1.379   1.807  15.136  0.9463 -0.9239  0.0999
 7590TIP3    H244262   1.407   1.864  15.273  0.6730 -1.1188  0.2391
 7591TIP3   OH244263   5.718   5.789   0.750 -0.7270 -0.6864  0.7319
 7591TIP3    H144264   5.625   5.782   0.774 -1.2847  1.2245 -0.6500
 7591TIP3    H244265   5.718   5.791   0.654  0.7223 -0.3550  0.7147
 7592TIP3   OH244266   3.319   6.784   3.460 -0.6057  0.0511  0.1204
 7592TIP3    H144267   3.246   6.733   3.425  0.0549  0.1436 -1.4875
 7592TIP3    H244268   3.398   6.740   3.427  0.0083  1.3012 -0.1636
 7593TIP3   OH244269   0.442   5.605  11.743 -0.0364  0.0944  0.2211
 7593TIP3    H144270   0.464   5.677  11.803 -1.9059 -1.0094  2.4000
 7593TIP3    H244271   0.476   5.527  11.786 -1.5701 -0.7550 -0.0502
 7594TIP3   OH244272   5.319   6.605  16.009 -0.0836 -0.3777 -0.2801
 7594TIP3    H144273   5.247   6.657  15.973 -0.6391 -1.5514 -0.8971
 7594TIP3    H244274   5.334   6.643  16.096 -1.6106 -0.2589 -0.0434
 7595TIP3   OH244275   3.342   0.772   0.989 -0.2494  0.0263 -0.4340
 7595TIP3    H144276   3.383   0.858   0.979 -1.2468  0.5683 -0.0525
 7595TIP3    H244277   3.267   0.775   0.928 -0.3691 -0.5196 -0.3160
 7596TIP3   OH244278   2.749   4.631   5.244  0.5158  0.9226 -0.4537
 7596TIP3    H144279   2.731   4.725   5.243 -1.7061  0.6411  1.9176
 7596TIP3    H244280   2.843   4.623   5.261  1.2446  2.6287 -3.1368
 7597TIP3   OH244281   3.115   2.600  14.502  0.2679 -0.1077 -0.0173
 7597TIP3    H144282   3.095   2.676  14.446 -2.1178 -1.1955 -0.7884
 7597TIP3    H244283   3.162   2.540  14.444  1.0735  0.2561  0.2450
 7598TIP3   OH244284   1.728   3.043   2.061  0.5207  0.1401 -0.1640
 7598TIP3    H144285   1.754   2.951   2.057 -1.2124 -0.4240  0.3757
 7598TIP3    H244286   1.667   3.047   2.135  1.7218  2.0577  0.7964
 7599TIP3   OH244287   4.059   2.656  13.866  0.5753 -0.0549  0.0255
 7599TIP3    H144288   4.030   2.570  13.896  0.0664  0.0023 -0.2829
 7599TIP3    H244289   4.153   2.657  13.881  0.7578 -1.0554 -0.9026
 7600TIP3   OH244290   2.186   1.022   2.370  0.1386  0.2601 -0.2909
 7600TIP3    H144291   2.173   1.069   2.287  1.0216  0.3791 -0.3689
 7600TIP3    H244292   2.222   1.088   2.429  0.8671 -0.1775 -0.2388
 7601TIP3   OH244293   2.480   1.709  15.291 -0.6163  0.1651 -0.2509
 7601TIP3    H144294   2.509   1.754  15.212  0.8679 -0.7160 -0.2380
 7601TIP3    H244295   2.386   1.696  15.278 -0.4230  0.1426 -1.8155
 7602TIP3   OH244296   4.149   1.548   4.207  0.5432 -0.0753 -0.0349
 7602TIP3    H144297   4.094   1.568   4.283  1.4491  0.0113  0.6107
 7602TIP3    H244298   4.093   1.567   4.132 -0.6104 -0.8460  0.6047
 7603TIP3   OH244299   2.782   6.762  12.682  0.0964  1.1551  0.0970
 7603TIP3    H144300   2.791   6.767  12.587  0.5015  2.7035  0.2021
 7603TIP3    H244301   2.840   6.690  12.708 -1.0489 -0.2051 -0.9326
 7604TIP3   OH244302   4.795   0.110  12.108  0.1640 -0.3490 -0.2045
 7604TIP3    H144303   4.723   0.048  12.094 -0.8953  0.3097  1.9731
 7604TIP3    H244304   4.851   0.069  12.173  0.5606  0.0959 -0.2554
 7605TIP3   OH244305   0.041   4.353   0.001  0.2978  0.4287 -0.3647
 7605TIP3    H144306   0.097   4.403   0.061 -2.2730 -0.0417  2.7268
 7605TIP3    H244307   0.006   4.418  -0.059  1.2023  1.3692  0.0906
 7606TIP3   OH244308   3.595   4.482  13.128 -0.3453 -0.4328  0.7458
 7606TIP3    H144309   3.526   4.416  13.127 -0.4459 -0.3702 -1.3702
 7606TIP3    H244310   3.572   4.539  13.201 -1.2707 -1.6700  1.4737
 7607TIP3   OH244311   0.842   3.193   5.032  0.0793  0.0332  0.4541
 7607TIP3    H144312   0.856   3.103   5.000  0.1491 -0.1016  0.8557
 7607TIP3    H244313   0.918   3.210   5.088  0.4990  0.6542 -0.2903
 7608TIP3   OH244314   4.281   2.437  15.134 -0.2308  0.1149  0.2008
 7608TIP3    H144315   4.316   2.404  15.051  1.1330  1.1219  0.3340
 7608TIP3    H244316   4.220   2.506  15.109 -1.0063 -0.6128  0.0162
 7609TIP3   OH244317   1.786   6.166   1.312 -0.0607  0.1917  0.6976
 7609TIP3    H144318   1.808   6.198   1.225 -0.5251  0.8095  0.7983
 7609TIP3    H244319   1.772   6.072   1.300  1.8321 -0.1040  0.5006
 7610TIP3   OH244320   3.280   4.840   6.359  0.4235  0.2560  0.2681
 7610TIP3    H144321   3.226   4.765   6.384  0.8390  0.4119  1.7346
 7610TIP3    H244322   3.239   4.915   6.402 -0.8660  1.1745 -2.3940
 7611TIP3   OH244323   1.930   4.119   2.470 -0.5400  0.0996  0.0347
 7611TIP3    H144324   1.883   4.151   2.393  0.2904  1.1913 -0.0411
 7611TIP3    H244325   1.907   4.026   2.475 -1.4463  0.2542 -0.9028
 7612TIP3   OH244326   4.280   5.996  12.152  0.4538  0.5510  0.3584
 7612TIP3    H144327   4.271   5.972  12.060  0.8869 -0.1654  0.4894
 7612TIP3    H244328   4.348   5.936  12.185 -0.6161 -0.0963  1.4558
 7613TIP3   OH244329   2.185   4.454  10.589  0.1215  0.3388  0.0728
 7613TIP3    H144330   2.115   4.389  10.589  0.1437  0.2841  1.6991
 7613TIP3    H244331   2.150   4.527  10.538 -0.0256 -0.7789 -1.5004
 7614TIP3   OH244332   6.856   1.347  15.097  0.2985  0.1475  0.3405
 7614TIP3    H144333   6.943   1.344  15.057 -0.0036  1.0189 -0.4395
 7614TIP3    H244334   6.843   1.261  15.136  1.5095  0.0142  0.4639
 7615TIP3   OH244335   3.636   5.707   2.399 -0.3641  0.5697 -0.1319
 7615TIP3    H144336   3.589   5.641   2.451  1.6593 -0.6003  0.3518
 7615TIP3    H244337   3.655   5.777   2.462  1.9911 -0.7974  0.8110
 7616TIP3   OH244338   1.799   0.068  15.220  0.5144 -0.2434  0.3665
 7616TIP3    H144339   1.815  -0.021  15.252 -1.5302 -0.9456 -0.3704
 7616TIP3    H244340   1.706   0.084  15.239  0.0110  0.5085 -2.2402
 7617TIP3   OH244341   2.573   6.690   1.954  0.1257  0.4397  0.4874
 7617TIP3    H144342   2.490   6.646   1.969  0.1491  0.8681  2.0933
 7617TIP3    H244343   2.612   6.698   2.041  1.9412  0.0947 -0.2374
 7618TIP3   OH244344   4.338   6.034  11.145  0.1181 -0.5256  0.0950
 7618TIP3    H144345   4.372   5.945  11.154 -0.5862 -0.6579  1.7890
 7618TIP3    H244346   4.409   6.091  11.176  0.4153 -0.5174 -0.5932
 7619TIP3   OH244347   4.491   0.040   3.197  0.1076 -0.3363 -0.1383
 7619TIP3    H144348   4.534  -0.044   3.209 -0.4286 -0.5745  0.1734
 7619TIP3    H244349   4.517   0.092   3.273 -1.8084 -1.2087  1.1923
 7620TIP3   OH244350   0.456   1.665  13.114 -1.1689 -0.1772 -0.1815
 7620TIP3    H144351   0.391   1.734  13.104 -0.2419  1.2588  2.6503
 7620TIP3    H244352   0.519   1.680  13.043 -1.1354  1.7265  0.2126
 7621TIP3   OH244353   5.339   4.942  13.257  0.4405 -0.8586 -0.3551
 7621TIP3    H144354   5.421   4.970  13.217 -0.0269 -1.2236 -1.6151
 7621TIP3    H244355   5.361   4.862  13.306  0.6547 -1.5240 -1.5149
 7622TIP3   OH244356   1.222   4.473   0.742 -0.3763 -0.4103  0.6092
 7622TIP3    H144357   1.273   4.544   0.780 -1.0459  0.3969  0.0361
 7622TIP3    H244358   1.167   4.441   0.814 -0.0583 -0.3607  0.8724
 7623TIP3   OH244359   6.227   6.787  12.913 -0.3338 -0.7763  0.1326
 7623TIP3    H144360   6.261   6.870  12.880  1.1300 -1.5760 -0.4948
 7623TIP3    H244361   6.286   6.721  12.875 -0.5843 -1.9896  1.7510
 7624TIP3   OH244362   2.092   5.198  11.376 -0.0803 -0.2782 -0.1075
 7624TIP3    H144363   2.161   5.191  11.310  0.9472  0.3863  0.8693
 7624TIP3    H244364   2.122   5.143  11.448  0.8008  2.1228  1.4509
 7625TIP3   OH244365   2.335   4.721   3.724  0.1730 -0.4216 -0.5281
 7625TIP3    H144366   2.295   4.636   3.740 -0.1795 -0.8441 -3.1505
 7625TIP3    H244367   2.322   4.770   3.805 -3.0417 -1.5537 -0.2238
 7626TIP3   OH244368   3.895   0.002   3.412  0.1922 -0.6058 -0.4400
 7626TIP3    H144369   3.950  -0.027   3.485  1.2161  1.4595 -0.3231
 7626TIP3    H244370   3.811   0.023   3.454 -0.1567 -2.0710 -0.3396
 7627TIP3   OH244371   0.942   0.510  10.976  0.5221  0.3137  0.3084
 7627TIP3    H144372   0.874   0.445  10.992  0.8948 -0.4822 -1.1669
 7627TIP3    H244373   0.906   0.566  10.907  0.6210  1.0634  0.8505
 7628TIP3   OH244374   5.390   4.014   3.521 -0.2023  0.6303 -0.5078
 7628TIP3    H144375   5.388   4.106   3.497 -2.0861  0.4728 -1.1665
 7628TIP3    H244376   5.304   3.981   3.496  0.0756 -1.0890  0.6003
 7629TIP3   OH244377   5.565   4.865  16.094  0.3796  0.1729  0.0417
 7629TIP3    H144378   5.505   4.939  16.086 -0.1111 -0.2819 -0.5998
 7629TIP3    H244379   5.630   4.893  16.158 -0.0281  1.0029  0.0971
 7630TIP3   OH244380   0.752   1.375  15.586 -0.5024  0.6965  0.3260
 7630TIP3    H144381   0.825   1.331  15.542  0.7177  1.6451  1.3112
 7630TIP3    H244382   0.700   1.304  15.622 -0.1978 -0.0113 -0.5739
 7631TIP3   OH244383   2.581   5.303  12.874 -0.5070 -0.3475 -0.0778
 7631TIP3    H144384   2.519   5.362  12.832 -2.1505 -1.4056  0.7492
 7631TIP3    H244385   2.643   5.280  12.805 -1.6236 -0.0468 -1.2293
 7632TIP3   OH244386   4.854   2.588   4.699 -0.1262 -0.2731  0.3411
 7632TIP3    H144387   4.921   2.580   4.631 -0.6028  0.5362 -0.2384
 7632TIP3    H244388   4.771   2.574   4.653 -0.3124 -2.7527  1.3207
 7633TIP3   OH244389   4.299   5.393  14.194 -0.2052  0.0310 -0.7659
 7633TIP3    H144390   4.243   5.373  14.269 -0.7602  1.3278 -0.8077
 7633TIP3    H244391   4.378   5.430  14.232 -0.7848  1.3690 -0.8330
 7634TIP3   OH244392   5.145   3.143   4.602  0.2020 -0.5235  0.2029
 7634TIP3    H144393   5.211   3.178   4.662 -0.2603  1.4489 -0.3840
 7634TIP3    H244394   5.195   3.122   4.523  0.2832  0.0480  0.0997
 7635TIP3   OH244395   0.948   1.370   5.264  0.1583 -0.0882 -0.2672
 7635TIP3    H144396   0.992   1.360   5.180  0.2563  0.1565 -0.2443
 7635TIP3    H244397   0.856   1.382   5.241  0.1899  0.0148 -0.3421
 7636TIP3   OH244398   4.446   1.865  12.780  0.5009 -0.4394 -0.0821
 7636TIP3    H144399   4.529   1.891  12.818 -0.1174  0.3011  0.8093
 7636TIP3    H244400   4.432   1.776  12.811 -0.1269  0.2480  1.7410
 7637TIP3   OH244401   5.575   1.682  13.941  0.4145  0.3985  0.1544
 7637TIP3    H144402   5.549   1.603  13.989  0.3482 -0.2643 -0.9245
 7637TIP3    H244403   5.493   1.731  13.931  0.5126  0.7730  1.1040
 7638TIP3   OH244404   3.053   5.337   5.977  0.3871 -0.3092  0.2665
 7638TIP3    H144405   3.022   5.248   5.995  0.6065 -0.8204 -1.6063
 7638TIP3    H244406   2.987   5.394   6.014 -0.1314 -1.2798  0.8609
 7639TIP3   OH244407   0.316   0.177  16.200  0.4172 -0.0378  0.1921
 7639TIP3    H144408   0.274   0.231  16.133 -1.9166  0.1147  1.6660
 7639TIP3    H244409   0.331   0.093  16.157 -1.6937 -0.1765 -0.3730
 7640TIP3   OH244410   6.867   3.476   2.166  0.3297 -0.2659  0.1197
 7640TIP3    H144411   6.939   3.424   2.130  0.2443 -0.0936 -0.3102
 7640TIP3    H244412   6.827   3.420   2.232  2.1580  0.3988  1.8905
 7641TIP3   OH244413   4.997   4.540  15.148 -0.3222 -0.3374  0.0739
 7641TIP3    H144414   5.061   4.482  15.190  0.7952  0.3143 -0.6766
 7641TIP3    H244415   4.924   4.482  15.124  0.2091 -1.1927  0.4826
 7642TIP3   OH244416   2.354   1.819  14.165 -0.0266 -0.1722  0.5752
 7642TIP3    H144417   2.345   1.825  14.070 -1.2833  1.0786  0.7485
 7642TIP3    H244418   2.358   1.910  14.194  3.0594 -0.4915  1.5408
 7643TIP3   OH244419   5.502   0.638  16.665 -0.1166  0.3623 -0.0949
 7643TIP3    H144420   5.532   0.669  16.580 -0.5864 -1.8066 -1.1197
 7643TIP3    H244421   5.410   0.664  16.669 -1.1437 -2.4724 -1.8993
 7644TIP3   OH244422   0.081   5.036  12.390  0.1101  0.2263  0.1892
 7644TIP3    H144423   0.166   5.025  12.434  0.0333  0.3709  0.3775
 7644TIP3    H244424   0.079   4.967  12.324 -0.6627 -1.3402  1.7664
 7645TIP3   OH244425   2.628   5.985   4.409  0.2672 -0.1749 -0.3103
 7645TIP3    H144426   2.724   5.988   4.404  0.3411 -1.4595  0.0388
 7645TIP3    H244427   2.603   6.071   4.442  1.3226  0.0566 -0.0841
 7646TIP3   OH244428   1.573   4.079   2.644  0.2402 -0.1545  0.0642
 7646TIP3    H144429   1.552   3.985   2.638  0.4707 -0.1893 -0.2468
 7646TIP3    H244430   1.654   4.082   2.695  1.3967 -0.2981 -1.6754
 7647TIP3   OH244431   6.037   6.535   4.245  0.1303  0.4389 -0.9645
 7647TIP3    H144432   6.044   6.442   4.264  3.0930  1.1898  2.6706
 7647TIP3    H244433   5.959   6.564   4.293 -0.6112 -0.0733 -1.8414
 7648TIP3   OH244434   6.388   0.264   0.451  0.3393  0.1063  0.3837
 7648TIP3    H144435   6.357   0.193   0.394  0.4536  0.9251 -0.7235
 7648TIP3    H244436   6.436   0.322   0.393 -0.2619  1.4153  1.1603
 7649TIP3   OH244437   3.746   2.519   5.641 -0.0472 -0.2881  0.3069
 7649TIP3    H144438   3.729   2.559   5.555  0.0107 -0.6652  0.1204
 7649TIP3    H244439   3.837   2.542   5.660  0.2072 -0.9113 -0.1177
 7650TIP3   OH244440   6.260   5.151  13.520 -0.1130 -0.5420 -0.6860
 7650TIP3    H144441   6.238   5.100  13.442 -0.9529  1.8096 -2.0849
 7650TIP3    H244442   6.184   5.207  13.534  0.8270  0.4532  0.6831
 7651TIP3   OH244443   3.645   1.595  13.922  0.1061 -0.4262  0.3559
 7651TIP3    H144444   3.559   1.621  13.892 -0.8909 -2.4745  1.1924
 7651TIP3    H244445   3.630   1.511  13.967  2.5320 -0.8812  0.4636
 7652TIP3   OH244446   2.933   3.124  12.202 -0.3208 -0.6287  0.0382
 7652TIP3    H144447   2.856   3.169  12.239  0.9933  0.6989  1.3064
 7652TIP3    H244448   2.968   3.073  12.274  0.7807 -0.0990 -0.0988
 7653TIP3   OH244449   0.593   2.708   5.359  0.4451  0.1360 -0.4983
 7653TIP3    H144450   0.652   2.766   5.407  2.3512 -0.1066 -2.4128
 7653TIP3    H244451   0.651   2.645   5.317 -1.2883 -0.7900 -1.5771
 7654TIP3   OH244452   5.692   6.772  15.780 -0.0551  0.0583  0.2171
 7654TIP3    H144453   5.603   6.782  15.813 -0.0956 -0.2959  0.2244
 7654TIP3    H244454   5.745   6.752  15.857  0.3594  2.0135  0.4978
 7655TIP3   OH244455   2.899   4.090   4.044  0.1774  0.2117  0.4216
 7655TIP3    H144456   2.846   4.119   3.970  1.1633  1.9625  0.3263
 7655TIP3    H244457   2.845   4.108   4.121 -1.1879 -2.3949  0.1491
 7656TIP3   OH244458   6.205   2.950  13.408 -0.4337  0.1088 -0.1678
 7656TIP3    H144459   6.216   3.025  13.350  1.2038  0.3912  0.4661
 7656TIP3    H244460   6.220   2.874  13.353  1.2301  0.3778 -0.1219
 7657TIP3   OH244461   0.069   0.769   0.449 -0.4900 -0.4436  0.0331
 7657TIP3    H144462   0.095   0.753   0.358 -0.8791  1.0146 -0.3629
 7657TIP3    H244463   0.149   0.802   0.492 -0.2958 -1.1712  0.2356
 7658TIP3   OH244464   6.546   2.965  11.703  1.0139  0.4303 -0.3794
 7658TIP3    H144465   6.600   2.909  11.648  1.0467 -1.2899  1.3123
 7658TIP3    H244466   6.557   2.931  11.791 -0.1651  2.1858  0.5111
 7659TIP3   OH244467   1.088   4.106  16.280  0.3435  0.5734 -0.4931
 7659TIP3    H144468   0.992   4.099  16.278  0.2992  1.0295 -0.0874
 7659TIP3    H244469   1.114   4.092  16.189  0.1242 -2.3537 -0.1953
 7660TIP3   OH244470   4.648   0.489   4.374 -0.2532  0.2834  0.2598
 7660TIP3    H144471   4.651   0.563   4.435 -1.1429 -0.2998  1.0285
 7660TIP3    H244472   4.555   0.467   4.366  0.1210 -2.3001  1.9817
 7661TIP3   OH244473   3.808   1.596   5.475  0.7633  0.0223  0.0627
 7661TIP3    H144474   3.766   1.681   5.459  1.6686  0.2853 -1.0782
 7661TIP3    H244475   3.808   1.553   5.390  2.9697  0.1290 -0.0629
 7662TIP3   OH244476   3.576   5.691  11.730  0.0804  0.0530 -0.1670
 7662TIP3    H144477   3.593   5.597  11.732 -0.5481 -0.0590  0.3663
 7662TIP3    H244478   3.635   5.725  11.663 -0.0410 -0.7921 -0.7248
 7663TIP3   OH244479   2.812   1.014  15.620  0.3237 -0.0552  0.1571
 7663TIP3    H144480   2.831   1.079  15.553  1.5901 -0.9323 -0.3704
 7663TIP3    H244481   2.820   0.930  15.575 -1.1914 -0.6113  0.8404
 7664TIP3   OH244482   5.908   3.794   1.239 -0.1453 -0.1654 -0.3993
 7664TIP3    H144483   5.946   3.790   1.327 -1.0940 -1.8130 -0.0232
 7664TIP3    H244484   5.983   3.796   1.180  0.5300 -1.1470  0.3974
 7665TIP3   OH244485   4.723   6.236  16.692 -0.4700 -0.1856 -0.4637
 7665TIP3    H144486   4.650   6.275  16.739 -0.4249 -0.5682 -0.0714
 7665TIP3    H244487   4.734   6.149  16.731 -0.6126 -0.6256 -1.3711
 7666TIP3   OH244488   4.418   3.081   4.053  0.3595 -0.1201 -0.1096
 7666TIP3    H144489   4.443   3.173   4.062 -0.4380  0.1098 -0.1045
 7666TIP3    H244490   4.387   3.056   4.140 -0.6019 -0.0176 -0.4142
 7667TIP3   OH244491   3.723   0.059  12.359 -0.4456 -0.3659 -0.5118
 7667TIP3    H144492   3.659   0.080  12.291  1.3472  1.7034 -1.7013
 7667TIP3    H244493   3.805   0.046  12.311  0.6755  0.1508  1.1670
 7668TIP3   OH244494   4.761   5.775   2.959 -0.3257 -0.1303 -0.2478
 7668TIP3    H144495   4.838   5.829   2.977 -1.3862  1.3412  0.0883
 7668TIP3    H244496   4.744   5.729   3.042 -1.0640  1.2439  0.4041
 7669TIP3   OH244497   6.562   6.246   3.779  0.1204  0.2236  0.4098
 7669TIP3    H144498   6.645   6.292   3.793 -0.3484  1.1042  0.4076
 7669TIP3    H244499   6.586   6.169   3.728  0.7085  1.4152 -1.2025
 7670TIP3   OH244500   2.169   2.330  12.593  0.1329 -0.3036  0.4130
 7670TIP3    H144501   2.113   2.271  12.543 -0.2518  1.3825 -1.2852
 7670TIP3    H244502   2.257   2.296  12.581 -0.2489 -1.6521  1.1744
 7671TIP3   OH244503   4.883   2.130   3.680 -0.1959  0.7684 -0.2445
 7671TIP3    H144504   4.882   2.047   3.727 -1.0261  0.7666 -0.2474
 7671TIP3    H244505   4.951   2.181   3.723 -0.6184  0.5919  0.6583
 7672TIP3   OH244506   6.408   3.239  11.169  0.3954  0.6088 -0.3450
 7672TIP3    H144507   6.477   3.287  11.124  2.1915 -0.8872  0.6845
 7672TIP3    H244508   6.412   3.151  11.133 -1.0177  0.4857 -0.2647
 7673TIP3   OH244509   0.168   1.520  11.255  0.2361  0.5657  0.6438
 7673TIP3    H144510   0.192   1.516  11.348  0.9060 -1.9711  0.4369
 7673TIP3    H244511   0.252   1.526  11.210 -0.0102  0.3698  0.1569
 7674TIP3   OH244512   6.668   3.819   5.923  0.0941 -0.2771 -0.0885
 7674TIP3    H144513   6.721   3.889   5.961  1.9619 -1.7275  0.1464
 7674TIP3    H244514   6.619   3.784   5.998 -0.4786  0.4518 -0.1158
 7675TIP3   OH244515   3.602   1.425   0.991  0.2093  0.4528  0.0260
 7675TIP3    H144516   3.614   1.333   0.967  1.4442  0.7821 -0.7308
 7675TIP3    H244517   3.544   1.460   0.923  0.9279  0.5682 -0.5411
 7676TIP3   OH244518   1.050   4.338  11.703  0.0331  0.3229 -0.2369
 7676TIP3    H144519   1.080   4.283  11.631  1.3698 -0.2728  0.7530
 7676TIP3    H244520   0.976   4.290  11.740 -0.2681  0.3331 -0.8011
 7677TIP3   OH244521   4.672   3.674   1.973 -0.4081  0.1095  0.1261
 7677TIP3    H144522   4.605   3.615   2.009 -1.0606  0.2618 -0.8094
 7677TIP3    H244523   4.751   3.653   2.023 -1.3343  0.5461  1.8817
 7678TIP3   OH244524   1.786   3.761   1.960 -0.2128 -0.0530 -0.1584
 7678TIP3    H144525   1.729   3.833   1.987  0.0494  0.1988 -0.2683
 7678TIP3    H244526   1.778   3.696   2.029  0.4779  0.5961  0.5467
 7679TIP3   OH244527   6.013   1.738   4.458 -0.3632  0.3293  0.1171
 7679TIP3    H144528   6.049   1.780   4.536 -0.0131 -0.7789  0.5666
 7679TIP3    H244529   6.088   1.692   4.420 -0.8573 -0.3399 -0.0567
 7680TIP3   OH244530   5.165   1.623  16.768 -0.2991 -0.0236  0.4184
 7680TIP3    H144531   5.100   1.554  16.754  0.5752 -0.5693 -1.1135
 7680TIP3    H244532   5.176   1.664  16.683  0.5017  0.8481  0.9197
 7681TIP3   OH244533   3.675   5.217  12.641 -0.4220  0.1505  0.5375
 7681TIP3    H144534   3.759   5.173  12.625  0.6178  1.7221  1.4485
 7681TIP3    H244535   3.613   5.145  12.652  1.0680 -1.0940  1.2640
 7682TIP3   OH244536   5.343   0.169  14.673 -0.0922 -0.3064 -0.0727
 7682TIP3    H144537   5.302   0.107  14.733 -0.0730  0.3853  0.6792
 7682TIP3    H244538   5.288   0.248  14.679 -0.4015 -0.3944 -1.3806
 7683TIP3   OH244539   5.224   1.983  11.926  0.1624  0.0698  0.6322
 7683TIP3    H144540   5.225   1.929  11.847 -1.4226  0.3260  0.4035
 7683TIP3    H244541   5.187   1.926  11.994  0.3846  0.2387  0.8999
 7684TIP3   OH244542   0.841   2.823  12.600  0.5910 -0.3744 -0.3513
 7684TIP3    H144543   0.926   2.849  12.634  0.7320 -0.1092 -0.8838
 7684TIP3    H244544   0.842   2.728  12.601  0.9341 -0.3720 -0.4456
 7685TIP3   OH244545   2.016   2.867   3.973  0.7942  0.0874  0.4629
 7685TIP3    H144546   2.051   2.778   3.961 -0.3753 -0.7935  2.9132
 7685TIP3    H244547   2.093   2.924   3.967  2.3384 -1.5195  2.9063
 7686TIP3   OH244548   6.232   5.265  12.304 -0.2054  0.0406 -0.1179
 7686TIP3    H144549   6.152   5.224  12.338 -2.1112  2.3483 -1.5580
 7686TIP3    H244550   6.242   5.346  12.354 -0.2220  1.0061 -1.6172
 7687TIP3   OH244551   3.075   3.552   0.629  0.6269  0.8115 -1.0945
 7687TIP3    H144552   3.161   3.589   0.648  0.6945  2.0076 -3.3140
 7687TIP3    H244553   3.035   3.615   0.568 -1.4172 -0.2164 -0.9022
 7688TIP3   OH244554   6.817   2.134  11.956  0.1035 -0.5173  0.3066
 7688TIP3    H144555   6.886   2.074  11.927  1.7955  1.0332  0.9235
 7688TIP3    H244556   6.855   2.178  12.032 -0.8678  1.6670 -0.4029
 7689TIP3   OH244557   4.078   1.796  14.607 -0.8994  0.2267 -1.0013
 7689TIP3    H144558   4.099   1.713  14.650 -0.6736  1.7592  2.0427
 7689TIP3    H244559   4.095   1.863  14.673 -0.7021  2.7812 -3.4688
 7690TIP3   OH244560   3.484   6.597  11.545 -0.0206 -0.0794 -0.1533
 7690TIP3    H144561   3.546   6.566  11.478 -1.7935  1.0215 -2.4662
 7690TIP3    H244562   3.461   6.685  11.517 -0.5585  0.5862  2.2055
 7691TIP3   OH244563   2.138   4.859  12.145 -0.3353 -0.2028  0.0017
 7691TIP3    H144564   2.118   4.886  12.235  1.1605  0.4750  0.1628
 7691TIP3    H244565   2.160   4.940  12.100  0.1959 -0.6866 -0.6219
 7692TIP3   OH244566   1.226   2.739   0.877  0.6685  0.2295  0.2996
 7692TIP3    H144567   1.218   2.811   0.814 -0.8391  0.0370  0.2140
 7692TIP3    H244568   1.142   2.693   0.870  1.4047 -1.2221  0.7366
 7693TIP3   OH244569   3.483   5.727  16.586  0.7836  0.5559 -0.0910
 7693TIP3    H144570   3.458   5.819  16.572  1.3090  0.9648  1.4227
 7693TIP3    H244571   3.569   5.732  16.627  0.9361 -0.6380 -0.2422
 7694TIP3   OH244572   1.768   0.263  10.990 -0.2046 -0.0670 -0.0270
 7694TIP3    H144573   1.854   0.225  11.004 -0.3203 -1.3685 -2.3781
 7694TIP3    H244574   1.776   0.314  10.910 -2.0055 -1.7798 -1.4149
 7695TIP3   OH244575   0.431   6.155  13.792 -0.1348 -0.5613  0.2117
 7695TIP3    H144576   0.517   6.197  13.791 -0.9938  1.3361 -1.1569
 7695TIP3    H244577   0.421   6.123  13.881  0.1683  3.3086  1.8644
 7696TIP3   OH244578   1.909   6.663   5.400 -0.3029 -0.5019 -0.0042
 7696TIP3    H144579   1.857   6.734   5.437 -0.2058 -0.6339  0.3915
 7696TIP3    H244580   1.876   6.653   5.311  1.2047  1.5746 -0.8820
 7697TIP3   OH244581   0.385   2.347  10.198  0.1252 -0.6152  0.1119
 7697TIP3    H144582   0.468   2.334  10.153 -0.2014 -2.7556  0.0109
 7697TIP3    H244583   0.342   2.418  10.150  1.1542 -0.6740 -0.9374
 7698TIP3   OH244584   5.997   3.386  14.775  0.2419  0.4909 -0.1443
 7698TIP3    H144585   6.081   3.364  14.734  0.2650 -2.7380  1.3817
 7698TIP3    H244586   6.019   3.408  14.866 -0.2788  3.3415 -0.5951
 7699TIP3   OH244587   1.853   4.633   1.257  0.1305 -0.4428 -0.3967
 7699TIP3    H144588   1.836   4.682   1.338  0.1025  1.0290 -1.2743
 7699TIP3    H244589   1.948   4.640   1.245 -0.2173  2.5578 -2.4028
 7700TIP3   OH244590   2.595   1.709   0.209 -0.1920  0.0845  0.6905
 7700TIP3    H144591   2.635   1.623   0.194  1.0698  0.8813 -0.8002
 7700TIP3    H244592   2.504   1.689   0.231 -1.0669 -1.6060 -3.3815
 7701TIP3   OH244593   3.146   5.910   5.796  0.6716  0.3107 -0.0960
 7701TIP3    H144594   3.165   5.871   5.882  0.4853 -0.2258 -0.2951
 7701TIP3    H244595   3.220   5.968   5.779  1.7973 -1.1971 -0.5329
 7702TIP3   OH244596   1.708   3.419  11.987  1.1253 -0.0221  0.0714
 7702TIP3    H144597   1.768   3.447  11.918 -0.2803  1.2855 -0.6870
 7702TIP3    H244598   1.706   3.493  12.048  0.0730  0.1024 -0.0889
 7703TIP3   OH244599   0.692   3.151  16.108  0.1793 -0.1887  0.3720
 7703TIP3    H144600   0.687   3.148  16.203  0.8387  2.2839  0.5655
 7703TIP3    H244601   0.638   3.226  16.083 -0.0878 -0.8659 -1.2302
 7704TIP3   OH244602   1.446   1.623   0.108 -0.0418 -0.5109 -0.4847
 7704TIP3    H144603   1.466   1.529   0.102  1.5765 -0.1554 -1.1940
 7704TIP3    H244604   1.482   1.649   0.193 -1.2420 -0.6736  0.0959
 7705TIP3   OH244605   5.775   0.424  14.040  0.4329 -0.2889  0.2169
 7705TIP3    H144606   5.711   0.394  14.104  0.1137 -1.0652 -0.4463
 7705TIP3    H244607   5.769   0.360  13.968 -0.4939  1.5195 -1.3909
 7706TIP3   OH244608   1.091   2.705  10.751 -0.4725 -0.3777  0.3741
 7706TIP3    H144609   1.088   2.787  10.701 -0.6125 -0.8455 -0.4167
 7706TIP3    H244610   1.000   2.687  10.772 -0.5088 -0.6442  0.0032
 7707TIP3   OH244611   1.183   0.393  12.067 -0.6212 -0.3343 -0.0727
 7707TIP3    H144612   1.237   0.319  12.040  1.2983  0.8495  0.3315
 7707TIP3    H244613   1.234   0.470  12.042 -1.9731  0.8499  0.6632
 7708TIP3   OH244614   5.620   1.091  14.393  0.0763 -0.0921 -0.5975
 7708TIP3    H144615   5.553   1.142  14.349  0.5289  0.3834 -0.7567
 7708TIP3    H244616   5.617   1.005  14.353  0.4675  0.3269 -1.5502
 7709TIP3   OH244617   3.303   2.581   0.737 -0.4609 -0.3408  0.2514
 7709TIP3    H144618   3.246   2.652   0.766 -1.1595 -0.9429  0.4024
 7709TIP3    H244619   3.275   2.563   0.647 -0.4721 -0.6014  0.3052
 7710TIP3   OH244620   0.982   3.298   6.512  0.4036  0.4285  0.5741
 7710TIP3    H144621   0.973   3.209   6.545 -0.3513  0.6075  0.8630
 7710TIP3    H244622   0.939   3.297   6.427 -1.8410  1.0868  1.6139
 7711TIP3   OH244623   3.796   2.744   1.454  0.3383  0.0341 -0.1340
 7711TIP3    H144624   3.717   2.718   1.407  0.5433 -0.8318 -0.0131
 7711TIP3    H244625   3.764   2.784   1.535  0.0207 -1.1827  0.3652
 7712TIP3   OH244626   2.181   4.197   3.782  0.3165 -0.2412 -0.2545
 7712TIP3    H144627   2.272   4.209   3.807  0.4806 -1.5634 -0.1890
 7712TIP3    H244628   2.185   4.150   3.698 -0.2950  0.6129 -0.7863
 7713TIP3   OH244629   2.274   1.835  11.189  0.1462  0.4637 -0.3179
 7713TIP3    H144630   2.254   1.859  11.280 -0.7046  0.7134 -0.5628
 7713TIP3    H244631   2.368   1.817  11.189 -0.3100 -2.4501  1.2782
 7714TIP3   OH244632   2.697   0.943  15.200  0.3212  0.0376  0.2113
 7714TIP3    H144633   2.682   1.013  15.263  1.9308  0.1403  0.5158
 7714TIP3    H244634   2.717   0.989  15.118 -2.2433 -0.0841 -0.5978
 7715TIP3   OH244635   2.772   6.563  13.132 -0.9400  0.0652 -0.7015
 7715TIP3    H144636   2.822   6.505  13.074 -0.1617 -0.3995  0.3952
 7715TIP3    H244637   2.708   6.604  13.075 -0.2539 -0.4340 -1.8771
 7716TIP3   OH244638   2.098   1.808   1.750  0.7315  0.1591  0.6729
 7716TIP3    H144639   2.084   1.831   1.658  1.5241  0.2101  0.5516
 7716TIP3    H244640   2.018   1.834   1.795  0.7580  1.1361  0.1764
 7717TIP3   OH244641   3.261   3.203  14.354  0.3158  0.0940  0.2547
 7717TIP3    H144642   3.281   3.113  14.381  1.6218  0.5870  1.0569
 7717TIP3    H244643   3.313   3.257  14.413  1.2745  1.3339 -1.6332
 7718TIP3   OH244644   2.999   0.276   0.843  0.1369  0.0410  0.3326
 7718TIP3    H144645   3.015   0.197   0.791  0.7433  1.3174 -1.5105
 7718TIP3    H244646   2.904   0.278   0.855  0.0500 -0.5969 -0.2168
 7719TIP3   OH244647   1.742   6.004  15.838 -0.4900  0.6608 -0.3105
 7719TIP3    H144648   1.656   6.035  15.811 -1.3709 -0.6738  0.8370
 7719TIP3    H244649   1.735   5.993  15.932  0.7164 -0.1462 -0.2975
 7720TIP3   OH244650   3.467   1.383  12.504  0.1531 -0.1271  0.2437
 7720TIP3    H144651   3.481   1.379  12.599 -0.7377  1.8150  0.5046
 7720TIP3    H244652   3.373   1.400  12.495  0.4219  0.8233 -0.9394
 7721TIP3   OH244653   6.621   3.559   0.797  0.0050  0.6096  0.4457
 7721TIP3    H144654   6.690   3.492   0.793 -0.4829 -0.0951  2.5122
 7721TIP3    H244655   6.561   3.536   0.725  0.2948 -0.6785  0.5885
 7722TIP3   OH244656   1.168   2.951   3.709 -0.1128 -0.2656 -0.6470
 7722TIP3    H144657   1.093   2.909   3.667 -0.0128 -2.8281  1.4660
 7722TIP3    H244658   1.130   3.013   3.772 -0.4363 -0.6863 -0.4260
 7723TIP3   OH244659   5.947   1.093  16.684 -0.3145 -0.0811 -0.2124
 7723TIP3    H144660   5.979   1.115  16.596 -0.6388  0.3095 -0.2330
 7723TIP3    H244661   5.940   1.177  16.729 -3.5601  0.1652 -0.9487
 7724TIP3   OH244662   6.317   1.837   5.008  0.3502 -0.0887  0.4211
 7724TIP3    H144663   6.370   1.894   4.953  0.6977 -1.2162 -0.4497
 7724TIP3    H244664   6.338   1.865   5.098  1.4843  0.2945  0.0613
 7725TIP3   OH244665   2.954   1.292  10.958 -0.0210 -0.1259 -0.3767
 7725TIP3    H144666   2.980   1.305  10.867  1.9495 -0.4541  0.1082
 7725TIP3    H244667   3.027   1.245  10.998 -0.3976  0.8951  1.6369
 7726TIP3   OH244668   6.038   2.192  13.081  0.5996 -0.8523 -0.3010
 7726TIP3    H144669   6.047   2.196  13.176 -0.4579 -1.1818 -0.1655
 7726TIP3    H244670   6.093   2.262  13.048  0.3849 -0.2441  0.6046
 7727TIP3   OH244671   5.744   2.970  11.587  0.2595 -0.6477 -0.5748
 7727TIP3    H144672   5.766   2.985  11.495  0.0569 -0.6211 -0.6183
 7727TIP3    H244673   5.674   3.032  11.606  0.4638 -0.4868 -0.3361
 7728TIP3   OH244674   1.489   1.205  16.446  0.5299  0.4798 -0.1159
 7728TIP3    H144675   1.393   1.215  16.444  0.2617 -1.2416  1.4361
 7728TIP3    H244676   1.504   1.116  16.416  1.7263  0.9275 -0.9111
 7729TIP3   OH244677   6.778   4.456   0.333 -0.4718 -0.3586  0.1777
 7729TIP3    H144678   6.693   4.494   0.358 -0.4430  0.9751 -1.5934
 7729TIP3    H244679   6.755   4.372   0.292 -1.0674  0.4791 -1.2762
 7730TIP3   OH244680   6.507   1.124  11.030 -0.1697  0.2428  0.1695
 7730TIP3    H144681   6.477   1.194  10.973 -0.7443  1.0481  1.4104
 7730TIP3    H244682   6.484   1.043  10.984  1.4528  0.7957 -1.7931
 7731TIP3   OH244683   6.306   3.821  11.339 -0.3644 -0.3872 -0.5409
 7731TIP3    H144684   6.260   3.823  11.255  1.0368  0.1168 -1.3260
 7731TIP3    H244685   6.266   3.891  11.390 -2.6694 -2.0245  0.0528
 7732TIP3   OH244686   0.347   5.763  15.138 -0.2327  0.2192  0.0174
 7732TIP3    H144687   0.297   5.771  15.056  0.1596  0.5561 -0.1914
 7732TIP3    H244688   0.411   5.695  15.120 -0.0546  0.3924 -0.0002
 7733TIP3   OH244689   0.923   5.665   0.007  0.2843  0.0498  0.3182
 7733TIP3    H144690   0.907   5.736  -0.055  0.8181  0.2051  0.3557
 7733TIP3    H244691   0.839   5.651   0.050 -0.2627 -0.4866 -0.8844
 7734TIP3   OH244692   5.912   1.627  15.093  0.3740 -0.0744 -0.3191
 7734TIP3    H144693   5.958   1.560  15.144  2.2422  0.8413 -0.7307
 7734TIP3    H244694   5.827   1.587  15.073  1.0128 -1.8841  0.3661
 7735TIP3   OH244695   0.756   1.027  12.358 -0.3608 -0.2159 -0.6312
 7735TIP3    H144696   0.849   1.008  12.369 -0.1975  1.8550  3.0211
 7735TIP3    H244697   0.752   1.078  12.277  1.6452 -0.4785 -0.9573
 7736TIP3   OH244698   6.443   1.553   3.342  0.1208 -0.3632  0.5898
 7736TIP3    H144699   6.457   1.546   3.248 -0.3574 -0.1843  0.5013
 7736TIP3    H244700   6.440   1.648   3.359  1.7890 -0.3684  1.0331
 7737TIP3   OH244701   3.517   4.649  13.365  0.1701 -0.4064  0.1059
 7737TIP3    H144702   3.510   4.581  13.432 -2.6824 -0.7746 -0.4271
 7737TIP3    H244703   3.515   4.731  13.414  0.5351 -0.6850  0.5959
 7738TIP3   OH244704   3.311   1.729   5.212  0.0375 -0.4485  0.4684
 7738TIP3    H144705   3.284   1.679   5.136 -0.1478 -1.0790  0.9387
 7738TIP3    H244706   3.230   1.767   5.246  0.1691  0.1134  0.1492
 7739TIP3   OH244707   2.257   2.295  16.373  0.0580  0.1010  0.1818
 7739TIP3    H144708   2.243   2.389  16.382 -2.1419 -0.3184  1.9355
 7739TIP3    H244709   2.330   2.276  16.431  0.5987  0.7320 -0.2782
 7740TIP3   OH244710   3.547   6.619  10.209  0.3068 -0.4946 -0.1312
 7740TIP3    H144711   3.478   6.646  10.148 -1.6532 -0.5902  1.9029
 7740TIP3    H244712   3.524   6.528  10.232 -0.2564  0.1545  2.2139
 7741TIP3   OH244713   5.622   0.723  11.001  0.2060 -0.1879 -0.3714
 7741TIP3    H144714   5.649   0.765  10.919 -2.4976  1.1989 -0.6838
 7741TIP3    H244715   5.564   0.652  10.972  0.3894 -0.6258  0.3238
 7742TIP3   OH244716   2.487   3.630  15.455  0.2975 -0.0235 -0.0656
 7742TIP3    H144717   2.421   3.582  15.504  1.0315 -0.8474  0.1413
 7742TIP3    H244718   2.462   3.722  15.465 -0.8780 -0.3251 -0.1068
 7743TIP3   OH244719   0.988   5.318   5.040  0.1505 -0.1272 -0.2726
 7743TIP3    H144720   0.892   5.325   5.040  0.2084  1.6300 -2.4681
 7743TIP3    H244721   1.017   5.393   5.093  0.3153  0.5213 -1.2552
 7744TIP3   OH244722   5.189   0.026   3.645  0.4302 -0.2116  0.1774
 7744TIP3    H144723   5.133  -0.029   3.592  0.3522 -0.8019  0.8530
 7744TIP3    H244724   5.138   0.106   3.660 -2.2650 -2.3231  4.3936
 7745TIP3   OH244725   1.652   6.665  13.800 -0.1741  0.4228  0.4166
 7745TIP3    H144726   1.629   6.572  13.809 -1.2030  0.6070 -0.1112
 7745TIP3    H244727   1.569   6.708  13.781  0.4670  1.3046 -0.4677
 7746TIP3   OH244728   0.857   2.437   4.743 -1.0040  0.5610 -0.1937
 7746TIP3    H144729   0.910   2.391   4.808 -0.1311  0.7828 -0.7460
 7746TIP3    H244730   0.844   2.525   4.779  0.1601  0.9419 -0.6791
 7747TIP3   OH244731   0.532   3.731   4.358 -0.4001 -0.4619  0.1846
 7747TIP3    H144732   0.551   3.825   4.359  0.1667 -0.5574 -0.7758
 7747TIP3    H244733   0.437   3.726   4.358 -0.4544  0.1486 -1.2301
 7748TIP3   OH244734   3.801   0.930  15.455 -0.5446 -0.4645  0.2302
 7748TIP3    H144735   3.885   0.930  15.410 -0.5072  0.9722  0.2686
 7748TIP3    H244736   3.766   0.842  15.442  1.1860 -1.2466  0.6388
 7749TIP3   OH244737   3.262   0.008  13.247  0.1405  0.1680  0.1404
 7749TIP3    H144738   3.336  -0.049  13.266 -0.6155 -0.5400  1.1175
 7749TIP3    H244739   3.299   0.097  13.247  0.7068  0.0190  2.5434
 7750TIP3   OH244740   6.296   3.388   4.240 -0.0163 -0.3032 -0.0993
 7750TIP3    H144741   6.301   3.296   4.212 -2.1045 -1.9152  4.0006
 7750TIP3    H244742   6.342   3.390   4.323 -0.7622  2.1957  0.3264
 7751TIP3   OH244743   1.915   0.918  16.702 -0.0759  0.3724 -0.2084
 7751TIP3    H144744   1.938   0.880  16.617  3.0091 -1.1435  1.1294
 7751TIP3    H244745   1.972   0.994  16.711 -0.7653  0.8411  0.2793
 7752TIP3   OH244746   6.036   4.600   1.872  0.3579 -0.1245  1.1448
 7752TIP3    H144747   6.038   4.692   1.898  0.6830  0.0573  0.5000
 7752TIP3    H244748   5.995   4.601   1.786  3.2280 -0.1985 -0.3257
 7753TIP3   OH244749   4.259   4.015  14.114  0.5664  0.0828  0.4674
 7753TIP3    H144750   4.279   3.928  14.147  0.9109  1.2068  3.5506
 7753TIP3    H244751   4.345   4.054  14.097  0.5397  0.5943  1.4260
 7754TIP3   OH244752   6.423   6.723   4.089  0.4850 -0.4087 -0.1160
 7754TIP3    H144753   6.337   6.750   4.122  0.0373 -2.1674  0.2490
 7754TIP3    H244754   6.473   6.704   4.168  0.7032 -0.8864 -0.3705
 7755TIP3   OH244755   1.430   1.507  13.886  0.3478 -0.2030 -0.8338
 7755TIP3    H144756   1.421   1.413  13.898 -1.7498 -0.2058 -1.9555
 7755TIP3    H244757   1.509   1.517  13.832 -0.9985 -1.6063 -3.2394
 7756TIP3   OH244758   1.776   3.300   0.473 -0.2751  0.3114 -0.1887
 7756TIP3    H144759   1.854   3.344   0.508 -0.0310 -0.2129 -0.0655
 7756TIP3    H244760   1.803   3.209   0.462 -0.4706  0.3736 -1.3558
 7757TIP3   OH244761   5.064   1.592  11.452 -0.1272 -0.0434  0.2941
 7757TIP3    H144762   5.117   1.629  11.381 -0.5000  2.0170  1.0423
 7757TIP3    H244763   5.082   1.648  11.527 -0.9447 -1.2448  1.4196
 7758TIP3   OH244764   1.643   5.614  11.404 -0.0010  0.5870  0.5970
 7758TIP3    H144765   1.672   5.523  11.413 -1.7557 -0.0496  0.0142
 7758TIP3    H244766   1.551   5.613  11.430  0.0563  2.2894  0.9851
 7759TIP3   OH244767   1.817   1.769  14.584 -0.4403 -0.1487  0.0987
 7759TIP3    H144768   1.861   1.812  14.657 -0.9624  0.9107 -0.1949
 7759TIP3    H244769   1.761   1.703  14.625 -1.0089  0.6860  0.6891
 7760TIP3   OH244770   5.090   1.538   0.970 -0.0133 -0.1755  0.3322
 7760TIP3    H144771   5.055   1.616   0.928 -0.4199 -0.1678  0.6768
 7760TIP3    H244772   5.119   1.568   1.056 -1.0802 -0.5957  0.8496
 7761TIP3   OH244773   4.231   4.489  14.631 -0.5215  0.5476 -0.4855
 7761TIP3    H144774   4.287   4.466  14.557  0.8969 -2.0359  1.2547
 7761TIP3    H244775   4.226   4.585  14.628 -0.2836  0.5886 -3.6633
 7762TIP3   OH244776   6.825   4.647   1.940 -0.0355 -0.2548  0.0526
 7762TIP3    H144777   6.881   4.654   2.017 -0.7262 -2.6061  0.8437
 7762TIP3    H244778   6.740   4.678   1.970  0.1662  0.7772 -0.3910
 7763TIP3   OH244779   4.448   5.217  10.764 -0.4874 -0.0853 -0.6512
 7763TIP3    H144780   4.445   5.287  10.829  1.2621  0.0036 -0.5997
 7763TIP3    H244781   4.438   5.261  10.680  0.8684  0.3171 -0.6369
 7764TIP3   OH244782   5.525   5.796  16.656 -0.9536 -0.2389  0.0160
 7764TIP3    H144783   5.535   5.890  16.673 -0.0421  0.2445 -2.6828
 7764TIP3    H244784   5.432   5.785  16.637 -0.6452  0.8123 -2.6388
 7765TIP3   OH244785   0.636   5.927   1.549  0.3927  0.3367 -0.3694
 7765TIP3    H144786   0.621   5.953   1.639 -0.9658  2.0838 -1.0364
 7765TIP3    H244787   0.727   5.898   1.546  0.9543  1.8198  1.2127
 7766TIP3   OH244788   0.511   5.720   0.892 -0.7217  0.1045  0.7140
 7766TIP3    H144789   0.426   5.745   0.928 -0.5757  2.9722 -0.6785
 7766TIP3    H244790   0.573   5.778   0.936  0.5916 -1.8631  1.6180
 7767TIP3   OH244791   4.429   3.977  15.277 -0.3730  0.2372  0.0273
 7767TIP3    H144792   4.408   4.040  15.345  1.6632  2.4499 -1.2391
 7767TIP3    H244793   4.470   3.904  15.322  1.6099  1.9750  1.1606
 7768TIP3   OH244794   1.614   3.760  10.776  0.5036 -0.1394  0.1978
 7768TIP3    H144795   1.652   3.675  10.751  1.0596 -0.2039  1.2142
 7768TIP3    H244796   1.673   3.825  10.738 -0.5522 -0.1561 -1.5758
 7769TIP3   OH244797   0.752   0.399  14.145  0.3362 -0.2268  0.8439
 7769TIP3    H144798   0.794   0.338  14.206 -0.1050 -2.6664 -1.1600
 7769TIP3    H244799   0.794   0.383  14.061 -0.3395  1.7370  0.0617
 7770TIP3   OH244800   4.313   0.107   0.525  0.0230  0.0531 -0.4467
 7770TIP3    H144801   4.236   0.091   0.581 -0.1906  1.2335 -0.3847
 7770TIP3    H244802   4.380   0.138   0.585  0.7589 -1.4995 -0.4152
 7771TIP3   OH244803   0.485   2.037  14.099 -0.0795  0.2100 -0.1328
 7771TIP3    H144804   0.409   2.095  14.102 -0.7388 -0.6275 -0.1638
 7771TIP3    H244805   0.506   2.030  14.006  0.1338  0.5607 -0.1126
 7772TIP3   OH244806   2.719   1.311   1.878  0.0603 -0.2327 -0.0791
 7772TIP3    H144807   2.714   1.344   1.967  0.7696  0.0193 -0.1248
 7772TIP3    H244808   2.809   1.328   1.851 -0.4768  0.8975 -1.2974
 7773TIP3   OH244809   0.179   0.168  13.309 -0.4992  0.4219 -0.2307
 7773TIP3    H144810   0.133   0.102  13.360  0.0113  0.2502  0.0087
 7773TIP3    H244811   0.122   0.245  13.314  0.2514  0.8899  1.8700
 7774TIP3   OH244812   0.967   5.482  13.957  0.2997 -0.1529 -0.1452
 7774TIP3    H144813   0.990   5.453  14.045 -1.2261 -2.9647 -0.5701
 7774TIP3    H244814   0.979   5.405  13.902 -3.1039  0.1548 -1.5541
 7775TIP3   OH244815   3.063   2.486  11.628 -0.2668 -0.1932  0.5242
 7775TIP3    H144816   3.109   2.417  11.582  0.9812  0.8222  0.1747
 7775TIP3    H244817   3.088   2.567  11.582 -2.0578  0.4535  0.6150
 7776TIP3   OH244818   0.283   6.115   5.354  0.0693 -0.0254  0.7039
 7776TIP3    H144819   0.350   6.074   5.300 -0.9423  0.8967 -1.4121
 7776TIP3    H244820   0.208   6.056   5.348 -0.7407  1.0623 -0.7386
 7777TIP3   OH244821   5.034   0.488   1.193 -0.2081  0.0378 -0.0937
 7777TIP3    H144822   5.054   0.568   1.242  2.1785 -0.8795  0.5189
 7777TIP3    H244823   4.941   0.473   1.211 -0.4314  2.0067  0.7278
 7778TIP3   OH244824   6.773   6.008   1.606  0.7905  0.0598  0.1647
 7778TIP3    H144825   6.823   5.977   1.531  0.4027  0.3711 -0.2271
 7778TIP3    H244826   6.792   5.945   1.676  0.1525 -0.9650 -0.5697
 7779TIP3   OH244827   0.042   4.829   4.715 -0.1394 -0.4685 -0.1790
 7779TIP3    H144828   0.070   4.787   4.634 -0.2623  0.4767 -0.7235
 7779TIP3    H244829   0.124   4.855   4.758 -0.1023 -0.1843 -0.4235
 7780TIP3   OH244830   2.451   4.230  15.185  0.1105 -0.3994  0.5060
 7780TIP3    H144831   2.426   4.139  15.168 -0.8291 -0.1136  0.3447
 7780TIP3    H244832   2.498   4.226  15.268 -1.1303 -0.8595  1.2151
 7781TIP3   OH244833   1.148   1.645   1.191 -0.3704  0.0463 -0.4215
 7781TIP3    H144834   1.057   1.624   1.172 -0.1888  1.0517 -2.6332
 7781TIP3    H244835   1.164   1.728   1.147  0.5742  1.9980  3.1479
 7782TIP3   OH244836   3.303   1.605   3.537  0.1994  0.3505 -0.2610
 7782TIP3    H144837   3.301   1.673   3.471  0.7701  3.0242  2.2751
 7782TIP3    H244838   3.392   1.608   3.572  0.0812 -1.3584  0.2934
 7783TIP3   OH244839   4.452   1.562  11.563  0.7939 -0.2054 -0.5523
 7783TIP3    H144840   4.512   1.492  11.535 -0.2643 -0.8582 -1.2697
 7783TIP3    H244841   4.380   1.515  11.606  0.3926  0.4962 -0.4562
 7784TIP3   OH244842   3.697   2.795   4.609  0.2884 -0.4535 -0.1547
 7784TIP3    H144843   3.738   2.789   4.695  1.2749  1.5848 -0.4219
 7784TIP3    H244844   3.758   2.752   4.549  0.2984 -0.6118 -0.0295
 7785TIP3   OH244845   6.331   2.294   2.613  0.5124 -0.3480  0.4252
 7785TIP3    H144846   6.360   2.354   2.682  0.2747 -0.1323  0.3372
 7785TIP3    H244847   6.388   2.218   2.623  3.2159  1.2330 -1.6439
 7786TIP3   OH244848   1.830   6.857  12.479  0.1316 -0.3860 -0.0749
 7786TIP3    H144849   1.815   6.769  12.445 -1.0910  0.0933 -0.8615
 7786TIP3    H244850   1.744   6.884  12.513  0.1007  1.0527 -1.2050
 7787TIP3   OH244851   0.234   6.160  15.906  0.7312 -0.3236 -0.1168
 7787TIP3    H144852   0.202   6.250  15.907  1.9833  0.1327  1.0881
 7787TIP3    H244853   0.154   6.107  15.906 -0.0250  0.7713 -0.0362
 7788TIP3   OH244854   6.012   6.573  13.862  0.4581  0.0381  0.4289
 7788TIP3    H144855   6.042   6.575  13.771 -0.8424 -0.3892 -0.0265
 7788TIP3    H244856   6.073   6.514  13.906  1.4542  0.6945 -0.0070
 7789TIP3   OH244857   3.105   4.836  11.648  0.2868  0.0027 -0.5897
 7789TIP3    H144858   3.149   4.921  11.652 -1.7863  1.0942  0.7734
 7789TIP3    H244859   3.167   4.775  11.687  1.2350  1.1663 -0.2237
 7790TIP3   OH244860   0.770   3.995  16.820 -0.7864 -0.2695  0.5477
 7790TIP3    H144861   0.853   3.956  16.850 -0.5866  1.0538  1.8404
 7790TIP3    H244862   0.761   4.075  16.872 -3.0862 -0.5821  0.7612
 7791TIP3   OH244863   3.347   5.526  13.726 -0.1391 -0.4486  0.1387
 7791TIP3    H144864   3.388   5.554  13.807 -0.6354 -0.2124  0.3150
 7791TIP3    H244865   3.382   5.585  13.659  0.1888 -0.5760  0.1990
 7792TIP3   OH244866   3.312   4.013  14.760 -0.2668  0.8082 -0.5419
 7792TIP3    H144867   3.277   4.021  14.849  2.0316 -1.3599  0.6839
 7792TIP3    H244868   3.387   4.073  14.759  0.5424 -0.1826 -0.5136
 7793TIP3   OH244869   4.547   2.175   5.235 -0.3171  0.1889  0.0539
 7793TIP3    H144870   4.626   2.121   5.235 -0.0641  0.5516  0.6902
 7793TIP3    H244871   4.512   2.166   5.323 -1.4115 -0.5602 -0.4369
 7794TIP3   OH244872   2.843   5.029   4.094  0.0395  0.2661  0.0761
 7794TIP3    H144873   2.829   5.115   4.053 -1.0360  0.0411 -0.0688
 7794TIP3    H244874   2.883   4.976   4.026 -0.3336  0.3341 -0.2005
 7795TIP3   OH244875   0.653   0.404  13.111  0.8481 -0.2009  0.2499
 7795TIP3    H144876   0.608   0.336  13.160  0.8378 -0.6746 -0.4026
 7795TIP3    H244877   0.674   0.363  13.027  1.1797  0.4803 -0.0071
 7796TIP3   OH244878   4.667   6.124   0.046 -0.2699  0.1685  0.2413
 7796TIP3    H144879   4.734   6.188   0.071  1.2243 -1.1085 -0.3609
 7796TIP3    H244880   4.676   6.053   0.110 -0.4464 -0.4150 -0.3729
 7797TIP3   OH244881   5.623   4.640  11.506 -0.3293 -0.0702  0.0155
 7797TIP3    H144882   5.620   4.550  11.473 -0.8892 -0.0760  0.0778
 7797TIP3    H244883   5.690   4.683  11.453 -1.4687  0.0294 -1.3962
 7798TIP3   OH244884   0.893   4.122   2.635  0.5190 -0.1560  0.0732
 7798TIP3    H144885   0.888   4.029   2.660 -1.3179 -0.2032 -0.3380
 7798TIP3    H244886   0.826   4.132   2.567 -0.4430  1.8184  1.2375
 7799TIP3   OH244887   6.209   6.857  11.098  0.2872 -0.4324  0.3503
 7799TIP3    H144888   6.130   6.888  11.056  1.0103 -0.9708 -1.4822
 7799TIP3    H244889   6.217   6.911  11.177 -0.2568  1.7495 -1.0039
 7800TIP3   OH244890   3.696   0.432   0.085  0.1193  0.0264 -0.1929
 7800TIP3    H144891   3.736   0.463   0.004  1.3870 -0.1284  0.3528
 7800TIP3    H244892   3.674   0.512   0.132  0.4365  0.1187 -0.1955
 7801TIP3   OH244893   5.414   3.294  11.412 -0.3230  0.3396 -0.3522
 7801TIP3    H144894   5.417   3.376  11.461  1.4532 -0.2307  0.6194
 7801TIP3    H244895   5.332   3.297  11.364 -0.7581  2.2416  0.4174
 7802TIP3   OH244896   4.932   2.797   0.798  0.0151 -0.3965 -0.1075
 7802TIP3    H144897   4.843   2.821   0.823  0.2025 -0.8544  1.0837
 7802TIP3    H244898   4.941   2.827   0.708 -0.6147  1.6562  0.4468
 7803TIP3   OH244899   2.377   0.539   2.203  0.2261 -0.1152  0.1947
 7803TIP3    H144900   2.380   0.576   2.291 -1.5740 -0.7920  0.5929
 7803TIP3    H244901   2.290   0.499   2.197  1.2705 -2.4186 -0.9505
 7804TIP3   OH244902   6.191   6.173  13.156 -0.2922 -0.2050  0.2649
 7804TIP3    H144903   6.261   6.239  13.152 -0.8034  0.4843  1.9382
 7804TIP3    H244904   6.233   6.092  13.126  0.6153  0.6584 -0.8740
 7805TIP3   OH244905   3.476   6.222  15.376 -0.4911  0.5183  0.3026
 7805TIP3    H144906   3.472   6.231  15.472 -0.4797  1.3375  0.2323
 7805TIP3    H244907   3.476   6.312  15.344  0.9412  0.2948 -0.4130
 7806TIP3   OH244908   1.653   1.912  15.069  0.0006  0.6637  0.0969
 7806TIP3    H144909   1.576   1.886  15.120  2.8378  1.2110  5.4130
 7806TIP3    H244910   1.690   1.830  15.038 -2.2074  0.3560 -1.9835
 7807TIP3   OH244911   2.791   6.703  16.644  0.2664  0.0847  0.9009
 7807TIP3    H144912   2.754   6.623  16.681  0.0119  0.2871  1.0980
 7807TIP3    H244913   2.858   6.674  16.583 -1.6490 -0.3928 -1.1169
 7808TIP3   OH244914   0.542   4.338  16.454 -0.2702  0.1361  0.2673
 7808TIP3    H144915   0.593   4.258  16.441 -2.4560 -0.9939 -2.3414
 7808TIP3    H244916   0.544   4.381  16.369 -2.1377  0.9585  0.6064
 7809TIP3   OH244917   0.939   2.283   5.450  0.3703 -0.6916  0.1903
 7809TIP3    H144918   0.950   2.297   5.356  2.4548  0.3272  0.5418
 7809TIP3    H244919   0.844   2.281   5.462  0.0411  0.3165 -1.7719
 7810TIP3   OH244920   3.218   1.131  13.470  0.7173  0.1446  0.0033
 7810TIP3    H144921   3.250   1.139  13.380  0.1524  1.1023 -0.1206
 7810TIP3    H244922   3.131   1.172  13.469  0.3194 -0.6205  0.7898
 7811TIP3   OH244923   5.869   0.177   1.994  0.4613  0.7384 -0.0730
 7811TIP3    H144924   5.815   0.226   2.055  0.4919  1.8557 -0.9178
 7811TIP3    H244925   5.959   0.202   2.015  0.5702  0.0174  0.3565
 7812TIP3   OH244926   0.243   5.596  16.253  0.6186  0.1661  0.6229
 7812TIP3    H144927   0.226   5.632  16.340  2.1463  2.2724  0.1390
 7812TIP3    H244928   0.235   5.672  16.195 -2.2381 -1.5093 -1.4002
 7813TIP3   OH244929   4.327   6.553  10.585 -0.1037  0.5003  0.0525
 7813TIP3    H144930   4.262   6.602  10.634 -0.3153 -0.8012  1.1347
 7813TIP3    H244931   4.320   6.587  10.495  2.2819  5.0267  1.2858
 7814TIP3   OH244932   4.063   1.508  14.990 -0.7911 -0.2768 -0.6359
 7814TIP3    H144933   3.968   1.517  14.986 -0.9705  1.5690  3.1256
 7814TIP3    H244934   4.078   1.425  15.034 -0.6494 -0.4441 -0.9945
 7815TIP3   OH244935   1.082   4.156  13.438 -0.5264  0.2737  0.4847
 7815TIP3    H144936   1.083   4.251  13.448 -0.2267  0.4628 -1.0922
 7815TIP3    H244937   1.080   4.123  13.528 -2.2888  1.7574  1.0503
 7816TIP3   OH244938   0.555   6.088   6.244 -0.1622  0.3456 -0.4137
 7816TIP3    H144939   0.501   6.129   6.177  1.4350  2.4157 -0.5546
 7816TIP3    H244940   0.625   6.152   6.260  0.7694 -1.0794  1.5971
 7817TIP3   OH244941   2.108   1.814   2.526  0.1740 -0.1619 -0.0118
 7817TIP3    H144942   2.079   1.795   2.616 -2.4107 -0.8293 -0.9123
 7817TIP3    H244943   2.173   1.746   2.508 -0.1701 -0.7704  0.9394
 7818TIP3   OH244944   5.247   4.696   3.713 -0.1394  0.4647 -0.5794
 7818TIP3    H144945   5.300   4.696   3.633  0.2595  0.7667 -0.3124
 7818TIP3    H244946   5.273   4.774   3.760  0.1729 -0.1061  0.2192
 7819TIP3   OH244947   0.064   1.548   4.978  0.1761  0.2845 -0.0274
 7819TIP3    H144948   0.054   1.461   5.017 -1.4008  1.0005  1.2795
 7819TIP3    H244949   0.097   1.602   5.050 -0.5649  1.1448 -0.3313
 7820TIP3   OH244950   1.418   2.428  10.579 -0.6959  0.6286 -0.6161
 7820TIP3    H144951   1.474   2.485  10.526 -0.6780  1.1320 -0.0699
 7820TIP3    H244952   1.330   2.463  10.567 -0.5012  1.7452  0.9026
 7821TIP3   OH244953   2.306   4.152  13.316 -0.1817 -0.2262 -0.4035
 7821TIP3    H144954   2.321   4.246  13.314  1.0232 -0.4119 -1.9639
 7821TIP3    H244955   2.253   4.134  13.239 -0.9657 -0.7742  0.2344
 7822TIP3   OH244956   1.074   5.775   0.979 -0.1036 -0.2217  0.1769
 7822TIP3    H144957   1.110   5.813   0.899 -2.2235  0.4302 -0.5195
 7822TIP3    H244958   0.980   5.793   0.975 -0.4415 -1.1738  2.2737
 7823TIP3   OH244959   2.329   3.279  12.278 -0.5908  0.5852  0.0745
 7823TIP3    H144960   2.309   3.360  12.325 -0.7484  0.8912 -0.5000
 7823TIP3    H244961   2.377   3.226  12.340  1.6752  2.0966 -0.2535
 7824TIP3   OH244962   2.862   3.609   4.254  0.8986 -0.6585 -0.0016
 7824TIP3    H144963   2.947   3.566   4.245  0.0847 -2.7513  1.3956
 7824TIP3    H244964   2.837   3.594   4.346 -1.5832 -1.3827 -0.7046
 7825TIP3   OH244965   4.143   0.376  16.326  0.3953 -0.0937 -0.1713
 7825TIP3    H144966   4.128   0.386  16.420 -2.3066 -0.5176 -0.4722
 7825TIP3    H244967   4.206   0.305  16.319  0.4591 -0.2133  1.3121
 7826TIP3   OH244968   0.210   0.813  11.553  0.0201  0.2843 -0.0594
 7826TIP3    H144969   0.299   0.833  11.585 -0.5757 -1.3984  3.1018
 7826TIP3    H244970   0.222   0.741  11.492  0.9380  1.1732 -0.9663
 7827TIP3   OH244971   5.288   0.744   3.920  1.0421  0.6993 -0.0133
 7827TIP3    H144972   5.294   0.754   3.825  1.5901 -2.0643 -0.3547
 7827TIP3    H244973   5.223   0.674   3.933  0.3062  1.6355  1.7161
 7828TIP3   OH244974   2.170   5.215  16.904 -0.2631 -0.2896  0.2461
 7828TIP3    H144975   2.177   5.301  16.946 -1.1670 -1.3274  2.7042
 7828TIP3    H244976   2.258   5.178  16.910 -0.3170 -0.3054  0.9888
 7829TIP3   OH244977   5.832   4.900   3.857 -0.3022  0.0295 -0.6254
 7829TIP3    H144978   5.896   4.859   3.915  0.5127  1.5564 -0.4046
 7829TIP3    H244979   5.773   4.829   3.833  1.6369 -1.5014 -1.0835
 7830TIP3   OH244980   1.991   2.579  16.613  0.0368  0.0256  0.2982
 7830TIP3    H144981   1.930   2.514  16.647 -1.9997  1.4359 -0.4404
 7830TIP3    H244982   2.068   2.529  16.588 -1.7046 -2.2358 -0.9598
 7831TIP3   OH244983   3.046   1.431  14.560  0.3808 -0.0274  0.5337
 7831TIP3    H144984   3.054   1.336  14.569 -0.4300 -0.0151  1.5880
 7831TIP3    H244985   3.128   1.466  14.594  1.3792 -0.3881 -1.3744
 7832TIP3   OH244986   2.849   0.481  14.814 -0.3653 -0.2392  0.1277
 7832TIP3    H144987   2.920   0.477  14.749 -0.8776  1.6005 -0.5907
 7832TIP3    H244988   2.771   0.505  14.763 -1.1597 -0.5621  1.1649
 7833TIP3   OH244989   0.098   1.820  11.131 -0.0473 -0.5906  0.5845
 7833TIP3    H144990   0.149   1.769  11.068 -1.3012 -1.5398  0.3045
 7833TIP3    H244991   0.102   1.910  11.097 -1.5666 -1.2377 -1.5095
 7834TIP3   OH244992   6.198   1.512   0.400  0.4522  0.4888  0.1845
 7834TIP3    H144993   6.159   1.597   0.384  0.5586  0.4762 -0.1415
 7834TIP3    H244994   6.125   1.455   0.423  0.2583  0.4302 -0.5618
 7835TIP3   OH244995   1.467   3.873   2.904 -0.0029  0.0609  0.0118
 7835TIP3    H144996   1.503   3.863   2.816 -1.0220 -1.6324 -0.2649
 7835TIP3    H244997   1.524   3.820   2.960  0.3277  0.6997  0.2872
 7836TIP3   OH244998   3.498   5.870  12.058 -0.4068 -0.3228 -1.0442
 7836TIP3    H144999   3.479   5.894  12.149  2.5010 -0.7187 -0.2174
 7836TIP3    H245000   3.428   5.810  12.034 -0.2104 -1.8374  1.6988
 7837TIP3   OH245001   5.447   6.868  15.886  0.0784  0.3108  0.2370
 7837TIP3    H145002   5.406   6.840  15.968 -2.1098  2.3160 -0.0801
 7837TIP3    H245003   5.484   6.954  15.906  0.9415  0.1196 -0.4865
 7838TIP3   OH245004   1.058   0.263   4.280  0.1822 -0.2196  0.4856
 7838TIP3    H145005   0.998   0.258   4.205  0.6190  0.6405  0.0609
 7838TIP3    H245006   1.015   0.212   4.348 -0.0885 -1.2765 -0.4431
 7839TIP3   OH245007   2.160   6.787  16.627 -0.0978 -0.4928  0.1811
 7839TIP3    H145008   2.116   6.748  16.702  0.9091 -1.1224  0.4472
 7839TIP3    H245009   2.218   6.719  16.594  2.9773  1.2299  1.6851
 7840TIP3   OH245010   3.676   4.897   1.927 -0.4078 -0.1429  0.3453
 7840TIP3    H145011   3.648   4.889   1.836 -0.1354  0.7021  0.1788
 7840TIP3    H245012   3.663   4.809   1.964 -1.6772 -0.1946 -0.1683
 7841TIP3   OH245013   4.443   5.896   6.436  0.4834  0.2707 -0.5117
 7841TIP3    H145014   4.458   5.942   6.518 -0.1341 -0.2924 -0.0785
 7841TIP3    H245015   4.526   5.853   6.417  0.6045  0.3374 -0.1390
 7842TIP3   OH245016   3.541   3.931  12.291 -0.2479 -0.0947  0.2798
 7842TIP3    H145017   3.619   3.942  12.236  1.0722 -0.7482  1.9539
 7842TIP3    H245018   3.520   3.838  12.284 -0.4344 -0.0615  0.4061
 7843TIP3   OH245019   5.762   1.812  14.082 -0.3800  0.0705  0.0109
 7843TIP3    H145020   5.693   1.767  14.032 -0.3658  0.1895 -0.1134
 7843TIP3    H245021   5.829   1.745  14.095  0.2270  0.4052 -1.2918
 7844TIP3   OH245022   2.849   1.234   5.022  0.3930 -0.6118 -0.2152
 7844TIP3    H145023   2.837   1.141   5.004  0.0631 -0.6981  0.4328
 7844TIP3    H245024   2.761   1.267   5.041  0.8382 -0.8417  2.6724
 7845TIP3   OH245025   2.024   4.836   5.917 -0.6355 -0.6343 -0.0023
 7845TIP3    H145026   1.957   4.776   5.950 -1.3333  1.5887  3.0082
 7845TIP3    H245027   2.015   4.914   5.971  2.0163  1.1706 -1.9463
 7846TIP3   OH245028   4.367   0.945   4.068 -0.4746 -0.0574 -0.0448
 7846TIP3    H145029   4.462   0.956   4.059 -0.5088 -1.3538 -3.1078
 7846TIP3    H245030   4.356   0.860   4.111 -0.1864 -0.8489 -1.4721
 7847TIP3   OH245031   0.888   6.535  11.727 -0.0775  0.0573 -0.1546
 7847TIP3    H145032   0.970   6.522  11.773  0.0072 -1.1804 -0.6004
 7847TIP3    H245033   0.910   6.590  11.652  0.5686 -1.0762 -0.8263
 7848TIP3   OH245034   1.537   3.397  15.557 -0.1780 -0.2292 -0.4802
 7848TIP3    H145035   1.494   3.312  15.557 -2.0973  0.6810 -0.5288
 7848TIP3    H245036   1.631   3.377  15.564 -0.6565 -2.2743  1.1126
 7849TIP3   OH245037   4.016   3.621   2.575  0.0060  0.0940  0.9286
 7849TIP3    H145038   4.006   3.532   2.542  2.0206  0.9706 -2.6933
 7849TIP3    H245039   3.927   3.656   2.579 -0.5777 -0.8231 -1.8587
 7850TIP3   OH245040   4.386   4.479   2.289 -0.4244  0.6449 -0.0009
 7850TIP3    H145041   4.361   4.463   2.198 -0.5045  0.7953 -0.0065
 7850TIP3    H245042   4.426   4.397   2.318 -0.7879  0.4544 -0.0362
 7851TIP3   OH245043   3.086   4.357  12.552 -0.1885 -0.0584 -0.4115
 7851TIP3    H145044   3.168   4.309  12.547 -0.8498 -1.1413 -1.1746
 7851TIP3    H245045   3.113   4.449  12.564  1.0866 -0.5407  0.6785
 7852TIP3   OH245046   6.740   6.784   1.152  0.4862  0.2375  0.1842
 7852TIP3    H145047   6.691   6.784   1.070  0.3727  1.8752  0.2249
 7852TIP3    H245048   6.676   6.809   1.218  0.9587  0.6388  0.5001
 7853TIP3   OH245049   1.973   4.752  12.344 -0.0686 -0.0117 -0.0813
 7853TIP3    H145050   1.995   4.719  12.257 -1.6019 -0.8715 -0.1655
 7853TIP3    H245051   1.878   4.744  12.350 -0.1668  1.4819  1.1055
 7854TIP3   OH245052   6.575   6.874   0.929  0.2187 -0.5861  0.0818
 7854TIP3    H145053   6.552   6.950   0.982 -0.4752  0.6814 -1.9404
 7854TIP3    H245054   6.495   6.852   0.882  1.4279  0.0660 -2.4642
 7855TIP3   OH245055   1.606   1.363   1.546 -0.1552 -0.3925  0.4192
 7855TIP3    H145056   1.599   1.307   1.623 -0.4406 -0.6156  0.2323
 7855TIP3    H245057   1.670   1.319   1.490 -0.8410 -0.8589 -0.0034
 7856TIP3   OH245058   0.205   5.543  12.262 -0.5821 -0.3432  0.1115
 7856TIP3    H145059   0.284   5.574  12.219 -0.0136  2.3882  2.7907
 7856TIP3    H245060   0.204   5.448  12.246  2.8569 -0.3621 -0.6109
 7857TIP3   OH245061   4.446   5.081   2.043 -0.1976 -0.2429 -0.3557
 7857TIP3    H145062   4.455   5.160   2.097  0.0764 -0.5824  0.1047
 7857TIP3    H245063   4.354   5.081   2.016  0.2701  1.3369 -2.1057
 7858TIP3   OH245064   0.289   6.178  16.293  0.0038  0.0073 -0.1365
 7858TIP3    H145065   0.236   6.099  16.306  0.3757 -0.3270 -0.6079
 7858TIP3    H245066   0.225   6.246  16.274 -0.4549  0.1891  1.7739
 7859TIP3   OH245067   0.296   5.163  11.496 -0.1402 -0.1855 -0.2477
 7859TIP3    H145068   0.388   5.188  11.511 -0.3942 -0.5674  2.3753
 7859TIP3    H245069   0.301   5.084  11.442  0.9456  1.0970 -2.1215
 7860TIP3   OH245070   3.018   4.023  10.797  0.2481 -0.3204 -0.5022
 7860TIP3    H145071   2.934   4.060  10.769  0.5846 -0.5418 -1.9040
 7860TIP3    H245072   2.994   3.948  10.850 -0.4361  0.3589  0.1859
 7861TIP3   OH245073   1.113   2.994   6.136 -0.3392  0.0813  0.8033
 7861TIP3    H145074   1.080   2.919   6.185  2.4322 -3.1190 -1.6914
 7861TIP3    H245075   1.085   2.977   6.046  4.1553 -0.6953 -0.6835
 7862TIP3   OH245076   3.380   0.777  14.116  0.5947  0.1139  0.5098
 7862TIP3    H145077   3.316   0.829  14.164  2.6997  2.8275  0.6248
 7862TIP3    H245078   3.397   0.827  14.036  2.8649 -0.2693  0.6966
 7863TIP3   OH245079   4.145   5.948   1.924  0.2394 -0.2537 -0.3312
 7863TIP3    H145080   4.204   6.014   1.960  1.4341 -1.8879  0.8106
 7863TIP3    H245081   4.086   5.926   1.996 -1.8514  1.3164 -1.4375
 7864TIP3   OH245082   1.684   0.501   1.626 -0.7923  0.3619  0.0267
 7864TIP3    H145083   1.623   0.555   1.676 -1.2136  0.3506 -0.4684
 7864TIP3    H245084   1.664   0.411   1.652 -0.2141  0.4241  0.7139
 7865TIP3   OH245085   0.501   0.860  16.004  0.1007  0.2727  0.0009
 7865TIP3    H145086   0.593   0.881  16.022 -0.1982  0.2892  1.6679
 7865TIP3    H245087   0.487   0.777  16.051 -0.1573 -0.9183 -2.0793
 7866TIP3   OH245088   4.816   3.664  13.935 -0.2924  0.0123 -0.0922
 7866TIP3    H145089   4.836   3.720  14.010 -0.6226  0.3243 -0.2368
 7866TIP3    H245090   4.901   3.627  13.909  0.3872  2.3591 -1.5462
 7867TIP3   OH245091   5.135   4.690  15.615 -0.2243  0.4368 -0.1812
 7867TIP3    H145092   5.204   4.643  15.568  0.4769  0.5147  0.7449
 7867TIP3    H245093   5.134   4.651  15.702 -1.2034  0.5995 -0.1074
 7868TIP3   OH245094   6.346   3.937  12.509 -0.0398 -0.0481  0.4496
 7868TIP3    H145095   6.278   3.870  12.521  1.4267 -1.4640  1.3082
 7868TIP3    H245096   6.413   3.894  12.455  0.5392  1.0391  0.2629
 7869TIP3   OH245097   6.000   0.561   0.566  0.3261  0.3342  0.4384
 7869TIP3    H145098   6.067   0.534   0.628  1.2473  0.9329 -0.2650
 7869TIP3    H245099   6.011   0.656   0.558 -1.0669  0.5450  0.8292
 7870TIP3   OH245100   0.905   2.830   1.051  0.0170 -1.0460  0.0466
 7870TIP3    H145101   0.872   2.893   1.115 -1.1938 -1.7903  0.1899
 7870TIP3    H245102   0.977   2.786   1.095 -0.4104 -1.1264  0.6708
 7871TIP3   OH245103   3.718   1.296   2.135 -0.4665 -0.1512  0.3182
 7871TIP3    H145104   3.690   1.301   2.044  2.6259 -0.4439 -0.7832
 7871TIP3    H245105   3.668   1.224   2.172 -0.5379 -1.1915 -1.6888
 7872TIP3   OH245106   3.740   3.992  14.009 -0.4871  0.0723  0.5445
 7872TIP3    H145107   3.802   4.021  13.942  1.0833 -1.1482  1.4170
 7872TIP3    H245108   3.674   4.062  14.012 -0.2157  0.4779 -1.7511
 7873TIP3   OH245109   3.159   0.550  15.218 -0.5547 -0.5695  0.6099
 7873TIP3    H145110   3.070   0.535  15.188 -0.8442  1.5665  0.2528
 7873TIP3    H245111   3.187   0.630  15.173  1.4789 -1.0728  0.8659
 7874TIP3   OH245112   4.297   1.367   3.305 -0.0600 -0.0947 -0.1576
 7874TIP3    H145113   4.281   1.395   3.395  1.0464 -0.9290  0.3338
 7874TIP3    H245114   4.211   1.341   3.272 -0.4110 -0.2398  0.8300
 7875TIP3   OH245115   3.091   3.097  14.638  0.2910  0.6649 -0.7466
 7875TIP3    H145116   3.029   3.103  14.565 -0.3091  1.3425 -0.2063
 7875TIP3    H245117   3.121   3.006  14.636  1.6625  1.0963 -2.9147
 7876TIP3   OH245118   4.671   6.392  16.245 -0.0116 -0.4030 -0.1993
 7876TIP3    H145119   4.745   6.448  16.270 -0.2778  0.0314 -0.3611
 7876TIP3    H245120   4.686   6.309  16.290 -0.5720  0.4106  1.5597
 7877TIP3   OH245121   4.046   3.943  15.081 -0.3698  0.3517  0.0872
 7877TIP3    H145122   4.083   3.953  15.169 -0.4683 -0.9598  0.2990
 7877TIP3    H245123   4.032   4.032  15.051  0.9741  0.8517  0.8504
 7878TIP3   OH245124   6.607   0.966  15.519 -0.1251  0.1716 -0.0322
 7878TIP3    H145125   6.543   1.037  15.518  0.7509  1.0536  1.9447
 7878TIP3    H245126   6.560   0.892  15.557 -0.1103  0.6954  1.0355
 7879TIP3   OH245127   3.651   6.701   6.054 -0.3433 -0.5621 -0.4283
 7879TIP3    H145128   3.581   6.704   5.989  0.0371 -0.1788 -0.8253
 7879TIP3    H245129   3.632   6.622   6.106  0.2177 -1.7496 -1.9776
 7880TIP3   OH245130   3.425   1.777   4.586  0.4783 -0.3140 -0.0483
 7880TIP3    H145131   3.385   1.840   4.646 -2.6227 -0.1068 -2.1402
 7880TIP3    H245132   3.407   1.691   4.626  0.6109 -0.0955  0.4934
 7881TIP3   OH245133   1.329   1.674   3.191 -0.0190 -0.0340  0.2401
 7881TIP3    H145134   1.358   1.731   3.262 -0.2380  1.0030 -0.4860
 7881TIP3    H245135   1.404   1.671   3.132 -0.4189  0.4690 -0.3053
 7882TIP3   OH245136   1.610   1.916  12.227  0.3659  0.6547  0.2366
 7882TIP3    H145137   1.564   1.922  12.143  0.2227  0.1533  0.2758
 7882TIP3    H245138   1.650   1.829  12.227  0.0041  0.4802  0.8675
 7883TIP3   OH245139   0.281   3.939  14.338 -0.1738 -0.3351  0.3069
 7883TIP3    H145140   0.309   4.010  14.396  2.3128 -0.4764 -0.5921
 7883TIP3    H245141   0.360   3.886  14.325 -1.5815 -2.4423 -0.2531
 7884TIP3   OH245142   4.390   4.299  15.081 -0.2383 -0.2470 -0.4068
 7884TIP3    H145143   4.441   4.338  15.152  0.7094 -0.9599 -0.6712
 7884TIP3    H245144   4.400   4.360  15.008  1.9422 -1.3222 -1.0844
 7885TIP3   OH245145   6.388   3.853  14.804 -0.0606 -0.4316 -0.5053
 7885TIP3    H145146   6.370   3.780  14.745  0.3162 -0.4915 -0.5479
 7885TIP3    H245147   6.477   3.837  14.835  0.0943  0.1087 -0.6644
 7886TIP3   OH245148   6.782   0.173  15.507  0.4427 -0.1063  0.3964
 7886TIP3    H145149   6.713   0.204  15.564  0.5864  0.2595  0.3782
 7886TIP3    H245150   6.837   0.250  15.492  0.4834 -0.2283 -0.1202
 7887TIP3   OH245151   5.748   6.677   1.881  0.0313  0.6256  0.1391
 7887TIP3    H145152   5.708   6.599   1.842  1.9363 -0.8304  0.9450
 7887TIP3    H245153   5.680   6.745   1.875 -1.9296 -1.2559  0.0082
 7888TIP3   OH245154   1.877   3.482  15.478  0.3318 -0.1955  0.3877
 7888TIP3    H145155   1.846   3.556  15.426 -2.0716 -0.9480  0.6294
 7888TIP3    H245156   1.862   3.509  15.569  2.4792  0.2391  0.6823
 7889TIP3   OH245157   3.102   1.914   3.076  1.0607  0.7175  0.7209
 7889TIP3    H145158   3.058   1.865   3.145  1.6716  1.3714  1.5949
 7889TIP3    H245159   3.163   1.972   3.122  0.0733  2.6155 -0.2365
 7890TIP3   OH245160   5.270   1.586  11.868 -0.2715  0.2879  0.3523
 7890TIP3    H145161   5.331   1.539  11.812  0.9521  1.9436  0.2311
 7890TIP3    H245162   5.235   1.656  11.813 -1.6747 -0.1203  0.6725
 7891TIP3   OH245163   1.470   3.996  15.465  0.0654 -0.0424 -0.2543
 7891TIP3    H145164   1.433   3.979  15.379  1.5588  1.4172 -1.2442
 7891TIP3    H245165   1.490   3.909  15.500 -1.9898 -0.7467 -0.6499
 7892TIP3   OH245166   6.354   0.793   5.556 -0.0105  0.4376  0.1279
 7892TIP3    H145167   6.365   0.876   5.510  1.5738 -0.1876 -0.7331
 7892TIP3    H245168   6.397   0.729   5.498  0.3402 -0.6914  1.5893
 7893TIP3   OH245169   0.689   4.026  13.677  0.1210  0.1076  0.0396
 7893TIP3    H145170   0.748   3.972  13.626 -1.5528 -1.6068 -0.1982
 7893TIP3    H245171   0.718   4.016  13.768  0.9957  0.4037 -0.2001
 7894TIP3   OH245172   0.098   6.200  16.588  0.4508  0.0855 -0.5220
 7894TIP3    H145173   0.158   6.263  16.549  0.3524  0.2113 -0.4748
 7894TIP3    H245174   0.071   6.241  16.670 -0.3134  0.4021 -0.9110
 7895TIP3   OH245175   0.570   0.258   2.531 -0.0719 -0.0156 -0.3505
 7895TIP3    H145176   0.515   0.215   2.465 -0.2293 -0.6039  0.1506
 7895TIP3    H245177   0.521   0.336   2.556  0.3246  0.5971 -1.4445
 7896TIP3   OH245178   5.114   4.190   3.586 -0.2833 -0.2646 -0.1026
 7896TIP3    H145179   5.036   4.244   3.576 -1.2546 -1.4027  0.9277
 7896TIP3    H245180   5.080   4.102   3.604  1.2226 -0.5990  1.3792
 7897TIP3   OH245181   3.332   1.168  15.905  0.5696 -0.0263 -0.0637
 7897TIP3    H145182   3.410   1.113  15.906 -0.3187 -1.3570 -0.8901
 7897TIP3    H245183   3.290   1.149  15.821  0.7976  2.7965 -0.9271
 7898TIP3   OH245184   2.855   2.353   3.496 -0.2684 -0.0396 -0.0260
 7898TIP3    H145185   2.784   2.294   3.524 -1.3864  0.3306 -1.9016
 7898TIP3    H245186   2.814   2.440   3.495  1.2863  0.7983  2.4413
 7899TIP3   OH245187   1.860   4.823  16.093  0.3498 -0.0775 -0.4700
 7899TIP3    H145188   1.858   4.730  16.114 -0.1444 -0.5119 -2.2963
 7899TIP3    H245189   1.794   4.834  16.024 -0.2790  1.8050  0.3653
 7900TIP3   OH245190   0.926   3.291   5.367  0.6848 -0.3144 -0.0653
 7900TIP3    H145191   0.966   3.241   5.438  1.5547  0.8607  0.3097
 7900TIP3    H245192   0.833   3.296   5.390  0.9407 -0.0323  0.9579
 7901TIP3   OH245193   0.350   5.613  10.653  0.4311  0.2826 -0.8619
 7901TIP3    H145194   0.320   5.576  10.570 -0.9200  0.7304 -0.6037
 7901TIP3    H245195   0.394   5.541  10.697  0.1155 -0.2926 -1.4686
 7902TIP3   OH245196   5.845   4.316  14.747  0.6658  0.4499 -0.2561
 7902TIP3    H145197   5.877   4.391  14.796  0.1139  1.3671 -1.2485
 7902TIP3    H245198   5.772   4.350  14.694  1.1859 -0.4777 -1.6516
 7903TIP3   OH245199   3.787   6.423   4.570 -0.4388 -0.1360 -0.8596
 7903TIP3    H145200   3.844   6.383   4.504  0.1658 -0.2380 -0.2834
 7903TIP3    H245201   3.841   6.428   4.649 -0.6375  1.3928 -0.7811
 7904TIP3   OH245202   1.193   0.395   1.165 -0.4327  0.1384 -0.5118
 7904TIP3    H145203   1.139   0.398   1.244 -0.9197 -1.3159 -0.7604
 7904TIP3    H245204   1.266   0.454   1.184 -1.1994  0.7913  0.5146
 7905TIP3   OH245205   4.981   3.100  14.966  0.4923 -0.4364 -0.2153
 7905TIP3    H145206   5.022   3.022  15.003 -1.9288 -1.4282  0.5490
 7905TIP3    H245207   4.943   3.145  15.042  0.1706  0.4543 -0.8859
 7906TIP3   OH245208   5.684   4.404  11.343 -0.2450  0.1084  0.2710
 7906TIP3    H145209   5.769   4.393  11.385 -0.3447  0.1692  0.4921
 7906TIP3    H245210   5.705   4.434  11.254  0.0142 -1.5000 -0.2388
 7907TIP3   OH245211   1.891   6.401  14.612  0.4773  0.1025  0.1757
 7907TIP3    H145212   1.837   6.344  14.666  2.3568 -1.2598  0.6871
 7907TIP3    H245213   1.848   6.486  14.617 -0.4019 -0.4082  2.3405
 7908TIP3   OH245214   3.844   3.725  14.187  0.2860 -0.0133  0.5039
 7908TIP3    H145215   3.849   3.820  14.201 -0.0237  0.4761 -2.1590
 7908TIP3    H245216   3.935   3.698  14.175  0.1951  0.6974 -2.4784
 7909TIP3   OH245217   5.285   4.253  15.699 -0.3476 -0.0288 -0.5302
 7909TIP3    H145218   5.238   4.239  15.617 -1.0708  1.6245 -0.4402
 7909TIP3    H245219   5.217   4.251  15.766  0.4733 -3.7787  0.4444
 7910TIP3   OH245220   3.973   6.730   3.188 -0.0781  0.2559 -0.1140
 7910TIP3    H145221   3.924   6.774   3.257  0.8944  1.1438  0.0288
 7910TIP3    H245222   3.911   6.722   3.116 -0.1262  2.4171 -0.3618
 7911TIP3   OH245223   3.042   4.815  16.595  0.1417 -0.0475  0.4156
 7911TIP3    H145224   3.114   4.849  16.647 -1.7542  2.1886  1.8107
 7911TIP3    H245225   3.028   4.883  16.528 -0.0522 -0.9183 -0.4397
 7912TIP3   OH245226   6.807   1.557  11.018  0.1261  0.5441 -0.0244
 7912TIP3    H145227   6.896   1.531  10.995 -0.0327 -0.0682  0.0373
 7912TIP3    H245228   6.766   1.477  11.051 -0.1762  1.0141  0.7836
 7913TIP3   OH245229   6.600   0.902  13.035 -0.0744 -0.0462 -0.0910
 7913TIP3    H145230   6.521   0.905  12.980  0.2624 -0.9442 -0.6395
 7913TIP3    H245231   6.567   0.884  13.123 -0.4397 -1.2876 -0.4616
 7914TIP3   OH245232   1.426   4.139  13.675  0.2576  0.2258  0.1624
 7914TIP3    H145233   1.330   4.141  13.672  0.1185 -0.8554  2.3728
 7914TIP3    H245234   1.450   4.056  13.634  0.1430 -0.3159  1.1865
 7915TIP3   OH245235   3.765   4.491   0.736 -0.1667 -0.4573 -0.7962
 7915TIP3    H145236   3.806   4.549   0.800  0.3228 -0.8594 -0.7313
 7915TIP3    H245237   3.731   4.549   0.668 -1.4580  0.0342  0.2387
 7916TIP3   OH245238   1.312   1.182  15.748  0.6588 -0.0926  0.2876
 7916TIP3    H145239   1.402   1.190  15.778  0.7045  0.3524  0.0282
 7916TIP3    H245240   1.260   1.183  15.829  0.8954 -0.5318  0.4482
 7917TIP3   OH245241   3.283   6.820  16.968  0.1315  0.1348  0.5226
 7917TIP3    H145242   3.367   6.787  17.000 -0.0309 -1.7853 -0.8800
 7917TIP3    H245243   3.305   6.900  16.920  1.2169 -0.5419 -0.1331
 7918TIP3   OH245244   1.780   0.258   5.552 -0.4067 -0.0723  0.4656
 7918TIP3    H145245   1.780   0.265   5.647 -0.8073  2.6594  0.3669
 7918TIP3    H245246   1.785   0.349   5.522 -1.3983 -0.7828 -2.1209
 7919TIP3   OH245247   3.312   4.020  13.252  0.2102 -0.1747 -1.0677
 7919TIP3    H145248   3.272   3.975  13.327 -0.8409  1.0560 -0.8589
 7919TIP3    H245249   3.348   3.949  13.199 -0.8333 -1.2272 -0.4316
 7920TIP3   OH245250   6.745   4.424   4.233  0.3811 -0.1441 -0.9481
 7920TIP3    H145251   6.690   4.462   4.301 -1.2343 -0.4334 -2.0639
 7920TIP3    H245252   6.692   4.354   4.195  0.5859  1.0364 -3.6005
 7921TIP3   OH245253   1.439   2.057  12.869  0.2045 -0.5573  0.5976
 7921TIP3    H145254   1.415   1.980  12.920 -0.7396 -0.1685  0.7587
 7921TIP3    H245255   1.405   2.131  12.920  1.5521  0.0054  0.7088
 7922TIP3   OH245256   2.155   1.843  10.445  0.7274 -0.6042  0.6816
 7922TIP3    H145257   2.234   1.794  10.467  1.3560  0.2481  0.3587
 7922TIP3    H245258   2.105   1.844  10.527  0.5412 -2.0339  0.6189
 7923TIP3   OH245259   5.561   3.165  11.970  0.2166  0.1590 -0.0599
 7923TIP3    H145260   5.471   3.141  11.987  0.6523 -1.2448  0.3925
 7923TIP3    H245261   5.596   3.193  12.055  0.5109 -0.3693 -0.0025
 7924TIP3   OH245262   5.485   6.539   1.630 -0.2434 -0.0975  0.0750
 7924TIP3    H145263   5.523   6.537   1.542  1.3236  0.1914  0.7188
 7924TIP3    H245264   5.556   6.511   1.688 -0.5742  1.7649  1.4754
 7925TIP3   OH245265   4.621   2.347  16.237 -0.1698  0.2790 -0.3981
 7925TIP3    H145266   4.687   2.415  16.251 -1.6896  1.8160 -0.4063
 7925TIP3    H245267   4.580   2.370  16.154 -2.0284  0.5392  0.5332
 7926TIP3   OH245268   4.244   1.855  10.627  0.0471  0.0756  0.1287
 7926TIP3    H145269   4.309   1.785  10.634 -0.8458 -0.6782  1.2499
 7926TIP3    H245270   4.201   1.857  10.712 -0.4310  1.5341 -0.1161
 7927TIP3   OH245271   3.018   1.317   0.806  0.3080  0.3618  0.2786
 7927TIP3    H145272   2.972   1.400   0.795  1.7583  1.0431 -0.9919
 7927TIP3    H245273   3.025   1.282   0.717  1.0984 -0.3581  0.6142
 7928TIP3   OH245274   2.099   3.970   3.941 -0.6325  0.3178 -0.2279
 7928TIP3    H145275   2.104   4.050   3.888 -1.7420 -0.5361 -1.7061
 7928TIP3    H245276   2.062   3.904   3.882  1.0589 -1.5478  0.6636
 7929TIP3   OH245277   0.441   2.579  15.935  0.5361 -0.5543 -0.5284
 7929TIP3    H145278   0.443   2.543  16.023  0.4320 -0.8907 -0.6634
 7929TIP3    H245279   0.491   2.661  15.941 -1.2461  0.5251  0.3167
 7930TIP3   OH245280   6.117   4.813  14.794 -0.3822 -0.7406  0.2951
 7930TIP3    H145281   6.134   4.877  14.726 -0.3945 -2.2448 -1.1984
 7930TIP3    H245282   6.075   4.862  14.864 -0.3338  0.8679 -0.7671
 7931TIP3   OH245283   4.711   1.569  12.760  0.1084  0.5255  0.1589
 7931TIP3    H145284   4.670   1.601  12.679  1.3834  2.1578  0.1241
 7931TIP3    H245285   4.797   1.611  12.762  0.2863  0.1587  2.1575
 7932TIP3   OH245286   1.491   3.511  16.813 -0.3826 -0.7969 -0.1323
 7932TIP3    H145287   1.404   3.481  16.839 -0.6952 -0.3951 -0.6771
 7932TIP3    H245288   1.528   3.551  16.892 -2.3740  2.8658 -0.8088
 7933TIP3   OH245289   1.346   5.466  14.935 -0.5456  0.1441 -0.1788
 7933TIP3    H145290   1.294   5.515  14.999 -1.3950 -0.2393 -0.5636
 7933TIP3    H245291   1.413   5.423  14.987  0.2450  1.7265  0.1712
 7934TIP3   OH245292   3.212   2.074   5.212 -0.2567 -0.0884  0.4257
 7934TIP3    H145293   3.159   1.995   5.226 -1.1524  0.8379  2.7068
 7934TIP3    H245294   3.199   2.126   5.291  1.8731  1.4797 -0.1718
 7935TIP3   OH245295   3.925   4.676  12.126 -0.5790  0.7835  0.0535
 7935TIP3    H145296   3.842   4.630  12.114 -0.0427  0.1004 -1.1992
 7935TIP3    H245297   3.917   4.755  12.074  0.3225 -0.3292 -1.8818
 7936TIP3   OH245298   4.236   1.443  14.091  1.2472  0.3522 -0.5154
 7936TIP3    H145299   4.206   1.514  14.035 -0.8967 -1.3897 -1.7388
 7936TIP3    H245300   4.322   1.419  14.056  0.9878  0.8699 -1.5370
 7937TIP3   OH245301   1.842   3.068   0.138 -0.3164 -0.1669 -0.1954
 7937TIP3    H145302   1.843   3.082   0.043 -2.2793 -1.2760 -0.4443
 7937TIP3    H245303   1.803   2.981   0.148  1.3450 -0.7737  1.5906
 7938TIP3   OH245304   2.214   4.420   0.353 -0.4088  0.2331 -0.1628
 7938TIP3    H145305   2.288   4.446   0.407 -0.7844 -0.4163  0.6804
 7938TIP3    H245306   2.147   4.390   0.415 -0.1382 -2.3947 -1.0254
 7939TIP3   OH245307   5.455   6.703   3.001 -0.6949 -0.4434  0.5314
 7939TIP3    H145308   5.499   6.637   3.055 -0.0331  0.0158  0.5665
 7939TIP3    H245309   5.363   6.679   3.004 -0.7302 -0.1780  2.2142
 7940TIP3   OH245310   6.495   4.010  16.774  0.6491 -0.3714 -0.5397
 7940TIP3    H145311   6.494   3.944  16.704 -0.2711  0.2080 -1.0975
 7940TIP3    H245312   6.528   4.089  16.732  0.7733 -0.2029 -0.1300
 7941TIP3   OH245313   2.155   1.275  11.977 -0.2033  0.4152 -0.2152
 7941TIP3    H145314   2.145   1.195  12.029  2.1981 -0.2712 -0.6615
 7941TIP3    H245315   2.066   1.305  11.962 -1.1075 -1.2329  1.4148
 7942TIP3   OH245316   6.198   2.471   5.695  0.3429  0.2819  0.3686
 7942TIP3    H145317   6.153   2.420   5.763  0.2635 -2.1182 -1.3624
 7942TIP3    H245318   6.132   2.484   5.627  1.2852 -0.2266 -0.6731
 7943TIP3   OH245319   3.824   0.667  15.307 -0.1842  0.1255  0.4409
 7943TIP3    H145320   3.767   0.657  15.231 -0.5238 -1.9967  0.9241
 7943TIP3    H245321   3.909   0.635  15.277  0.4267  1.8670  0.1802
 7944TIP3   OH245322   1.354   3.954   2.344 -0.2323  0.2094 -0.1148
 7944TIP3    H145323   1.267   3.989   2.360 -0.6347 -0.8757  0.1190
 7944TIP3    H245324   1.372   3.977   2.253 -0.7329  0.4936 -0.1455
 7945TIP3   OH245325   1.593   0.565   0.373  0.1357 -0.3855 -0.1314
 7945TIP3    H145326   1.602   0.479   0.415  0.3011 -1.1134 -1.5763
 7945TIP3    H245327   1.684   0.592   0.356  0.1857  0.9726  1.9579
 7946TIP3   OH245328   6.270   4.296  11.686 -0.1540  0.0706 -0.1282
 7946TIP3    H145329   6.356   4.284  11.725 -0.1162 -0.0789 -0.2586
 7946TIP3    H245330   6.209   4.259  11.749 -0.0053 -1.2776 -0.7493
 7947TIP3   OH245331   1.405   1.610   1.694 -0.4832 -0.1908  0.3915
 7947TIP3    H145332   1.338   1.669   1.660  0.0754  0.8023  0.9821
 7947TIP3    H245333   1.377   1.592   1.784  0.1605  0.4230  0.7194
 7948TIP3   OH245334   5.881   0.132   5.660 -0.2815 -0.0621 -0.2282
 7948TIP3    H145335   5.926   0.047   5.661  2.2166  1.1705 -0.7803
 7948TIP3    H245336   5.895   0.167   5.748 -0.5147  0.1640 -0.2819
 7949TIP3   OH245337   4.992   5.301  14.017 -0.2148  0.2932  0.3555
 7949TIP3    H145338   5.063   5.301  14.081 -0.0150 -1.6793  0.1896
 7949TIP3    H245339   4.919   5.343  14.061  0.4582  0.5484  1.2400
 7950TIP3   OH245340   6.207   5.850   5.403  0.2606  0.1660  0.5435
 7950TIP3    H145341   6.231   5.758   5.414  0.6092 -0.0401 -1.4581
 7950TIP3    H245342   6.266   5.898   5.460  1.5292 -0.7371  0.0392
 7951TIP3   OH245343   2.281   3.724   0.020 -0.1169 -0.0029 -0.4181
 7951TIP3    H145344   2.268   3.813  -0.014  1.0211  0.6264  0.6802
 7951TIP3    H245345   2.202   3.676  -0.006 -1.2125  1.5999 -0.1999
 7952TIP3   OH245346   1.088   0.411  13.404  0.3812 -0.1838 -0.0593
 7952TIP3    H145347   1.177   0.446  13.413 -0.2932  1.1547  2.0367
 7952TIP3    H245348   1.031   0.487  13.414 -1.0946 -1.5056  2.6404
 7953TIP3   OH245349   5.497   1.032   0.919  0.4225 -0.1895  0.1505
 7953TIP3    H145350   5.559   1.046   0.847  0.7298 -1.0622  0.2419
 7953TIP3    H245351   5.412   1.054   0.881  0.8559  2.1045  0.3263
 7954TIP3   OH245352   4.612   0.405  15.141 -0.1510  0.4143  0.4264
 7954TIP3    H145353   4.628   0.311  15.151 -1.6916  0.2564  1.8182
 7954TIP3    H245354   4.628   0.422  15.048 -0.3676 -1.3342  0.0297
 7955TIP3   OH245355   3.219   6.696   2.544 -0.4089 -0.3186 -0.1883
 7955TIP3    H145356   3.268   6.685   2.626  1.6275  0.7161 -1.1728
 7955TIP3    H245357   3.233   6.615   2.497 -0.3016 -0.3382 -0.1248
 7956TIP3   OH245358   4.667   2.294   1.367  0.2718 -0.4124 -0.1374
 7956TIP3    H145359   4.673   2.319   1.459 -0.2734 -1.3719  0.1665
 7956TIP3    H245360   4.750   2.250   1.348  0.9512  0.9753 -0.4899
 7957TIP3   OH245361   0.938   4.715   0.208 -0.2239 -0.3046 -0.2693
 7957TIP3    H145362   0.946   4.619   0.204  1.7500 -0.2056  0.5836
 7957TIP3    H245363   0.856   4.729   0.255 -0.5166 -1.5681 -0.3500
 7958TIP3   OH245364   1.550   2.184   0.343 -0.3187 -0.7727  0.3696
 7958TIP3    H145365   1.502   2.253   0.390  0.1629 -0.6428  0.6856
 7958TIP3    H245366   1.576   2.123   0.412 -1.0880 -1.4865  0.0367
 7959TIP3   OH245367   4.881   6.808  11.344 -0.2415 -0.0614 -0.3422
 7959TIP3    H145368   4.856   6.716  11.350  1.8624 -0.7373 -0.8504
 7959TIP3    H245369   4.897   6.823  11.250 -0.0840  0.6639 -0.2087
 7960TIP3   OH245370   0.378   1.192   2.838 -0.4013  0.0183 -0.0830
 7960TIP3    H145371   0.426   1.126   2.888 -0.1637 -0.1234 -0.4894
 7960TIP3    H245372   0.313   1.226   2.899 -0.9534 -1.0450 -0.0434
 7961TIP3   OH245373   5.474   1.539  14.125  0.3085 -0.1298 -0.1533
 7961TIP3    H145374   5.547   1.519  14.183  0.3063  0.3628  0.0216
 7961TIP3    H245375   5.433   1.617  14.163  1.1812  1.0904 -1.5824
 7962TIP3   OH245376   5.735   5.748  10.876 -0.0671 -0.5541  0.0753
 7962TIP3    H145377   5.710   5.765  10.967 -0.6178  1.0436 -0.3529
 7962TIP3    H245378   5.657   5.769  10.825  0.6386 -0.1878 -0.8762
 7963TIP3   OH245379   6.294   3.875  16.313  0.4875  0.1652  0.2799
 7963TIP3    H145380   6.276   3.790  16.273 -0.4263  0.9948 -1.1574
 7963TIP3    H245381   6.214   3.896  16.362  1.2112 -0.3725  1.7580
 7964TIP3   OH245382   5.879   6.488  15.051 -0.4638 -0.0375 -0.5338
 7964TIP3    H145383   5.916   6.575  15.039 -0.2971  0.1943  1.4275
 7964TIP3    H245384   5.951   6.428  15.030 -0.0923  0.3305 -0.3239
 7965TIP3   OH245385   0.864   1.565  13.081  0.0437  0.1467 -0.0101
 7965TIP3    H145386   0.950   1.604  13.070  0.4648 -0.1519  1.9379
 7965TIP3    H245387   0.804   1.627  13.038  0.9981  1.4002  0.4028
 7966TIP3   OH245388   3.408   2.657  15.636  0.3493  0.0668  0.4165
 7966TIP3    H145389   3.373   2.610  15.712 -0.7264 -1.0188 -0.7054
 7966TIP3    H245390   3.353   2.735  15.630 -0.0507 -0.2189  0.3224
 7967TIP3   OH245391   6.677   4.861  14.476  0.4215  0.3900 -0.1064
 7967TIP3    H145392   6.618   4.928  14.510  1.1261  0.0070  2.0197
 7967TIP3    H245393   6.710   4.897  14.394 -1.8230  1.1139 -0.7664
 7968TIP3   OH245394   4.344   3.238  13.215  0.3481 -0.0445  0.0071
 7968TIP3    H145395   4.405   3.171  13.182  1.4695  0.0142  1.8706
 7968TIP3    H245396   4.394   3.289  13.278 -0.9588  1.5669 -0.1700
 7969TIP3   OH245397   2.871   1.950   3.889 -0.0556  0.3934  0.2876
 7969TIP3    H145398   2.846   1.859   3.876  0.1361  0.2352  0.9849
 7969TIP3    H245399   2.790   1.994   3.915 -0.8382  1.0617 -2.8329
 7970TIP3   OH245400   2.522   3.708  13.406  0.2901  0.0150  0.0762
 7970TIP3    H145401   2.582   3.718  13.480 -2.1867  0.8176  2.1299
 7970TIP3    H245402   2.494   3.798  13.386 -0.4215 -0.3655 -0.6954
 7971TIP3   OH245403   6.229   5.085   0.544  0.2706 -0.0343  0.0658
 7971TIP3    H145404   6.171   5.037   0.603  0.1681  1.1135  0.9343
 7971TIP3    H245405   6.196   5.065   0.456 -0.6746 -0.3706  0.4846
 7972TIP3   OH245406   4.058   6.105   2.579 -0.2940 -0.3674 -0.2594
 7972TIP3    H145407   3.974   6.059   2.578  0.0852 -1.0665 -0.3673
 7972TIP3    H245408   4.107   6.064   2.650 -0.4269  0.7607  0.5072
 7973TIP3   OH245409   1.489   2.155   6.140  0.0130 -0.3288 -1.0055
 7973TIP3    H145410   1.449   2.143   6.054 -2.0582  0.6413 -0.2605
 7973TIP3    H245411   1.453   2.083   6.193 -0.3886  0.2846 -0.4324
 7974TIP3   OH245412   1.327   1.664   4.235 -0.4103 -0.7536 -0.1359
 7974TIP3    H145413   1.334   1.596   4.168  1.2688  0.4015 -1.2110
 7974TIP3    H245414   1.405   1.717   4.224 -1.0338  0.6186  1.5198
 7975TIP3   OH245415   2.265   1.510   4.111  1.0410  0.4780 -0.1945
 7975TIP3    H145416   2.338   1.548   4.160  0.5143  1.7479 -0.3640
 7975TIP3    H245417   2.199   1.579   4.110 -0.0540 -0.5567 -0.2895
 7976TIP3   OH245418   5.768   2.708  12.711  0.1415 -0.7521 -0.2230
 7976TIP3    H145419   5.727   2.674  12.790  1.4239 -0.2461  0.7085
 7976TIP3    H245420   5.837   2.645  12.690  2.8699  1.2618  1.8078
 7977TIP3   OH245421   2.571   2.479   1.401 -0.1427 -0.2095 -0.3550
 7977TIP3    H145422   2.659   2.451   1.373 -0.2884  0.1241 -1.1950
 7977TIP3    H245423   2.558   2.562   1.356  0.8860  2.0898  3.1607
 7978TIP3   OH245424   5.336   2.526   0.108 -0.3104 -0.3109  0.3293
 7978TIP3    H145425   5.392   2.448   0.102 -0.5901 -0.4892  0.0527
 7978TIP3    H245426   5.293   2.532   0.023 -0.9109 -0.3234  0.6280
 7979TIP3   OH245427   1.762   1.617   4.608 -1.0638 -0.6632  0.0396
 7979TIP3    H145428   1.714   1.541   4.640  1.1919 -1.9837  0.4098
 7979TIP3    H245429   1.723   1.691   4.656 -0.1804 -2.1341  3.2852
 7980TIP3   OH245430   6.824   0.640  13.782  0.2033  0.1298  0.0033
 7980TIP3    H145431   6.881   0.717  13.780 -0.7322  0.8262 -2.2306
 7980TIP3    H245432   6.879   0.568  13.750  0.6770  0.1232  0.7948
 7981TIP3   OH245433   5.445   5.116   1.718 -0.4731 -0.1246 -0.5082
 7981TIP3    H145434   5.384   5.116   1.645  1.1092 -1.4083 -1.9189
 7981TIP3    H245435   5.481   5.027   1.720  1.5790  0.6573  0.0146
 7982TIP3   OH245436   4.403   0.546  13.715  0.2870  0.3316 -0.7556
 7982TIP3    H145437   4.331   0.487  13.736 -0.5165  1.2020 -0.9919
 7982TIP3    H245438   4.470   0.526  13.780 -2.0383  2.8679  2.8245
 7983TIP3   OH245439   4.549   3.440  12.058 -0.5106 -0.3674 -0.2854
 7983TIP3    H145440   4.589   3.472  11.977  1.1504  0.5545  0.8324
 7983TIP3    H245441   4.569   3.346  12.058  0.5396 -0.1609 -0.3935
 7984TIP3   OH245442   4.928   2.334   3.139  0.3733  0.1766  0.4676
 7984TIP3    H145443   4.856   2.337   3.204  1.2927 -0.5486  1.5555
 7984TIP3    H245444   4.991   2.273   3.176  1.7954  1.1645 -0.2298
 7985TIP3   OH245445   0.285   6.717   5.445  0.5556 -0.0608  0.1008
 7985TIP3    H145446   0.348   6.758   5.386  0.3342 -0.9358 -0.7681
 7985TIP3    H245447   0.309   6.624   5.446 -2.7826 -1.1983 -3.1074
 7986TIP3   OH245448   5.145   2.204   1.865 -0.3880 -0.3419  0.1795
 7986TIP3    H145449   5.120   2.293   1.888  2.0076  0.0257  1.8285
 7986TIP3    H245450   5.096   2.148   1.926  1.5891  0.2673  2.5228
 7987TIP3   OH245451   4.755   2.475  13.894  0.1330 -0.3814 -0.2623
 7987TIP3    H145452   4.709   2.452  13.974  0.4619 -1.0633 -0.2713
 7987TIP3    H245453   4.722   2.414  13.828 -0.1095  0.1495 -0.6496
 7988TIP3   OH245454   0.307   2.233  15.494 -0.1639 -0.7366 -0.3044
 7988TIP3    H145455   0.278   2.173  15.425  0.9067  1.4232 -2.7933
 7988TIP3    H245456   0.234   2.234  15.557 -0.7424 -3.5931 -0.7732
 7989TIP3   OH245457   3.581   5.870  10.887 -0.1462  0.3115  0.2924
 7989TIP3    H145458   3.572   5.793  10.942 -0.0945  0.1820  0.1214
 7989TIP3    H245459   3.630   5.839  10.810  0.7041  0.7202  0.6463
 7990TIP3   OH245460   6.081   3.115   0.848 -0.1261 -0.3819 -0.6888
 7990TIP3    H145461   6.053   3.129   0.939  0.9761 -1.4736 -0.1549
 7990TIP3    H245462   6.160   3.168   0.838  0.8432 -1.6997 -0.3849
 7991TIP3   OH245463   4.159   1.065   3.877  0.7513  0.4953  0.0838
 7991TIP3    H145464   4.177   1.129   3.808  1.7652  2.2323  1.8522
 7991TIP3    H245465   4.243   1.020   3.890  0.2428 -0.7231 -0.6079
 7992TIP3   OH245466   5.079   1.936  15.641 -0.7547 -0.0346 -0.2556
 7992TIP3    H145467   5.165   1.938  15.599 -0.9317 -0.7874 -0.6764
 7992TIP3    H245468   5.017   1.936  15.568 -1.0806 -0.8847  0.0103
 7993TIP3   OH245469   2.163   1.904   1.483  0.0935  0.3130  0.1610
 7993TIP3    H145470   2.144   1.992   1.452 -0.5969  0.2144  0.2818
 7993TIP3    H245471   2.245   1.881   1.441 -1.1808 -0.1236 -2.2867
 7994TIP3   OH245472   2.087   0.436   5.820  0.6997  0.1444 -0.5036
 7994TIP3    H145473   2.072   0.475   5.907  0.5000  2.2310 -1.4173
 7994TIP3    H245474   2.134   0.355   5.838 -3.0109 -1.7871  1.8752
 7995TIP3   OH245475   1.108   0.943   5.557  0.0802  1.0992 -0.6755
 7995TIP3    H145476   1.165   0.867   5.566 -3.9283 -2.1776 -0.2214
 7995TIP3    H245477   1.142   1.007   5.619  0.3288 -2.6818  3.5199
 7996TIP3   OH245478   3.273   1.550  16.851  0.5145  0.4224  0.6071
 7996TIP3    H145479   3.225   1.483  16.803 -1.4205  1.1926  1.3894
 7996TIP3    H245480   3.326   1.595  16.784  0.0435 -0.3580 -0.2998
 7997TIP3   OH245481   3.878   3.184   2.708 -0.6747  0.5707  1.1381
 7997TIP3    H145482   3.886   3.242   2.633 -1.2405 -0.2380  0.4384
 7997TIP3    H245483   3.787   3.156   2.708  0.0204 -2.1038  0.0712
 7998TIP3   OH245484   4.384   5.588   5.524  0.3145 -0.1475  0.5710
 7998TIP3    H145485   4.309   5.593   5.584  1.0917  1.5222  1.4709
 7998TIP3    H245486   4.375   5.665   5.468 -0.1404 -1.4398 -1.2270
 7999TIP3   OH245487   6.759   1.387  12.355 -0.0058 -0.1937  0.0994
 7999TIP3    H145488   6.670   1.352  12.351  0.5838 -1.8623 -4.0777
 7999TIP3    H245489   6.772   1.429  12.270  2.9926  0.5835  0.8093
 8000TIP3   OH245490   6.571   6.825  11.746 -0.1106  0.4091 -0.1204
 8000TIP3    H145491   6.584   6.836  11.652  1.8508  2.3534  0.3087
 8000TIP3    H245492   6.577   6.730  11.760 -1.3896 -0.0077 -2.0366
 8001TIP3   OH245493   4.830   3.065  11.518  0.1932 -0.2031 -0.1761
 8001TIP3    H145494   4.783   3.043  11.437 -0.6435  0.9371 -0.0279
 8001TIP3    H245495   4.860   3.155  11.504  0.9667 -0.3656  0.3753
 8002TIP3   OH245496   4.907   2.728   2.561 -0.1071  0.0011 -0.4324
 8002TIP3    H145497   4.974   2.740   2.628  0.0890  2.6599 -0.9896
 8002TIP3    H245498   4.914   2.636   2.537  1.4492 -0.4541  1.4701
 8003TIP3   OH245499   1.452   3.103  15.664  0.2317 -0.3175  0.0032
 8003TIP3    H145500   1.526   3.042  15.669  1.0630  0.7521  1.4899
 8003TIP3    H245501   1.419   3.108  15.753 -1.0450 -0.0179 -0.4631
 8004TIP3   OH245502   0.659   5.714   5.869 -0.3371 -0.2423  0.8267
 8004TIP3    H145503   0.579   5.702   5.921 -0.5833  0.7102  0.6856
 8004TIP3    H245504   0.630   5.702   5.779 -0.0270 -1.2916  0.8469
 8005TIP3   OH245505   4.794   0.624   0.825 -0.1261 -0.3369  0.1658
 8005TIP3    H145506   4.794   0.692   0.757  1.2359 -0.9051 -0.4198
 8005TIP3    H245507   4.711   0.638   0.872 -0.8929  0.3451 -1.3177
 8006TIP3   OH245508   1.714   2.264   5.497 -0.3234 -0.4954  0.3231
 8006TIP3    H145509   1.667   2.347   5.490 -0.0033 -0.4293 -1.2487
 8006TIP3    H245510   1.701   2.220   5.413  0.3562 -1.5892  0.7538
 8007TIP3   OH245511   2.976   0.412   2.677  0.1981  0.0800 -0.5379
 8007TIP3    H145512   2.903   0.360   2.643  0.3234  0.5679 -1.5999
 8007TIP3    H245513   2.981   0.389   2.770 -1.8069  0.6084 -0.2569
 8008TIP3   OH245514   0.029   1.870  12.884 -0.8595  0.0175  0.2745
 8008TIP3    H145515   0.117   1.850  12.915 -0.2561  1.2419 -0.5807
 8008TIP3    H245516  -0.012   1.785  12.872 -0.1917 -0.5475  1.7781
 8009TIP3   OH245517   4.953   5.500   3.649 -0.0897 -0.0758 -0.6588
 8009TIP3    H145518   5.025   5.488   3.712 -0.4867 -1.4683 -0.4473
 8009TIP3    H245519   4.875   5.472   3.696 -0.7356  1.0325 -1.0366
 8010TIP3   OH245520   1.422   0.359  11.117  0.0458  0.4649 -0.4322
 8010TIP3    H145521   1.410   0.275  11.072 -1.2058  0.7057 -0.5945
 8010TIP3    H245522   1.487   0.405  11.065  1.0404 -0.5424 -0.1220
 8011TIP3   OH245523   4.794   3.297   5.247 -0.2913  1.1058 -0.5111
 8011TIP3    H145524   4.758   3.248   5.173 -0.1980  1.4047 -0.7570
 8011TIP3    H245525   4.799   3.233   5.318  2.0475  0.0814 -1.4883
 8012TIP3   OH245526   3.309   3.062  15.392  0.5493 -0.7180  0.5194
 8012TIP3    H145527   3.349   3.097  15.312  2.7330  0.1689  1.9115
 8012TIP3    H245528   3.373   2.998  15.424  0.1389 -0.4072  2.0188
 8013TIP3   OH245529   4.837   2.942  14.620 -0.3721  0.2498 -0.1522
 8013TIP3    H145530   4.929   2.919  14.628  0.0394  1.6237 -0.5931
 8013TIP3    H245531   4.803   2.938  14.709 -0.0782 -0.9520 -0.0782
 8014TIP3   OH245532   4.372   4.558  11.836  0.5825  0.5390 -0.5251
 8014TIP3    H145533   4.407   4.495  11.899  0.0870  0.4975 -0.2821
 8014TIP3    H245534   4.288   4.584  11.874 -0.4058 -0.5702 -1.8538
 8015TIP3   OH245535   0.316   0.909  12.908  0.0572  0.0121  0.2183
 8015TIP3    H145536   0.364   0.883  12.986 -0.8732  1.6308  1.3776
 8015TIP3    H245537   0.351   0.995  12.885  0.6063 -0.6103 -1.4328
 8016TIP3   OH245538   4.972   5.475  15.946 -0.1701 -0.0670  0.5434
 8016TIP3    H145539   5.030   5.398  15.945 -0.3246 -0.1897  0.9403
 8016TIP3    H245540   4.884   5.438  15.949 -0.2497  0.1247  0.5734
 8017TIP3   OH245541   3.001   1.558  13.144  0.0147  0.7150  0.5609
 8017TIP3    H145542   3.017   1.651  13.128 -1.6538  0.6831 -1.8152
 8017TIP3    H245543   2.935   1.557  13.214  0.6112  1.2738  1.1419
 8018TIP3   OH245544   4.998   1.285  14.666  0.1630  0.4037 -0.1730
 8018TIP3    H145545   4.939   1.347  14.708  0.5589 -0.5030  1.8648
 8018TIP3    H245546   4.940   1.220  14.626 -0.2532 -0.1257  1.2476
 8019TIP3   OH245547   4.935   0.924   1.296 -0.2693  0.0210 -0.0875
 8019TIP3    H145548   4.935   1.012   1.259 -0.0701  0.8951  1.8958
 8019TIP3    H245549   4.936   0.937   1.391 -0.8387 -2.1213  0.2707
 8020TIP3   OH245550   3.330   0.141  16.780 -0.1989  0.1702  0.1244
 8020TIP3    H145551   3.282   0.171  16.702 -0.3966 -2.6285 -0.9379
 8020TIP3    H245552   3.421   0.133  16.752 -0.0460  0.3307  0.5588
 8021TIP3   OH245553   4.392   6.378  14.683 -0.5230  0.3363  0.3512
 8021TIP3    H145554   4.393   6.427  14.601 -0.2683 -1.5729 -0.8442
 8021TIP3    H245555   4.319   6.416  14.733 -0.4367  1.7904 -0.5652
 8022TIP3   OH245556   5.653   2.906  15.547  0.3761  0.3415  0.2601
 8022TIP3    H145557   5.625   2.917  15.638 -0.4231  2.4936 -0.1933
 8022TIP3    H245558   5.736   2.954  15.542 -0.7985  2.3776 -0.6766
 8023TIP3   OH245559   4.815   6.611  15.995  0.0436  0.2683  0.2822
 8023TIP3    H145560   4.857   6.580  16.076 -0.0231 -1.4677 -0.3084
 8023TIP3    H245561   4.740   6.662  16.025 -0.3636 -0.9006  1.3541
 8024TIP3   OH245562   4.929   3.949   2.033  0.0187 -0.0038  0.2504
 8024TIP3    H145563   4.946   3.963   2.126  0.0659 -0.6574  0.3406
 8024TIP3    H245564   4.893   3.860   2.027 -2.6616  0.9887 -0.0063
 8025TIP3   OH245565   2.267   2.902  11.493 -0.7773 -0.5766 -0.1743
 8025TIP3    H145566   2.332   2.856  11.439 -0.1093 -0.2075  0.3001
 8025TIP3    H245567   2.229   2.833  11.547 -0.4783 -0.7364 -0.1603
 8026TIP3   OH245568   0.014   0.833   1.965 -0.0486  0.5109 -0.1837
 8026TIP3    H145569   0.058   0.859   1.885  1.2166  1.8374  0.8885
 8026TIP3    H245570  -0.016   0.916   2.004  1.4057  0.1615  1.8245
 8027TIP3   OH245571   5.835   4.939   0.247 -0.0382 -0.6212 -0.0270
 8027TIP3    H145572   5.786   4.901   0.320  0.9431 -2.4213 -0.2496
 8027TIP3    H245573   5.770   4.988   0.197 -1.2270 -1.4300  0.6828
 8028TIP3   OH245574   2.895   1.312  14.830 -0.0581  0.8566 -0.2120
 8028TIP3    H145575   2.899   1.404  14.802  1.6950  0.8108 -0.2196
 8028TIP3    H245576   2.841   1.270  14.764  0.7621  1.5219 -1.3465
 8029TIP3   OH245577   2.450   6.685   4.232 -0.0201  0.4738 -0.5693
 8029TIP3    H145578   2.450   6.695   4.137  0.3221  2.4715 -0.3994
 8029TIP3    H245579   2.533   6.724   4.260  0.7957 -1.7856  0.4405
 8030TIP3   OH245580   2.782   0.368  11.728 -0.0098 -0.2722  0.1042
 8030TIP3    H145581   2.785   0.321  11.811 -0.9893 -1.3874 -0.4573
 8030TIP3    H245582   2.749   0.304  11.665  2.0630  0.1163 -1.4763
 8031TIP3   OH245583   6.759   4.702   3.180 -0.6113  0.6050 -0.1855
 8031TIP3    H145584   6.853   4.708   3.164 -0.4192 -1.0271  0.2346
 8031TIP3    H245585   6.720   4.751   3.108  0.5031 -0.3248 -1.4740
 8032TIP3   OH245586   2.136   2.017   4.549 -0.4627 -0.1825 -0.4010
 8032TIP3    H145587   2.091   2.029   4.633  0.8064 -0.9050  0.4277
 8032TIP3    H245588   2.226   2.046   4.567  0.4174 -2.4639 -0.8449
 8033TIP3   OH245589   4.496   1.276  15.595  0.0106  0.0619 -0.2440
 8033TIP3    H145590   4.429   1.305  15.533 -0.3169 -0.7262 -0.2715
 8033TIP3    H245591   4.456   1.286  15.681 -0.3501 -0.8885 -0.2860
 8034TIP3   OH245592   5.002   2.299   5.432 -0.2055  0.7195  0.1567
 8034TIP3    H145593   4.963   2.367   5.377  2.0499  0.4962 -1.8553
 8034TIP3    H245594   5.032   2.345   5.510  1.9274  2.3017 -1.4672
 8035TIP3   OH245595   0.845   6.849   5.615  0.2257 -0.4138  0.0301
 8035TIP3    H145596   0.820   6.837   5.523 -0.9199 -0.0349  0.2827
 8035TIP3    H245597   0.818   6.938   5.636  0.5007 -0.4902  0.7326
 8036TIP3   OH245598   0.221   3.163  11.377 -0.2817  0.3549 -0.1805
 8036TIP3    H145599   0.177   3.224  11.318 -2.7849 -1.3934 -0.2871
 8036TIP3    H245600   0.175   3.172  11.460 -0.0967 -0.7302  0.0550
 8037TIP3   OH245601   6.100   5.019   4.286  0.1153  0.1039 -0.8046
 8037TIP3    H145602   6.189   4.986   4.296 -0.0209  0.1498  0.7896
 8037TIP3    H245603   6.106   5.112   4.305 -0.1461  0.2692 -1.4998
 8038TIP3   OH245604   6.630   1.608  15.620 -0.6817  0.1418  0.4099
 8038TIP3    H145605   6.555   1.550  15.632 -0.7194  0.1324  0.1352
 8038TIP3    H245606   6.641   1.650  15.705 -0.3116 -0.6751  0.7752
 8039TIP3   OH245607   6.600   6.175   2.995 -0.3036 -0.4584  0.5062
 8039TIP3    H145608   6.519   6.125   2.986 -1.1162  0.8659  0.1883
 8039TIP3    H245609   6.583   6.257   2.949  0.9211  0.1997  1.1683
 8040TIP3   OH245610   0.715   0.718   3.624  0.1387  0.0866  0.9622
 8040TIP3    H145611   0.659   0.667   3.682 -0.3133  0.6612  1.0406
 8040TIP3    H245612   0.696   0.684   3.537  1.2241 -1.1580  1.1762
 8041TIP3   OH245613   2.424   1.634  16.917 -0.6530  0.1706  0.5499
 8041TIP3    H145614   2.438   1.720  16.955  1.4017  0.2899 -0.3187
 8041TIP3    H245615   2.347   1.644  16.861 -2.0743  0.6771  2.4837
 8042TIP3   OH245616   6.127   2.548  12.923  0.0818 -0.1513 -0.3312
 8042TIP3    H145617   6.191   2.481  12.945  0.2020 -0.6528 -2.0574
 8042TIP3    H245618   6.129   2.553  12.827 -0.5062  1.7489 -0.2962
 8043TIP3   OH245619   5.462   1.252  14.156 -0.2259  0.0622 -0.4378
 8043TIP3    H145620   5.398   1.187  14.185 -0.7296  0.9385  0.4911
 8043TIP3    H245621   5.410   1.331  14.140  0.6776  0.9844  0.9670
 8044TIP3   OH245622   0.049   5.272   2.731 -0.0585  0.0899  0.0762
 8044TIP3    H145623  -0.038   5.237   2.712 -1.8357  3.1380  1.8002
 8044TIP3    H245624   0.068   5.243   2.820  0.4336 -0.0235 -0.0573
 8045TIP3   OH245625   5.261   3.597  14.084  0.4185  0.9184 -0.3300
 8045TIP3    H145626   5.202   3.583  14.010  1.5431 -1.8293 -0.8411
 8045TIP3    H245627   5.210   3.572  14.160  0.4194 -0.0436 -0.6252
 8046TIP3   OH245628   5.294   4.852   1.148  0.7595 -0.1698  0.4524
 8046TIP3    H145629   5.372   4.901   1.175  1.2293 -0.5404 -0.2200
 8046TIP3    H245630   5.229   4.873   1.215  0.6495  2.0887 -0.2853
 8047TIP3   OH245631   3.046   5.640  12.512  0.1132 -0.2264  0.3435
 8047TIP3    H145632   3.041   5.673  12.602 -1.9131 -0.2451  0.3043
 8047TIP3    H245633   3.139   5.640  12.490  0.4685  2.1741  1.5641
 8048TIP3   OH245634   6.835   0.157  14.269  0.4875 -0.0278  0.7219
 8048TIP3    H145635   6.785   0.171  14.350 -0.9044  0.3152 -0.1594
 8048TIP3    H245636   6.808   0.071  14.238 -0.3703  0.5786 -0.2908
 8049TIP3   OH245637   2.683   2.920   2.230 -0.2195  0.0153  0.2340
 8049TIP3    H145638   2.710   2.905   2.320 -0.6655  0.8874  0.5203
 8049TIP3    H245639   2.758   2.962   2.188 -0.5757  1.1039  0.6447
 8050TIP3   OH245640   4.666   3.207   0.951  0.7466 -0.6151  0.5258
 8050TIP3    H145641   4.711   3.175   0.874 -0.6951 -0.9207 -0.2280
 8050TIP3    H245642   4.706   3.293   0.969  0.0373  0.2007 -1.5341
 8051TIP3   OH245643   4.291   0.373  16.030  0.0433  0.6843  0.5530
 8051TIP3    H145644   4.330   0.404  16.112 -0.8910 -0.5466  1.4980
 8051TIP3    H245645   4.206   0.338  16.056 -0.8914  1.5380 -1.1651
 8052TIP3   OH245646   2.792   1.555  12.517 -0.2106 -0.2173  0.0453
 8052TIP3    H145647   2.792   1.482  12.454 -0.6711 -0.5827  0.4578
 8052TIP3    H245648   2.807   1.513  12.602 -0.1897  0.2035  0.2511
 8053TIP3   OH245649   4.683   5.564   2.783 -0.0664 -0.3318  0.1362
 8053TIP3    H145650   4.720   5.650   2.800 -1.1008  0.0555  0.5279
 8053TIP3    H245651   4.719   5.538   2.698 -0.9835  1.2101 -0.7681
 8054TIP3   OH245652   3.285   0.253   1.695 -0.8176 -0.1475 -0.0203
 8054TIP3    H145653   3.190   0.252   1.708 -0.7894  0.7716  0.2885
 8054TIP3    H245654   3.322   0.263   1.783 -0.5161  1.8011 -0.3131
 8055TIP3   OH245655   6.196   3.100  10.909  0.3517 -0.0259 -0.3468
 8055TIP3    H145656   6.160   3.081  10.996  0.5416 -0.3820 -0.3414
 8055TIP3    H245657   6.173   3.191  10.892  1.2180  0.3828  0.5388
 8056TIP3   OH245658   0.240   0.643  14.587  0.2341 -0.4887  0.4013
 8056TIP3    H145659   0.312   0.694  14.551  0.7589 -0.6564  1.1770
 8056TIP3    H245660   0.193   0.610  14.511  0.7977 -0.1221 -0.1161
 8057TIP3   OH245661   5.083   2.891   5.848  0.7227  0.1849 -0.6447
 8057TIP3    H145662   5.093   2.950   5.773 -1.2507  1.4720  0.0067
 8057TIP3    H245663   4.988   2.880   5.857  0.9754 -1.5087  0.5107
 8058TIP3   OH245664   2.668   3.429  15.354  0.0180  0.1548 -0.3522
 8058TIP3    H145665   2.623   3.493  15.408 -1.0401 -3.4939  3.6876
 8058TIP3    H245666   2.735   3.392  15.412  2.1933 -0.8092 -3.2489
 8059TIP3   OH245667   3.750   5.911  11.619 -0.8450  0.0358 -0.1281
 8059TIP3    H145668   3.760   5.852  11.545 -0.9303 -0.4969  0.2743
 8059TIP3    H245669   3.779   5.997  11.587 -1.6979  0.0060 -1.0295
 8060TIP3   OH245670   4.965   0.172  10.584  0.1177 -0.4246 -0.2746
 8060TIP3    H145671   5.059   0.170  10.564  0.1080 -1.6328 -0.2553
 8060TIP3    H245672   4.925   0.213  10.507  0.4953 -1.4409 -1.0301
 8061TIP3   OH245673   4.187   6.277  15.416 -0.7135 -0.1364  0.0860
 8061TIP3    H145674   4.220   6.187  15.420 -0.1505 -0.0303 -1.3992
 8061TIP3    H245675   4.137   6.281  15.335  0.3489  1.2107 -0.5617
 8062TIP3   OH245676   2.729   0.971   1.760 -0.2507  0.1732  0.3267
 8062TIP3    H145677   2.672   1.028   1.709 -0.8573 -0.7241 -0.0161
 8062TIP3    H245678   2.669   0.919   1.813  0.0952 -2.0938 -1.3721
 8063TIP3   OH245679   1.303   0.803  11.293  0.1663  0.0097 -0.4294
 8063TIP3    H145680   1.359   0.852  11.232  1.6635  0.3319  1.1066
 8063TIP3    H245681   1.351   0.722  11.309 -1.3871 -1.1820 -1.4840
 8064TIP3   OH245682   5.005   2.679   5.135 -0.4377  0.0327  0.1082
 8064TIP3    H145683   5.060   2.610   5.097 -0.1044  0.5546 -0.3747
 8064TIP3    H245684   4.968   2.725   5.059 -2.1214 -0.7416  0.4125
 8065TIP3   OH245685   1.557   1.386   6.012  0.4521 -0.2642 -0.2466
 8065TIP3    H145686   1.599   1.333   6.080  1.1159  0.3732 -0.1532
 8065TIP3    H245687   1.560   1.331   5.934  1.6454 -0.1631 -0.2922
 8066TIP3   OH245688   4.098   1.096   0.409  0.3397 -0.1854 -0.0183
 8066TIP3    H145689   4.155   1.158   0.455  0.8262  0.2741 -1.2172
 8066TIP3    H245690   4.092   1.021   0.468  0.8464  0.4380  0.8472
 8067TIP3   OH245691   5.092   1.628   4.928  0.5898 -0.3618  0.4368
 8067TIP3    H145692   5.147   1.702   4.954 -0.8622  0.5992  0.9477
 8067TIP3    H245693   5.073   1.582   5.009  0.0130 -0.2076  0.3973
 8068TIP3   OH245694   0.645   1.865  16.255 -0.1073  0.0474 -0.2202
 8068TIP3    H145695   0.616   1.870  16.346 -0.0838 -0.2329 -0.1979
 8068TIP3    H245696   0.587   1.800  16.215 -1.5024  1.6246 -0.9190
 8069TIP3   OH245697   3.493   2.419  11.919 -0.2584  0.1099 -0.5388
 8069TIP3    H145698   3.551   2.458  11.984 -1.0015  0.2120  0.0795
 8069TIP3    H245699   3.478   2.489  11.856  0.1189  0.1494 -0.5843
 8070TIP3   OH245700   1.518   0.394  12.959  0.0938 -0.0899  0.1049
 8070TIP3    H145701   1.527   0.418  13.051  0.5225  0.8919 -0.1827
 8070TIP3    H245702   1.476   0.469  12.919 -1.7307 -1.1959 -0.1979
 8071TIP3   OH245703   1.986   4.116   6.101  0.7116  0.0370 -0.5216
 8071TIP3    H145704   1.956   4.069   6.024 -2.7875  0.7912  0.2271
 8071TIP3    H245705   1.997   4.206   6.071  0.5539  0.0923 -0.4136
 8072TIP3   OH245706   0.220   6.854  13.039 -0.0432  0.5575 -0.0987
 8072TIP3    H145707   0.249   6.935  13.081 -1.6639  0.9584  0.3088
 8072TIP3    H245708   0.231   6.787  13.106  0.8301  0.5174 -0.2714
 8073TIP3   OH245709   1.088   6.847  15.880 -0.1552 -0.1891  0.2203
 8073TIP3    H145710   1.096   6.929  15.930 -1.0390 -0.2611  0.4914
 8073TIP3    H245711   1.158   6.792  15.915 -1.0027 -0.3811  1.6878
 8074TIP3   OH245712   1.585   0.834   4.130 -0.1530 -0.4294  0.0997
 8074TIP3    H145713   1.535   0.859   4.053  0.4388  0.4986 -0.0019
 8074TIP3    H245714   1.624   0.749   4.107  0.0912 -0.1182 -0.6685
 8075TIP3   OH245715   5.484   2.312  16.863 -0.5252  0.5060 -0.1980
 8075TIP3    H145716   5.418   2.264  16.913 -0.6486  1.2330  0.3487
 8075TIP3    H245717   5.460   2.299  16.772 -1.7233  1.1743  0.0100
 8076TIP3   OH245718   3.673   5.690   3.527 -0.1110  0.4283  0.0621
 8076TIP3    H145719   3.687   5.750   3.453  1.1260  1.0379  0.7529
 8076TIP3    H245720   3.749   5.704   3.584 -0.4878 -0.8263  0.9185
 8077TIP3   OH245721   0.323   3.529   1.985 -0.1525 -0.0180  0.0211
 8077TIP3    H145722   0.335   3.515   2.079  1.8015  0.7911 -0.0548
 8077TIP3    H245723   0.235   3.566   1.977 -0.3866 -0.1928  1.5136
 8078TIP3   OH245724   5.023   0.637   3.684  0.1829  0.5350 -0.2110
 8078TIP3    H145725   5.035   0.580   3.760 -0.6575  0.9664  0.2537
 8078TIP3    H245726   5.098   0.696   3.686  0.2630  0.4213  0.1722
 8079TIP3   OH245727   5.411   4.796  11.617  0.4688 -0.0224 -0.3646
 8079TIP3    H145728   5.378   4.839  11.538 -0.0247 -0.3813 -0.3628
 8079TIP3    H245729   5.482   4.740  11.587 -0.4580 -1.0325 -0.7496
 8080TIP3   OH245730   4.244   2.296   4.677 -0.4369  0.1359 -0.1031
 8080TIP3    H145731   4.300   2.219   4.690 -0.9770 -0.1097  0.8703
 8080TIP3    H245732   4.160   2.260   4.648 -1.5843  0.0726  2.9701
 8081TIP3   OH245733   2.546   2.132  14.112  0.1349 -0.6815 -0.1892
 8081TIP3    H145734   2.578   2.046  14.085 -0.0803 -0.6455 -0.5668
 8081TIP3    H245735   2.565   2.189  14.037  0.2965 -0.3972  0.0688
 8082TIP3   OH245736   1.287   6.787   5.168 -0.2906  0.2627 -0.1090
 8082TIP3    H145737   1.288   6.719   5.235  0.4319  1.0355  0.7040
 8082TIP3    H245738   1.314   6.742   5.088 -0.7220 -0.5842  0.2073
 8083TIP3   OH245739   0.464   3.844   4.644  0.1171  0.4441 -0.1904
 8083TIP3    H145740   0.442   3.766   4.593  1.0800 -0.3706  0.5759
 8083TIP3    H245741   0.469   3.915   4.580  0.4461 -0.3816 -1.1044
 8084TIP3   OH245742   6.474   5.737   3.510  0.2813  1.0247  0.3525
 8084TIP3    H145743   6.411   5.666   3.498 -0.9753  1.3842  3.8910
 8084TIP3    H245744   6.437   5.810   3.461 -0.5661  0.4121  0.0551
 8085TIP3   OH245745   5.812   0.878  16.323 -0.3327  0.3024 -0.5452
 8085TIP3    H145746   5.903   0.896  16.347  0.2211 -3.1824  0.5707
 8085TIP3    H245747   5.816   0.795  16.276 -3.0655 -0.7806  0.9014
 8086TIP3   OH245748   1.187   3.615   0.860 -0.2943  0.5889 -0.3602
 8086TIP3    H145749   1.191   3.639   0.768 -0.0704 -0.5136 -0.6413
 8086TIP3    H245750   1.274   3.582   0.881  0.1647  2.2745  0.6809
 8087TIP3   OH245751   6.653   3.560   3.411 -0.1562  0.5352  0.3772
 8087TIP3    H145752   6.673   3.477   3.454 -0.4887  0.4224  0.3159
 8087TIP3    H245753   6.731   3.580   3.358 -0.8533 -0.7710 -1.2283
 8088TIP3   OH245754   4.660   0.049   0.133 -0.0048  0.1722 -0.4330
 8088TIP3    H145755   4.678   0.047   0.227  3.2248  1.8578 -0.8830
 8088TIP3    H245756   4.621   0.135   0.118  0.4118  0.2978 -0.7857
 8089TIP3   OH245757   5.018   4.689   4.173 -0.1094  0.3565 -0.3989
 8089TIP3    H145758   5.019   4.662   4.265  0.8890  0.5782 -0.3300
 8089TIP3    H245759   4.999   4.783   4.176 -0.5828  0.2632 -0.4524
 8090TIP3   OH245760   0.409   3.224  14.540  0.2370 -0.2122  0.0522
 8090TIP3    H145761   0.352   3.164  14.589  0.0090  0.7743  1.0286
 8090TIP3    H245762   0.416   3.184  14.453 -2.4870 -0.0515 -0.3319
 8091TIP3   OH245763   6.749   3.223  13.292 -0.3869 -0.1492 -0.0069
 8091TIP3    H145764   6.709   3.310  13.298  2.5671  1.2585  1.4569
 8091TIP3    H245765   6.814   3.232  13.223 -1.4030 -1.8988 -1.2675
 8092TIP3   OH245766   0.434   6.354   0.859 -1.0927  0.2674  0.2641
 8092TIP3    H145767   0.373   6.425   0.880 -1.0660  0.7229 -1.0939
 8092TIP3    H245768   0.498   6.394   0.801 -0.3411 -0.5770  0.4880
 8093TIP3   OH245769   5.279   2.071  10.867  0.7730 -0.2800  0.6924
 8093TIP3    H145770   5.373   2.058  10.855  0.9159  0.5041  0.8825
 8093TIP3    H245771   5.271   2.114  10.952  0.1199 -1.6518  1.3601
 8094TIP3   OH245772   3.223   6.800  11.808 -0.1256  0.2162  0.1713
 8094TIP3    H145773   3.240   6.714  11.768 -2.6668 -0.0563 -0.5257
 8094TIP3    H245774   3.197   6.856  11.735 -2.2482  0.4626  1.0490
 8095TIP3   OH245775   4.557   6.700  12.778 -0.2200 -0.0633  0.0211
 8095TIP3    H145776   4.535   6.630  12.716 -0.3299  2.2323 -2.7396
 8095TIP3    H245777   4.653   6.699  12.782 -0.2441 -0.9864  0.8439
 8096TIP3   OH245778   2.902   0.917  14.023  0.0226 -0.3392  0.1494
 8096TIP3    H145779   2.899   0.921  14.119  1.2139 -2.5154  0.3390
 8096TIP3    H245780   2.828   0.862  13.999 -0.2849  0.2187 -0.2020
 8097TIP3   OH245781   1.305   1.933  13.482  0.2324  0.2397  0.2695
 8097TIP3    H145782   1.381   1.989  13.464  0.2355  0.2490  0.3127
 8097TIP3    H245783   1.234   1.973  13.433 -0.6746  2.3979  3.0902
 8098TIP3   OH245784   4.778   1.516  11.153  0.0557 -1.1080  0.1621
 8098TIP3    H145785   4.742   1.429  11.175 -2.1137 -0.3078  0.0521
 8098TIP3    H245786   4.751   1.572  11.226 -2.4082  0.3791 -1.7247
 8099TIP3   OH245787   5.973   5.496   2.145 -0.3984  0.3777  0.0022
 8099TIP3    H145788   6.037   5.472   2.212 -0.2565  1.4318  0.2751
 8099TIP3    H245789   5.917   5.420   2.136 -1.0981  0.5917  2.1406
 8100TIP3   OH245790   3.257   5.306   1.063  0.1821  0.3295 -0.0346
 8100TIP3    H145791   3.213   5.389   1.046 -1.8255 -0.7609 -0.3351
 8100TIP3    H245792   3.237   5.287   1.155 -0.1810 -0.3063 -0.2465
 8101TIP3   OH245793   1.556   3.239  14.082  0.1346  0.2782 -0.2130
 8101TIP3    H145794   1.641   3.220  14.043  0.5942  0.9439  0.4400
 8101TIP3    H245795   1.495   3.235  14.009  0.8206  0.4475 -0.8071
 8102TIP3   OH245796   1.389   5.583  11.507 -0.2375 -0.1303  0.4784
 8102TIP3    H145797   1.322   5.537  11.456 -0.1490 -0.1724  0.3995
 8102TIP3    H245798   1.351   5.670  11.523 -0.2153 -0.0732  0.2319
 8103TIP3   OH245799   0.232   1.884   5.559  0.1734  0.0588  0.0842
 8103TIP3    H145800   0.179   1.824   5.612 -1.4923 -0.5607 -2.1242
 8103TIP3    H245801   0.305   1.908   5.616 -1.6720 -0.2373  2.7587
 8104TIP3   OH245802   1.783   6.048  13.499  0.1636  0.0419 -0.4847
 8104TIP3    H145803   1.820   6.052  13.587  1.0923  1.4958 -0.9196
 8104TIP3    H245804   1.706   6.105  13.502 -0.1371 -0.3543 -0.4798
 8105TIP3   OH245805   2.010   3.100  16.043  0.1646 -0.1087  0.2431
 8105TIP3    H145806   1.951   3.043  15.993  0.4978 -1.2566  1.1148
 8105TIP3    H245807   2.095   3.091  15.998  1.3404 -3.7873  2.7756
 8106TIP3   OH245808   1.154   0.466  16.056  0.0327 -0.4824 -0.1589
 8106TIP3    H145809   1.245   0.478  16.028  0.2171 -1.6053 -0.1066
 8106TIP3    H245810   1.131   0.379  16.023 -1.2743  0.0838 -0.8053
 8107TIP3   OH245811   2.727   3.829   1.815 -0.4491  0.2606 -0.0629
 8107TIP3    H145812   2.795   3.834   1.748 -0.0217  0.8730  0.4061
 8107TIP3    H245813   2.754   3.892   1.882 -1.9047  1.1428 -0.2611
 8108TIP3   OH245814   2.145   0.964   2.048 -0.2147 -0.4333 -0.1339
 8108TIP3    H145815   2.087   0.911   2.102 -0.5033 -1.6951 -1.5918
 8108TIP3    H245816   2.132   1.054   2.079 -1.6631 -0.8992  0.7172
 8109TIP3   OH245817   6.834   1.302   5.933  0.4019  0.1283  0.2352
 8109TIP3    H145818   6.916   1.315   5.981  0.7143  2.9045 -0.8508
 8109TIP3    H245819   6.768   1.345   5.987  0.2112  0.5090 -0.2950
 8110TIP3   OH245820   0.199   5.348   3.999 -0.1989 -0.0778 -0.5428
 8110TIP3    H145821   0.261   5.414   4.030  0.4818 -0.9893  0.1161
 8110TIP3    H245822   0.220   5.270   4.050 -1.6051 -0.5444 -0.6290
 8111TIP3   OH245823   0.490   3.005  13.446  0.1606 -0.0540  0.1289
 8111TIP3    H145824   0.536   3.086  13.427 -0.0951  0.5058  1.6833
 8111TIP3    H245825   0.544   2.962  13.512 -1.3709  0.5525  1.8956
 8112TIP3   OH245826   6.689   1.950  15.561 -0.1662 -0.1775 -0.4552
 8112TIP3    H145827   6.782   1.975  15.561  0.7010 -2.8785  1.7518
 8112TIP3    H245828   6.642   2.032  15.544  2.5632  1.4564 -0.7271
 8113TIP3   OH245829   4.177   1.308  12.601  0.3545  0.2292 -0.2250
 8113TIP3    H145830   4.150   1.386  12.650 -0.6856  1.2707 -2.3156
 8113TIP3    H245831   4.098   1.255  12.597  1.0569 -0.9740  1.1718
 8114TIP3   OH245832   3.947   0.116  14.493 -0.0447 -0.4400 -0.1288
 8114TIP3    H145833   3.932   0.022  14.490  0.5995 -0.5380 -0.6047
 8114TIP3    H245834   3.939   0.145  14.402  0.0224 -0.0796 -0.0243
 8115TIP3   OH245835   4.411   1.117  14.166 -0.3867  0.1014 -0.0443
 8115TIP3    H145836   4.380   1.193  14.217 -1.6807  0.4071 -1.2170
 8115TIP3    H245837   4.343   1.051  14.179 -1.6287  0.7565 -2.6297
 8116TIP3   OH245838   0.315   3.913   4.412 -0.0897 -0.6707 -0.7751
 8116TIP3    H145839   0.344   3.996   4.374 -0.4601 -0.2295 -0.1115
 8116TIP3    H245840   0.225   3.902   4.379 -0.5882 -0.0440  0.3335
 8117TIP3   OH245841   5.521   2.258   1.504  0.3504  0.0926  0.2361
 8117TIP3    H145842   5.457   2.195   1.472  1.1367 -0.3449 -0.5177
 8117TIP3    H245843   5.540   2.314   1.429  1.8319 -0.6178  0.0430
 8118TIP3   OH245844   4.523   2.512   4.565  0.3384 -0.4204  0.3389
 8118TIP3    H145845   4.488   2.509   4.476  0.4894 -1.2825  0.3032
 8118TIP3    H245846   4.475   2.443   4.612  1.2578 -0.9302  0.5532
 8119TIP3   OH245847   0.364   5.926  15.877  0.2752 -0.3750  0.3352
 8119TIP3    H145848   0.331   6.015  15.887 -2.1352 -1.2682  1.2451
 8119TIP3    H245849   0.455   5.936  15.852 -0.5353  2.3891 -2.0558
 8120TIP3   OH245850   6.844   0.153   4.444  0.4102  0.5136 -0.1539
 8120TIP3    H145851   6.873   0.105   4.367 -0.8603  0.7240 -0.7854
 8120TIP3    H245852   6.793   0.090   4.494 -0.3552  0.8915 -0.4430
 8121TIP3   OH245853   5.365   4.496  13.722 -0.6137 -0.0941  0.0645
 8121TIP3    H145854   5.382   4.590  13.730 -1.4833  0.3043 -2.1038
 8121TIP3    H245855   5.271   4.491  13.702 -0.1391 -1.2041 -2.2131
 8122TIP3   OH245856   3.853   6.711  11.027 -0.5224  0.4690  0.1896
 8122TIP3    H145857   3.876   6.633  10.977 -1.6878  0.9433 -1.1273
 8122TIP3    H245858   3.936   6.757  11.039  0.1032 -0.7152  0.5750
 8123TIP3   OH245859   4.627   1.482  12.379 -0.1018  0.0381  0.7559
 8123TIP3    H145860   4.688   1.424  12.426  1.0871  0.2622 -0.4421
 8123TIP3    H245861   4.541   1.443  12.393  0.7362 -2.5267 -0.6784
 8124TIP3   OH245862   5.180   6.388  10.412  0.2050  0.2332 -0.2885
 8124TIP3    H145863   5.216   6.357  10.495  2.1764  0.1518 -1.1112
 8124TIP3    H245864   5.152   6.308  10.367  1.3530 -0.0061 -0.6402
 8125TIP3   OH245865   3.629   2.559  16.647 -0.3279 -0.3944  0.2662
 8125TIP3    H145866   3.719   2.588  16.631 -0.0073 -1.4425  0.0861
 8125TIP3    H245867   3.637   2.490  16.714 -0.7741 -1.7943 -1.0633
 8126TIP3   OH245868   2.413   5.601  11.490 -0.3358  0.9111  0.0504
 8126TIP3    H145869   2.468   5.525  11.511 -1.0274 -0.0130 -1.3559
 8126TIP3    H245870   2.465   5.676  11.520  1.5292  0.0528 -0.8374
 8127TIP3   OH245871   2.301   5.710   4.935  0.0811  0.1513  0.4184
 8127TIP3    H145872   2.239   5.741   4.868  1.4464  3.2401  0.3913
 8127TIP3    H245873   2.251   5.646   4.986 -2.5454  1.1346 -0.7046
 8128TIP3   OH245874   0.633   3.774   2.543 -0.0945  0.2641 -0.4320
 8128TIP3    H145875   0.668   3.782   2.454  2.2222 -2.4236  0.0938
 8128TIP3    H245876   0.710   3.778   2.600 -1.1891 -0.7536  1.2369
 8129TIP3   OH245877   6.014   2.681   4.157  0.2277  0.3134 -0.2323
 8129TIP3    H145878   5.925   2.715   4.152  0.6676  1.4682 -0.4709
 8129TIP3    H245879   6.019   2.615   4.088 -0.4809  0.1274 -0.1153
 8130TIP3   OH245880   1.854   1.140   2.496  0.0637  0.5261 -0.1455
 8130TIP3    H145881   1.810   1.104   2.418 -0.2373 -0.8652  0.6218
 8130TIP3    H245882   1.784   1.147   2.561  1.0050 -2.4499  1.3465
 8131TIP3   OH245883   5.686   2.033   3.677 -0.3805  0.0581 -0.1129
 8131TIP3    H145884   5.677   2.108   3.736  1.1662  0.6154 -0.5267
 8131TIP3    H245885   5.775   2.040   3.643 -1.1679 -0.3030 -2.4427
 8132TIP3   OH245886   2.831   6.019  11.775  0.1999  0.1687 -0.1220
 8132TIP3    H145887   2.762   6.043  11.713 -1.3605 -3.3072  0.0222
 8132TIP3    H245888   2.819   6.081  11.848 -1.7877  0.6414 -0.7654
 8133TIP3   OH245889   0.509   2.818   4.756 -0.2659  0.0591 -0.1650
 8133TIP3    H145890   0.572   2.755   4.788 -0.8914 -1.6393 -2.0619
 8133TIP3    H245891   0.558   2.900   4.748  1.0354 -0.6093  0.6945
 8134TIP3   OH245892   6.265   1.849   6.411 -0.3779 -0.7286  0.9655
 8134TIP3    H145893   6.334   1.891   6.463 -0.0572 -0.5174  0.3834
 8134TIP3    H245894   6.303   1.841   6.324 -0.9094 -1.0789  0.7610
 8135TIP3   OH245895   3.312   3.325  16.483  0.5040  0.5325 -0.0760
 8135TIP3    H145896   3.399   3.307  16.519  0.6466  0.1349 -0.6054
 8135TIP3    H245897   3.321   3.409  16.439  0.0917  1.4928  1.5639
 8136TIP3   OH245898   0.241   3.130   4.307  0.6759  0.1319 -0.5975
 8136TIP3    H145899   0.257   3.046   4.349 -0.3626  0.3236  0.2014
 8136TIP3    H245900   0.288   3.193   4.361  0.4940  0.2059 -0.5247
 8137TIP3   OH245901   2.806   5.853  15.849 -0.0264 -0.1047  0.0222
 8137TIP3    H145902   2.890   5.810  15.864 -0.7406 -1.0631  1.5257
 8137TIP3    H245903   2.808   5.878  15.756  0.9794 -2.1630 -0.5702
 8138TIP3   OH245904   6.628   2.642  15.496 -0.4079  0.2006 -0.3015
 8138TIP3    H145905   6.696   2.592  15.451 -0.8027 -0.6443  0.0186
 8138TIP3    H245906   6.546   2.606  15.462 -0.6974  0.6961 -0.1326
 8139TIP3   OH245907   4.758   0.757   3.792 -0.2453  0.6023 -0.4721
 8139TIP3    H145908   4.683   0.728   3.739 -0.0203  1.9151 -1.5816
 8139TIP3    H245909   4.833   0.716   3.751 -0.1152  1.2990 -0.9641
 8140TIP3   OH245910   4.413   0.355  13.444  0.1789 -0.2327 -0.1091
 8140TIP3    H145911   4.350   0.427  13.431  0.0912 -0.4832 -1.1590
 8140TIP3    H245912   4.408   0.336  13.538 -0.2248  0.7394  0.0879
 8141TIP3   OH245913   0.503   6.251   0.213  0.2233 -0.4735 -0.5501
 8141TIP3    H145914   0.584   6.294   0.188  0.7824 -1.9321 -1.3309
 8141TIP3    H245915   0.512   6.161   0.182 -0.3213 -1.5777  2.2089
 8142TIP3   OH245916   6.857   6.555  16.401  0.7075 -0.2885 -0.0800
 8142TIP3    H145917   6.768   6.583  16.377  0.3524 -1.5548 -0.2930
 8142TIP3    H245918   6.861   6.569  16.496  0.2655 -0.2609 -0.0619
 8143TIP3   OH245919   4.467   4.245  16.391  0.4854 -0.1341  0.0014
 8143TIP3    H145920   4.377   4.228  16.418  0.6569 -0.6686  0.2519
 8143TIP3    H245921   4.521   4.201  16.456  0.9026 -1.9690 -1.4727
 8144TIP3   OH245922   3.623   0.731  11.780 -0.2936  0.1209 -0.2701
 8144TIP3    H145923   3.613   0.756  11.872 -1.7667  0.7546 -0.5612
 8144TIP3    H245924   3.536   0.746  11.743 -0.3900 -2.4600 -1.2359
 8145TIP3   OH245925   4.471   4.527   1.069  0.0890  0.1234 -0.5974
 8145TIP3    H145926   4.387   4.502   1.031  0.1690  0.4366 -0.9922
 8145TIP3    H245927   4.492   4.611   1.027  0.0832  0.5770  0.2909
 8146TIP3   OH245928   0.783   6.336  11.883  0.2279  0.6239  0.0679
 8146TIP3    H145929   0.806   6.408  11.824 -0.5076  0.1725 -0.7987
 8146TIP3    H245930   0.725   6.281  11.831 -0.1017 -0.0127  1.0930
 8147TIP3   OH245931   1.536   4.063   3.642  0.2436 -0.3288 -0.0488
 8147TIP3    H145932   1.630   4.060   3.621  0.2517 -3.3254 -0.0220
 8147TIP3    H245933   1.530   4.027   3.730 -0.7555  2.4801  1.1303
 8148TIP3   OH245934   6.196   6.350   2.899  0.3480 -0.7117  0.0971
 8148TIP3    H145935   6.286   6.366   2.871  0.2961 -0.4150  0.1003
 8148TIP3    H245936   6.161   6.436   2.919 -0.7761 -0.4881 -2.4295
 8149TIP3   OH245937   3.549   5.031   5.562  0.4025 -0.1730  0.3801
 8149TIP3    H145938   3.459   4.998   5.567 -0.1223  1.3592  2.1140
 8149TIP3    H245939   3.546   5.096   5.491 -0.4004  1.2032  1.5936
 8150TIP3   OH245940   2.128   4.568  10.271 -0.0799 -0.2665  0.5862
 8150TIP3    H145941   2.039   4.557  10.238 -0.0180  2.6830 -0.9184
 8150TIP3    H245942   2.118   4.617  10.352  0.1535 -0.1950  0.5724
 8151TIP3   OH245943   5.974   4.255   2.640 -0.3325 -0.6749  0.1276
 8151TIP3    H145944   6.005   4.340   2.671 -1.5695  0.1630 -0.8261
 8151TIP3    H245945   5.933   4.215   2.717 -0.4108 -0.0761  0.4078
 8152TIP3   OH245946   6.302   0.315   0.708 -0.3372 -0.0685 -0.1730
 8152TIP3    H145947   6.329   0.308   0.617  0.0151  0.9857 -0.1660
 8152TIP3    H245948   6.244   0.391   0.711 -2.0272 -1.3225  0.1268
 8153TIP3   OH245949   1.220   1.386   4.353 -0.2095  0.6702  0.0658
 8153TIP3    H145950   1.244   1.394   4.261  1.2709 -0.0073  0.3577
 8153TIP3    H245951   1.290   1.332   4.391 -1.5386 -0.2723  1.2891
 8154TIP3   OH245952   6.002   1.741  13.461  0.1965 -0.2452  0.1002
 8154TIP3    H145953   5.918   1.696  13.455  0.4258 -0.8325  1.0851
 8154TIP3    H245954   5.981   1.833  13.451 -0.7613 -0.2491  1.7208
 8155TIP3   OH245955   5.206   2.138   2.571  0.6966 -0.2392 -0.9972
 8155TIP3    H145956   5.203   2.160   2.664  2.1674 -1.7223 -0.5531
 8155TIP3    H245957   5.240   2.217   2.529  2.3013 -0.3416  0.0495
 8156TIP3   OH245958   2.367   0.033   1.920  0.0898 -0.5096 -0.4585
 8156TIP3    H145959   2.293  -0.017   1.887  0.7798 -2.0021  0.1395
 8156TIP3    H245960   2.444  -0.010   1.882  0.6609  1.4698 -1.6732
 8157TIP3   OH245961   6.427   5.989   5.543 -0.1559  0.6571 -0.3454
 8157TIP3    H145962   6.483   6.028   5.476  0.1274  0.8078 -0.0232
 8157TIP3    H245963   6.391   6.063   5.590 -0.2634  0.5471 -0.2542
 8158TIP3   OH245964   6.326   3.003  15.700 -0.2238 -0.0794  0.7400
 8158TIP3    H145965   6.350   2.939  15.634 -0.3686  0.8613 -0.2558
 8158TIP3    H245966   6.405   3.014  15.752  0.8172  1.1885 -1.0072
 8159TIP3   OH245967   5.234   3.447  14.604 -0.3243  0.4328 -0.2925
 8159TIP3    H145968   5.317   3.480  14.569 -0.6525 -1.7744 -3.6107
 8159TIP3    H245969   5.247   3.353  14.610 -2.5456  0.0541 -0.8571
 8160TIP3   OH245970   2.822   5.243   0.916  0.0953  0.5450 -0.7127
 8160TIP3    H145971   2.767   5.255   0.993 -0.2590  2.2832 -1.1699
 8160TIP3    H245972   2.802   5.155   0.885 -1.3746  0.6138 -0.0485
 8161TIP3   OH245973   3.869   5.228  14.394  0.0067 -0.2445 -0.0128
 8161TIP3    H145974   3.940   5.253  14.335 -0.4727 -0.5874 -0.7531
 8161TIP3    H245975   3.896   5.142  14.428 -0.8315 -1.2026 -1.6447
 8162TIP3   OH245976   4.298   4.719  15.833  0.4753  0.7894 -0.1834
 8162TIP3    H145977   4.214   4.722  15.880  1.8906 -0.8352  2.7399
 8162TIP3    H245978   4.347   4.794  15.868  0.9681  0.5436 -0.3461
 8163TIP3   OH245979   6.031   5.623   2.491 -0.1919 -0.1375 -0.4206
 8163TIP3    H145980   6.085   5.547   2.469  0.1094 -0.4632  1.3502
 8163TIP3    H245981   5.942   5.588   2.496 -0.0940 -0.3205  0.0921
 8164TIP3   OH245982   1.389   5.059   4.372  0.1637  0.0197  0.0813
 8164TIP3    H145983   1.380   5.022   4.284 -0.5772 -1.0390  0.5869
 8164TIP3    H245984   1.479   5.092   4.374  0.3775 -0.4421 -0.8898
 8165TIP3   OH245985   2.411   0.705   0.070 -0.4003 -0.4087 -0.1082
 8165TIP3    H145986   2.423   0.612   0.091  0.2410 -0.0412  1.2938
 8165TIP3    H245987   2.419   0.750   0.155  1.6595  1.1513 -1.0371
 8166TIP3   OH245988   5.024   2.117   5.243  0.4618 -0.1540  0.1196
 8166TIP3    H145989   5.118   2.110   5.259  0.2276  0.5052  2.0562
 8166TIP3    H245990   4.993   2.180   5.308 -1.1974  0.3423 -1.0624
 8167TIP3   OH245991   1.697   3.005  10.923  0.0929  0.5723  0.5161
 8167TIP3    H145992   1.656   2.970  11.002 -1.9504 -1.3667 -1.2622
 8167TIP3    H245993   1.748   2.932  10.888 -1.4182  0.3406 -1.4289
 8168TIP3   OH245994   5.819   3.988   1.419 -0.1436  0.1972 -0.2641
 8168TIP3    H145995   5.860   3.985   1.332  0.1877 -2.7395 -0.1043
 8168TIP3    H245996   5.869   3.925   1.471 -1.0208  1.0949  1.7732
 8169TIP3   OH245997   3.440   0.901  13.884 -0.1392  0.0358 -0.0038
 8169TIP3    H145998   3.394   0.859  13.811  1.3226  0.0296 -0.9617
 8169TIP3    H245999   3.519   0.939  13.844  0.0167  1.2050  1.3441
 8170TIP3   OH246000   1.050   2.804  11.391 -0.1675  0.2435  0.3098
 8170TIP3    H146001   1.006   2.873  11.343 -1.5001  0.2077  1.4435
 8170TIP3    H246002   1.143   2.828  11.388 -0.3854  1.0197 -0.9642
 8171TIP3   OH246003   0.217   4.396   2.561  0.5949 -0.0380 -0.4569
 8171TIP3    H146004   0.261   4.479   2.544 -0.1456  0.1264 -1.7768
 8171TIP3    H246005   0.261   4.359   2.637  0.4063  1.9464  0.6711
 8172TIP3   OH246006   0.791   5.957  10.208  0.1799 -0.2606 -0.1975
 8172TIP3    H146007   0.725   5.888  10.211 -0.2512  0.1649  0.5963
 8172TIP3    H246008   0.759   6.023  10.270  0.7922  0.4577 -0.6269
 8173TIP3   OH246009   4.838   2.228  10.759 -0.5796  0.1562 -0.2692
 8173TIP3    H146010   4.881   2.218  10.844 -1.8866 -0.1953  0.3628
 8173TIP3    H246011   4.765   2.167  10.761 -0.0798 -0.5743 -2.0384
 8174TIP3   OH246012   1.113   2.401   1.412  1.2317  0.5365  0.1241
 8174TIP3    H146013   1.188   2.442   1.456  1.1603 -1.4634  2.2661
 8174TIP3    H246014   1.150   2.325   1.368  0.9513  1.4266 -1.7764
 8175TIP3   OH246015   5.228   3.758   1.202  0.1207  0.1989 -0.2909
 8175TIP3    H146016   5.271   3.674   1.215 -1.0798 -0.9212 -2.8422
 8175TIP3    H246017   5.238   3.804   1.286  2.0169 -1.8791  0.7277
 8176TIP3   OH246018   6.522   1.125   4.431  0.3435 -0.0819 -0.0598
 8176TIP3    H146019   6.558   1.189   4.369  0.2048 -0.0274 -0.0833
 8176TIP3    H246020   6.537   1.041   4.389  0.1725 -0.0394 -0.2065
 8177TIP3   OH246021   6.009   3.726   4.579  0.6298 -0.5506 -0.5611
 8177TIP3    H146022   5.947   3.738   4.651 -0.8876 -0.8553 -1.7688
 8177TIP3    H246023   6.043   3.637   4.592  2.3349  0.2880  1.1972
 8178TIP3   OH246024   6.309   1.499   4.708 -0.4956 -0.3003 -0.2826
 8178TIP3    H146025   6.307   1.423   4.650  0.7870  0.3844 -1.2855
 8178TIP3    H246026   6.292   1.574   4.650  0.1461  0.3400  0.3403
 8179TIP3   OH246027   3.923   4.159  13.024 -0.2067 -0.6978 -0.1367
 8179TIP3    H146028   4.009   4.185  12.990  0.6158 -1.3934  1.3342
 8179TIP3    H246029   3.864   4.227  12.993  1.2262  0.9080  0.4979
 8180TIP3   OH246030   4.904   6.098  14.791 -0.1191 -0.6131 -0.1633
 8180TIP3    H146031   4.985   6.094  14.739  0.4152 -1.9442  0.7273
 8180TIP3    H246032   4.834   6.087  14.728  0.1946  2.7617 -1.3105
 8181TIP3   OH246033   1.928   2.995  12.811  0.3586 -0.0411 -0.1509
 8181TIP3    H146034   2.016   3.011  12.844  0.6529 -1.3641 -0.2463
 8181TIP3    H246035   1.940   2.965  12.721 -0.1342 -0.8062  0.0240
 8182TIP3   OH246036   1.489   3.100   6.102 -0.4376  0.0695 -0.0275
 8182TIP3    H146037   1.484   3.168   6.169  0.7662 -1.1530  1.3580
 8182TIP3    H246038   1.553   3.133   6.039 -0.5196  0.5984  0.1612
 8183TIP3   OH246039   5.537   4.354   5.331  0.0882  0.4401  0.1896
 8183TIP3    H146040   5.501   4.441   5.311  0.6056  0.1917 -1.9924
 8183TIP3    H246041   5.477   4.293   5.289 -0.0429 -0.2765  1.3696
 8184TIP3   OH246042   1.312   2.248   4.801  0.7005  0.2482  0.7193
 8184TIP3    H146043   1.295   2.304   4.876 -0.0597  0.7360  0.1976
 8184TIP3    H246044   1.328   2.309   4.728 -1.9446 -0.0940 -0.2844
 8185TIP3   OH246045   3.629   6.835   4.314 -0.1307  0.0460 -0.0129
 8185TIP3    H146046   3.625   6.927   4.341 -0.8800 -0.0104  0.0958
 8185TIP3    H246047   3.633   6.838   4.219 -1.2721  0.1786 -0.0665
 8186TIP3   OH246048   2.401   1.766   2.674  0.4681 -0.4839 -0.4466
 8186TIP3    H146049   2.363   1.821   2.742 -1.5799 -0.9924 -1.1054
 8186TIP3    H246050   2.479   1.814   2.645  1.3651 -0.2236  2.1384
 8187TIP3   OH246051   4.064   6.631  16.063 -0.1725  0.3363  0.4427
 8187TIP3    H146052   3.990   6.688  16.084 -1.7882 -0.7589 -1.8788
 8187TIP3    H246053   4.049   6.553  16.116 -0.9425 -0.0362 -0.2964
 8188TIP3   OH246054   4.691   1.754  10.632  0.0113  0.4726  0.4394
 8188TIP3    H146055   4.687   1.790  10.543 -0.3035  0.1825  0.3366
 8188TIP3    H246056   4.601   1.757  10.663 -0.5520 -2.5778 -0.5111
 8189TIP3   OH246057   0.769   1.129  12.644 -0.1096  0.4410  0.1365
 8189TIP3    H146058   0.810   1.049  12.679 -0.0738  0.5752  0.4044
 8189TIP3    H246059   0.726   1.100  12.564  0.4749  0.2882 -0.1316
 8190TIP3   OH246060   6.552   0.492   4.782  0.1462  0.3763  0.5090
 8190TIP3    H146061   6.519   0.528   4.864  1.4412  1.1570  0.7094
 8190TIP3    H246062   6.505   0.540   4.714 -0.0936  0.5437  0.7908
 8191TIP3   OH246063   0.917   3.292  16.360  0.0030  0.8178  0.3827
 8191TIP3    H146064   0.935   3.382  16.388 -0.2944  0.6598  1.0973
 8191TIP3    H246065   0.822   3.289  16.350  0.1387  1.1430 -1.6419
 8192TIP3   OH246066   3.116   3.112  16.170  0.6231 -0.1001  0.3004
 8192TIP3    H146067   3.026   3.130  16.142  0.6053 -1.4222 -0.5833
 8192TIP3    H246068   3.157   3.198  16.175 -0.3210  0.4345 -0.6103
 8193TIP3   OH246069   6.303   0.079   3.736  0.7040  0.2708  0.4675
 8193TIP3    H146070   6.221   0.032   3.745  0.9955 -0.1768  0.8129
 8193TIP3    H246071   6.352   0.030   3.671  0.1911  1.2671 -0.7100
 8194TIP3   OH246072   6.474   1.667  10.799 -0.2925 -0.4121  0.3157
 8194TIP3    H146073   6.417   1.742  10.809 -1.7156 -1.1863 -1.4235
 8194TIP3    H246074   6.417   1.597  10.767  1.5627 -1.3153 -1.2234
 8195TIP3   OH246075   5.743   2.695   4.082  0.8539  0.2262  0.9716
 8195TIP3    H146076   5.742   2.600   4.091  0.2056  0.2477  1.1732
 8195TIP3    H246077   5.656   2.723   4.110  0.9027  0.8441  0.5283
 8196TIP3   OH246078   3.527   6.746   0.026  0.1351 -0.1149 -0.0100
 8196TIP3    H146079   3.514   6.660   0.066 -0.3324  0.2867  0.7323
 8196TIP3    H246080   3.540   6.805   0.100 -1.5869  0.7998 -0.3798
 8197TIP3   OH246081   6.330   2.523   6.308 -0.1068 -0.0838 -0.1295
 8197TIP3    H146082   6.411   2.489   6.345  0.6152  1.8296  0.1695
 8197TIP3    H246083   6.275   2.540   6.385 -0.6043 -0.8889 -0.2990
 8198TIP3   OH246084   2.074   6.242   1.336  0.0897 -0.5566  0.6427
 8198TIP3    H146085   2.108   6.170   1.283 -2.0352  0.3075 -2.1039
 8198TIP3    H246086   1.982   6.220   1.349 -0.1431  0.7722  1.3852
 8199TIP3   OH246087   6.827   0.921  11.580 -0.6024 -0.5808 -0.3293
 8199TIP3    H146088   6.838   1.014  11.559 -0.1597  0.0239  2.1862
 8199TIP3    H246089   6.912   0.882  11.558 -0.6426 -0.2983 -0.9994
 8200TIP3   OH246090   6.316   0.411   5.488 -0.3734 -0.0860 -0.0675
 8200TIP3    H146091   6.378   0.441   5.421 -0.2234 -0.1978  0.0194
 8200TIP3    H246092   6.368   0.406   5.568 -1.3564  3.8115  1.0388
 8201TIP3   OH246093   4.423   2.758  15.201 -0.2330  0.4717 -0.4256
 8201TIP3    H146094   4.338   2.724  15.174  0.0851 -0.7237  0.0159
 8201TIP3    H246095   4.404   2.846  15.233 -1.6172 -0.4033  1.3433
 8202TIP3   OH246096   0.867   1.199  12.126  0.1501  0.0501 -0.3879
 8202TIP3    H146097   0.826   1.230  12.045  0.1031 -0.7604 -0.6764
 8202TIP3    H246098   0.886   1.279  12.175 -0.9771  0.4919 -0.6404
 8203TIP3   OH246099   0.875   5.026   5.030 -0.1382  0.4050  0.0470
 8203TIP3    H146100   0.782   5.036   5.009  0.2655  1.1609 -1.5257
 8203TIP3    H246101   0.912   4.978   4.955  0.9004  0.8844  0.2363
 8204TIP3   OH246102   6.603   4.553   5.087  0.4086 -0.1165 -0.1132
 8204TIP3    H146103   6.526   4.609   5.072  0.1397 -0.0719  1.2393
 8204TIP3    H246104   6.567   4.467   5.108  0.1910  1.0142  6.0430
 8205TIP3   OH246105   4.136   2.957  12.362 -0.9752  0.0242  0.1980
 8205TIP3    H146106   4.122   2.878  12.310 -0.6945  0.7890 -1.0884
 8205TIP3    H246107   4.176   2.925  12.443  1.9375 -0.9599 -1.4581
 8206TIP3   OH246108   4.407   3.063   4.935  0.0853  0.1728 -0.4558
 8206TIP3    H146109   4.387   2.983   4.985 -0.0353  0.8327  0.5820
 8206TIP3    H246110   4.435   3.126   5.001 -0.1552  1.1048 -1.2224
 8207TIP3   OH246111   0.688   5.146   0.020 -0.3832 -0.4358 -0.5352
 8207TIP3    H146112   0.779   5.167  -0.001 -0.5957  0.9384 -0.1827
 8207TIP3    H246113   0.645   5.231   0.028 -1.0969 -0.9428  1.9516
 8208TIP3   OH246114   6.024   4.349  13.295  0.4054 -0.3368 -0.1716
 8208TIP3    H146115   5.995   4.261  13.269  0.8514 -0.1329 -1.4372
 8208TIP3    H246116   6.066   4.336  13.380 -1.6704 -0.9431  0.8396
 8209TIP3   OH246117   1.606   3.772  14.163  0.4797  0.5226  0.7548
 8209TIP3    H146118   1.575   3.684  14.140  0.9867  0.4787  0.2192
 8209TIP3    H246119   1.526   3.823  14.175  0.1719 -0.1002  1.4403
 8210TIP3   OH246120   2.812   1.102  11.129  0.0772 -0.2401  0.0293
 8210TIP3    H146121   2.789   1.175  11.187 -0.9336 -1.3537  1.0981
 8210TIP3    H246122   2.846   1.144  11.050  0.5278  1.3591  1.0147
 8211TIP3   OH246123   1.637   1.030  13.290  0.1827 -0.5831 -0.2136
 8211TIP3    H146124   1.716   0.976  13.282 -1.2378 -2.6625 -1.1691
 8211TIP3    H246125   1.627   1.071  13.204  0.2344 -0.2800 -0.0771
 8212TIP3   OH246126   2.039   2.328  13.456 -0.9649  0.0400  0.3504
 8212TIP3    H146127   2.091   2.377  13.393 -1.6593 -0.0823 -0.3354
 8212TIP3    H246128   2.080   2.347  13.541 -0.7710  1.2092  0.0162
 8213TIP3   OH246129   4.733   4.089   1.721 -0.4127 -0.7225 -0.1968
 8213TIP3    H146130   4.724   4.054   1.809 -0.4252  0.3382  0.2359
 8213TIP3    H246131   4.826   4.078   1.700 -0.5159 -1.4796 -0.2762
 8214TIP3   OH246132   4.711   6.035   2.067  0.4546 -0.2084 -0.0274
 8214TIP3    H146133   4.663   6.009   1.988  0.5036 -0.3621 -0.0076
 8214TIP3    H246134   4.795   6.069   2.034  0.7214 -0.8369 -0.0108
 8215TIP3   OH246135   1.136   1.780  10.677 -0.4445 -0.2203  0.5955
 8215TIP3    H146136   1.109   1.765  10.768  2.2158 -1.9929  1.2153
 8215TIP3    H246137   1.114   1.700  10.631  0.9911 -0.5687  0.4614
 8216TIP3   OH246138   2.364   3.003   1.763 -0.4110  0.3931  0.9333
 8216TIP3    H146139   2.383   2.966   1.849 -0.2363 -0.8333  0.3775
 8216TIP3    H246140   2.429   3.073   1.753  0.3680 -0.2648  1.2936
 8217TIP3   OH246141   6.572   0.167   4.391 -0.0669  0.0699 -0.0552
 8217TIP3    H146142   6.664   0.161   4.419 -0.2964  0.0212  0.7198
 8217TIP3    H246143   6.573   0.227   4.317  0.1939  2.4818  1.8026
 8218TIP3   OH246144   1.803   4.195  13.322 -0.7806  0.1973  0.2518
 8218TIP3    H146145   1.835   4.213  13.410 -0.3209  1.0879 -0.0837
 8218TIP3    H246146   1.798   4.100  13.317  1.8176 -0.0069  0.3249
 8219TIP3   OH246147   4.093   0.834  16.096  0.4485  0.5282  0.1946
 8219TIP3    H146148   4.103   0.927  16.075  1.0478  0.4508  0.1233
 8219TIP3    H246149   4.171   0.792  16.059 -1.8900 -0.7318 -3.9473
 8220TIP3   OH246150   4.686   6.777  12.396 -0.1343 -0.1243  0.1794
 8220TIP3    H146151   4.741   6.719  12.449  1.0236  1.1244  0.3806
 8220TIP3    H246152   4.703   6.750  12.306  0.2708 -0.2135  0.2782
 8221TIP3   OH246153   0.129   5.960   1.309 -0.0700 -0.3298  0.0571
 8221TIP3    H146154   0.039   5.929   1.296  0.2053 -0.4431 -1.8234
 8221TIP3    H246155   0.184   5.886   1.280  0.6546 -0.3789  1.4672
 8222TIP3   OH246156   4.447   3.019   3.484 -0.0481 -0.2881  0.0229
 8222TIP3    H146157   4.369   2.966   3.471  0.9637 -1.9255  0.2598
 8222TIP3    H246158   4.499   3.005   3.404  1.0855 -1.2283  0.8827
 8223TIP3   OH246159   3.707   1.918   1.525  0.0954 -0.1109 -0.4211
 8223TIP3    H146160   3.698   1.937   1.618 -0.7606 -0.9438 -0.3293
 8223TIP3    H246161   3.619   1.930   1.489  0.4201  0.2254 -1.1393
 8224TIP3   OH246162   0.949   5.960  13.028 -0.1939 -0.3275  0.3854
 8224TIP3    H146163   0.925   5.905  12.954 -0.4322 -0.0291  0.2366
 8224TIP3    H246164   0.920   5.912  13.106 -1.6447  0.1892  0.1982
 8225TIP3   OH246165   1.349   5.037   0.508  0.5134  0.1674 -0.5021
 8225TIP3    H146166   1.337   5.093   0.432  1.7287 -0.3991 -1.1445
 8225TIP3    H246167   1.264   4.995   0.521 -0.5480  2.3911  0.2453
 8226TIP3   OH246168   3.953   0.820   2.126 -0.4210 -0.2282  0.0449
 8226TIP3    H146169   3.880   0.871   2.092  0.1052 -0.3985 -1.3833
 8226TIP3    H246170   3.924   0.729   2.118 -0.6856 -0.2423  1.0138
 8227TIP3   OH246171   1.640   5.297   3.260 -0.9631 -0.1349 -0.0120
 8227TIP3    H146172   1.710   5.246   3.218 -0.1746  0.8150  0.1099
 8227TIP3    H246173   1.680   5.332   3.340 -2.2409 -1.3585  1.2225
 8228TIP3   OH246174   0.197   0.191  16.441  0.1442 -0.2292  0.0618
 8228TIP3    H146175   0.127   0.127  16.455 -2.3731  2.2614 -0.3587
 8228TIP3    H246176   0.228   0.173  16.352 -1.1804 -0.3190 -0.4080
 8229TIP3   OH246177   1.186   3.127  11.172  0.5837 -0.2394  0.2114
 8229TIP3    H146178   1.119   3.116  11.238 -0.7773 -1.6482 -1.3009
 8229TIP3    H246179   1.267   3.097  11.214  0.1716  0.8305  1.8369
 8230TIP3   OH246180   6.872   4.474  11.300  0.0438 -0.1221  0.3536
 8230TIP3    H146181   6.828   4.418  11.364 -0.0179 -0.6454 -0.1367
 8230TIP3    H246182   6.903   4.549  11.351 -1.1314  0.1015  0.7566
 8231TIP3   OH246183   1.779   0.705  16.838  0.1157 -0.5475 -0.4986
 8231TIP3    H146184   1.864   0.725  16.800  0.0351  0.8738 -0.0058
 8231TIP3    H246185   1.721   0.694  16.763  0.4271 -0.0408 -0.8187
 8232TIP3   OH246186   5.475   5.602   5.199 -0.3500  0.2983 -0.5623
 8232TIP3    H146187   5.386   5.568   5.195  0.7152 -2.7425 -0.7462
 8232TIP3    H246188   5.497   5.620   5.108  0.5459 -3.0699 -1.1613
 8233TIP3   OH246189   3.147   6.209  15.983 -0.3914  0.2769 -0.1876
 8233TIP3    H146190   3.087   6.151  16.031  0.6336 -0.0985  0.6757
 8233TIP3    H246191   3.090   6.259  15.925 -1.3580 -1.4564 -0.8307
 8234TIP3   OH246192   1.033   5.399   3.114 -0.2811  1.0450 -0.1687
 8234TIP3    H146193   1.009   5.312   3.145 -0.4115  0.7362 -1.1218
 8234TIP3    H246194   1.129   5.398   3.112 -0.2685  1.0882  0.2645
 8235TIP3   OH246195   4.181   0.542  11.568  0.3715  0.5559 -0.0635
 8235TIP3    H146196   4.237   0.469  11.594  1.3445  1.3748  0.2042
 8235TIP3    H246197   4.210   0.564  11.479  0.3443  0.8551 -0.0009
 8236TIP3   OH246198   2.126   0.171   5.918 -0.1279 -0.1861  0.2805
 8236TIP3    H146199   2.096   0.130   5.999  0.5464 -2.7017 -0.6604
 8236TIP3    H246200   2.214   0.202   5.938  0.4603 -1.7546  0.2745
 8237TIP3   OH246201   6.189   5.897   5.830 -0.0803  0.9296  0.6116
 8237TIP3    H146202   6.239   5.862   5.756 -0.0043 -0.4162  1.2719
 8237TIP3    H246203   6.103   5.856   5.822 -0.2707  1.2677  0.9139
 8238TIP3   OH246204   1.598   3.112  14.964 -0.0088 -0.0666  0.0640
 8238TIP3    H146205   1.555   3.166  15.030  2.1681  0.5655  1.0925
 8238TIP3    H246206   1.569   3.148  14.880 -1.1300  0.5488  0.6969
 8239TIP3   OH246207   6.716   4.899   2.566 -0.1294  0.0829 -0.0295
 8239TIP3    H146208   6.752   4.974   2.614  1.6110  0.3016 -1.5907
 8239TIP3    H246209   6.724   4.923   2.474 -1.7780 -1.0562 -0.5064
 8240TIP3   OH246210   2.104   6.840  15.053 -0.2543  0.3444  0.6693
 8240TIP3    H146211   2.050   6.805  14.982 -1.6721  0.4718  1.6486
 8240TIP3    H246212   2.175   6.887  15.008 -1.6142  1.1989 -0.6788
 8241TIP3   OH246213   5.648   6.378   2.892 -0.2651  0.5599  0.2690
 8241TIP3    H146214   5.614   6.350   2.807  0.3338 -2.3967  0.8904
 8241TIP3    H246215   5.742   6.391   2.876 -0.2988  0.8454  0.3004
 8242TIP3   OH246216   5.586   5.644  12.982 -0.3100  0.4432 -0.8437
 8242TIP3    H146217   5.501   5.658  12.940 -1.4245 -0.1260  1.1234
 8242TIP3    H246218   5.613   5.730  13.013 -0.4897  0.5110 -0.8776
 8243TIP3   OH246219   4.361   0.030  10.594  1.0494 -0.6563 -0.9389
 8243TIP3    H146220   4.269   0.027  10.569  1.1396 -0.9574 -1.2571
 8243TIP3    H246221   4.396   0.107  10.551  0.3106  1.1732  1.5112
 8244TIP3   OH246222   0.602   5.896   1.831  0.2243 -0.0359 -0.3066
 8244TIP3    H146223   0.655   5.842   1.889  0.0018  0.0406 -0.0321
 8244TIP3    H246224   0.512   5.879   1.857  0.1474  0.4103 -0.2620
 8245TIP3   OH246225   3.239   1.760   6.456  0.2778  0.2850 -0.0847
 8245TIP3    H146226   3.258   1.687   6.515 -2.4678 -1.6068 -1.3058
 8245TIP3    H246227   3.250   1.722   6.368  3.9750  2.9136 -0.9984
 8246TIP3   OH246228   2.942   0.614  14.536  0.2965 -0.3431 -0.0363
 8246TIP3    H146229   2.849   0.610  14.514 -0.2201  0.7087  1.7149
 8246TIP3    H246230   2.972   0.698  14.500 -0.1000  0.5173  1.5551
 8247TIP3   OH246231   6.061   4.716  15.516  0.1399  0.4177  0.2573
 8247TIP3    H146232   5.997   4.782  15.543  0.1573  0.5290  0.0336
 8247TIP3    H246233   6.098   4.752  15.435 -0.1709 -0.0850 -0.1093
 8248TIP3   OH246234   0.335   6.498   2.313  0.2837  0.4799 -0.0920
 8248TIP3    H146235   0.383   6.526   2.391 -0.4298  1.0348  0.1512
 8248TIP3    H246236   0.341   6.402   2.316 -1.1696  0.3942  1.5902
 8249TIP3   OH246237   5.472   0.242   1.619  0.4395 -0.3529 -0.4152
 8249TIP3    H146238   5.425   0.158   1.624  0.5236 -0.3845 -0.1267
 8249TIP3    H246239   5.565   0.217   1.623  0.5335 -0.3845 -2.2002
 8250TIP3   OH246240   3.634   4.714  14.066 -0.3034 -0.2147  0.0946
 8250TIP3    H146241   3.663   4.685  13.980 -0.7120  0.8424 -0.4243
 8250TIP3    H246242   3.652   4.640  14.124 -1.3651 -1.5255 -1.1593
 8251TIP3   OH246243   4.740   0.773  12.373  0.6630  0.3660  0.7061
 8251TIP3    H146244   4.647   0.795  12.384  0.6510  1.1681 -0.7117
 8251TIP3    H246245   4.764   0.728  12.454 -1.2229 -0.7765  0.7020
 8252TIP3   OH246246   0.490   0.351  14.400  0.2232 -0.0819 -0.1933
 8252TIP3    H146247   0.536   0.285  14.349  0.0130  0.9583 -1.7964
 8252TIP3    H246248   0.398   0.330  14.391  0.0308  1.2820 -2.0779
 8253TIP3   OH246249   2.731   1.640  15.367 -0.4062 -0.3582 -0.1054
 8253TIP3    H146250   2.640   1.668  15.370 -0.1404  0.4637  0.9361
 8253TIP3    H246251   2.772   1.696  15.301 -0.6982 -0.9158 -0.7740
 8254TIP3   OH246252   3.278   1.126  16.483 -0.4758 -0.0419 -0.1392
 8254TIP3    H146253   3.242   1.171  16.559 -0.0121 -0.2888  0.2348
 8254TIP3    H246254   3.261   1.034  16.498  2.5141 -0.4820  1.3472
 8255TIP3   OH246255   1.249   3.887   0.427  0.3131  0.1200  0.4627
 8255TIP3    H146256   1.197   3.838   0.364  0.5856  0.3709  0.0382
 8255TIP3    H246257   1.227   3.979   0.409 -1.4469  0.1329  2.3181
 8256TIP3   OH246258   3.860   3.608   1.795  0.5034  0.8557 -0.0029
 8256TIP3    H146259   3.866   3.615   1.700  2.5152 -0.0385  0.0238
 8256TIP3    H246260   3.915   3.679   1.828  0.8044  0.4024  0.4824
 8257TIP3   OH246261   2.791   5.500   2.484 -0.2632  0.1165  0.1016
 8257TIP3    H146262   2.835   5.583   2.504  1.1601 -1.0334  2.1043
 8257TIP3    H246263   2.813   5.482   2.393 -0.6774  1.9410 -0.3984
 8258TIP3   OH246264   3.902   1.964   2.862  0.3364 -0.5937  0.5777
 8258TIP3    H146265   3.894   2.004   2.948 -0.9248 -0.3290  0.3551
 8258TIP3    H246266   3.865   1.876   2.872 -0.4646 -0.3093  0.1423
 8259TIP3   OH246267   6.080   2.289   5.894 -0.1400 -0.0606  0.5101
 8259TIP3    H146268   6.115   2.336   5.970 -2.0129  1.7969  0.3264
 8259TIP3    H246269   6.076   2.198   5.921 -0.2201  0.4757  2.4569
 8260TIP3   OH246270   0.845   4.390   1.585 -0.3847  0.0610 -0.8660
 8260TIP3    H146271   0.802   4.457   1.638  0.5199 -0.8406  1.1423
 8260TIP3    H246272   0.775   4.330   1.559 -1.1737  1.6308 -2.5384
 8261TIP3   OH246273   1.522   5.881   0.640  0.3766 -0.0929 -0.3340
 8261TIP3    H146274   1.469   5.824   0.696 -0.0621  0.7640  0.1454
 8261TIP3    H246275   1.607   5.885   0.685  0.4059 -0.3743 -0.3667
 8262TIP3   OH246276   3.089   1.677  14.312  0.1914 -0.5203 -0.2093
 8262TIP3    H146277   3.065   1.686  14.405  1.7269 -0.2223  0.1772
 8262TIP3    H246278   3.121   1.764  14.287 -0.5760 -0.4883 -1.1501
 8263TIP3   OH246279   2.772   4.665   0.079  0.3083 -0.5788 -0.4710
 8263TIP3    H146280   2.713   4.590   0.079  0.1748 -0.4763 -0.7696
 8263TIP3    H246281   2.715   4.741   0.094  0.2177 -0.3784 -1.7317
 8264TIP3   OH246282   0.448   0.240  14.004  0.5215  0.2937  0.2382
 8264TIP3    H146283   0.371   0.211  13.956  0.7646  1.9134 -1.2267
 8264TIP3    H246284   0.522   0.204  13.954  0.7586  1.4635 -0.2944
 8265TIP3   OH246285   6.656   4.172   2.209 -0.1034 -0.2604 -0.4498
 8265TIP3    H146286   6.663   4.265   2.185  1.4776 -0.1056  0.4873
 8265TIP3    H246287   6.592   4.137   2.147 -1.8547  1.7358  0.0773
 8266TIP3   OH246288   0.501   0.478   4.557  0.0384 -0.1461 -0.1459
 8266TIP3    H146289   0.579   0.482   4.612 -0.2460 -1.1727  0.3482
 8266TIP3    H246290   0.535   0.464   4.468  0.4479  0.5009 -0.1044
 8267TIP3   OH246291   6.792   3.172   4.824 -0.1879  0.5385 -0.0337
 8267TIP3    H146292   6.748   3.195   4.906 -0.9326  0.7709 -0.4861
 8267TIP3    H246293   6.777   3.078   4.814 -0.0629  0.5026  0.1170
 8268TIP3   OH246294   0.767   1.027   0.583  0.3863 -0.6598  0.3866
 8268TIP3    H146295   0.779   0.932   0.595 -0.4197 -1.0111 -1.3701
 8268TIP3    H246296   0.749   1.059   0.672  0.9338 -2.0982  1.0603
 8269TIP3   OH246297   5.807   5.404   4.908  0.0072  0.3444 -0.5141
 8269TIP3    H146298   5.781   5.368   4.993  1.6753  1.6048  0.6000
 8269TIP3    H246299   5.760   5.351   4.844 -4.0359  1.4414  1.1821
 8270TIP3   OH246300   0.162   4.588   2.146 -0.2301  0.0723  0.5576
 8270TIP3    H146301   0.233   4.577   2.209  1.2670 -0.9216 -1.2120
 8270TIP3    H246302   0.126   4.500   2.135  0.9286 -0.2029 -1.4791
 8271TIP3   OH246303   6.320   1.286  16.440 -0.3874 -0.7721 -0.3421
 8271TIP3    H146304   6.382   1.325  16.379 -2.0323 -0.0787 -1.6435
 8271TIP3    H246305   6.307   1.353  16.507  0.2061 -0.8958 -0.0993
 8272TIP3   OH246306   1.425   5.004  14.171  0.2249  0.0514  0.1755
 8272TIP3    H146307   1.519   5.019  14.175 -0.1494  2.5281  2.3313
 8272TIP3    H246308   1.394   5.065  14.105  0.0177 -0.2345  0.0043
 8273TIP3   OH246309   0.776   4.825   5.288  0.0049 -0.0587  0.5724
 8273TIP3    H146310   0.693   4.850   5.246 -0.4432 -0.2828  1.3043
 8273TIP3    H246311   0.841   4.833   5.219 -0.7328 -0.4944 -0.1904
 8274TIP3   OH246312   0.462   4.649   2.700  0.1030  0.3093 -0.0806
 8274TIP3    H146313   0.401   4.676   2.632 -0.0319 -2.1709 -1.0456
 8274TIP3    H246314   0.409   4.597   2.761  0.7871  0.0735  0.3285
 8275TIP3   OH246315   5.238   6.056   2.283 -0.3363 -0.2184  0.2510
 8275TIP3    H146316   5.243   6.033   2.375  1.0481 -1.3678 -0.0822
 8275TIP3    H246317   5.168   6.121   2.278 -0.7305 -0.4733  2.0295
 8276TIP3   OH246318   3.522   0.617   4.828  0.2673 -0.4173 -0.4989
 8276TIP3    H146319   3.477   0.618   4.913  0.0723  1.5846 -0.5902
 8276TIP3    H246320   3.461   0.658   4.768  1.5190  0.7844 -0.9975
 8277TIP3   OH246321   0.493   4.546  15.967  0.3971 -0.4938 -0.0480
 8277TIP3    H146322   0.453   4.462  15.942  0.9747 -0.1924 -2.1695
 8277TIP3    H246323   0.492   4.545  16.063 -0.2704 -2.6092 -0.0191
 8278TIP3   OH246324   5.381   1.190  16.069  0.4581  0.4618  0.1631
 8278TIP3    H146325   5.335   1.117  16.111 -0.9975  1.6505  0.7239
 8278TIP3    H246326   5.416   1.153  15.988 -1.9763 -0.4399 -0.5791
 8279TIP3   OH246327   2.472   4.755   1.348  0.2812  0.6821  0.3297
 8279TIP3    H146328   2.563   4.761   1.320  0.9784  1.3937  2.5187
 8279TIP3    H246329   2.433   4.838   1.318  0.4170  0.4959 -0.3761
 8280TIP3   OH246330   4.647   3.462  14.059 -0.1146  0.0481 -0.2405
 8280TIP3    H146331   4.714   3.517  14.020  0.8971 -0.8328  0.2119
 8280TIP3    H246332   4.579   3.456  13.992 -0.8039  2.7330  0.1113
 8281TIP3   OH246333   6.031   1.079  16.052  0.2182  0.7368  0.0387
 8281TIP3    H146334   6.103   1.110  16.107 -0.1315  0.0984  0.8558
 8281TIP3    H246335   6.063   0.997  16.014  0.1747  0.7996 -0.1377
 8282TIP3   OH246336   0.088   2.896   0.353  0.2001  0.4041 -0.7194
 8282TIP3    H146337   0.031   2.901   0.429 -0.9520  0.8965 -1.5833
 8282TIP3    H246338   0.171   2.934   0.382 -0.1541  0.3821  0.3395
 8283TIP3   OH246339   2.209   3.760   3.638 -0.2621 -0.0952 -0.1193
 8283TIP3    H146340   2.281   3.716   3.684 -0.8828 -0.0462  0.9273
 8283TIP3    H246341   2.253   3.818   3.576  0.6462  0.8513  1.3489
 8284TIP3   OH246342   1.231   5.586  12.622  0.0051  0.4565 -0.4428
 8284TIP3    H146343   1.240   5.664  12.677 -1.1448 -0.1162  0.5988
 8284TIP3    H246344   1.268   5.515  12.675 -0.3331  0.0396 -0.7593
 8285TIP3   OH246345   6.708   1.729   0.170 -0.1901  0.3427  0.2454
 8285TIP3    H146346   6.773   1.763   0.231 -0.0382  1.0126 -0.2803
 8285TIP3    H246347   6.625   1.766   0.200  0.0898  1.9767 -0.8529
 8286TIP3   OH246348   1.379   6.059  13.009 -0.2321  0.1929 -0.0561
 8286TIP3    H146349   1.320   6.034  13.081 -1.3270  0.2121 -0.9184
 8286TIP3    H246350   1.320   6.089  12.940  0.7431 -0.8297 -1.3751
 8287TIP3   OH246351   4.543   3.892  12.010  0.6430  0.1918  0.2864
 8287TIP3    H146352   4.593   3.934  11.940  1.5814 -1.3376  0.0064
 8287TIP3    H246353   4.599   3.901  12.087  0.8486 -0.5059  0.2262
 8288TIP3   OH246354   1.593   3.219   0.024  0.0113 -0.4171  0.0567
 8288TIP3    H146355   1.511   3.267   0.033 -0.4256 -1.2096  0.5225
 8288TIP3    H246356   1.659   3.285   0.004 -1.1479 -0.0087 -2.9671
 8289TIP3   OH246357   2.340   4.775  16.009  0.5799 -0.5759  0.2039
 8289TIP3    H146358   2.359   4.731  15.926 -0.6746  1.4375 -1.2459
 8289TIP3    H246359   2.252   4.745  16.032  0.7503 -0.7868  0.5964
 8290TIP3   OH246360   3.708   0.479   6.015 -0.4958 -0.1897  0.3677
 8290TIP3    H146361   3.800   0.472   5.990 -1.0255 -1.1573 -1.4063
 8290TIP3    H246362   3.707   0.551   6.078  1.1856  1.1483 -1.0300
 8291TIP3   OH246363   1.253   3.054  13.883 -0.1723 -0.1293  0.5710
 8291TIP3    H146364   1.203   2.982  13.844  1.5883 -1.3152  0.4151
 8291TIP3    H246365   1.208   3.133  13.852  0.2333 -1.0199 -2.7388
 8292TIP3   OH246366   4.185   4.170  15.823  0.2777  0.1067 -0.4150
 8292TIP3    H146367   4.226   4.085  15.834  1.9808  0.9073 -0.2757
 8292TIP3    H246368   4.258   4.232  15.825 -0.8074  1.4792 -1.5862
 8293TIP3   OH246369   3.892   6.360  10.627 -0.8301 -0.3765 -0.2320
 8293TIP3    H146370   3.969   6.320  10.587  0.0187 -0.3824  1.3413
 8293TIP3    H246371   3.874   6.437  10.573  0.8472  0.1301 -0.1239
 8294TIP3   OH246372   5.249   3.611  16.113  0.3608 -0.5484 -0.1954
 8294TIP3    H146373   5.202   3.571  16.186  0.5682  0.1254  0.3134
 8294TIP3    H246374   5.337   3.573  16.117  0.8887  0.6960  0.9343
 8295TIP3   OH246375   0.890   5.764  13.238 -0.0587 -0.4149  0.0774
 8295TIP3    H146376   0.813   5.710  13.260 -0.8703  0.9526  0.7547
 8295TIP3    H246377   0.962   5.701  13.231 -1.1671 -1.7038 -0.2511
 8296TIP3   OH246378   1.873   1.421  11.309  0.4675  0.4393  0.3306
 8296TIP3    H146379   1.786   1.428  11.270 -0.6263  1.7836  2.7329
 8296TIP3    H246380   1.930   1.395  11.237 -2.1644 -2.2107 -0.9909
 8297TIP3   OH246381   6.371   2.336  13.316  0.3133  0.0995  0.8909
 8297TIP3    H146382   6.314   2.372  13.384  0.0582 -0.3328  0.9124
 8297TIP3    H246383   6.321   2.263  13.280 -0.1277  1.0933 -0.6371
 8298TIP3   OH246384   2.923   5.269  16.567  0.4076 -0.0696  0.4207
 8298TIP3    H146385   2.975   5.323  16.507  0.5903  1.0458  1.5365
 8298TIP3    H246386   2.842   5.251  16.519  0.7185  0.4539 -0.3186
 8299TIP3   OH246387   0.223   4.109  14.673 -0.2826  0.1756 -0.6077
 8299TIP3    H146388   0.279   4.134  14.600  0.6995  0.6812  0.3023
 8299TIP3    H246389   0.192   4.021  14.649 -0.1091  0.3886 -1.6929
 8300TIP3   OH246390   2.744   3.998  12.059 -0.0139 -0.1326  0.2683
 8300TIP3    H146391   2.774   3.913  12.091  0.9247 -0.0322 -0.2985
 8300TIP3    H246392   2.823   4.039  12.024 -0.7180  0.3642 -0.7988
 8301TIP3   OH246393   3.370   0.099   2.342 -0.4016 -0.0701  0.1349
 8301TIP3    H146394   3.397   0.109   2.433 -1.9930 -0.6863  0.7301
 8301TIP3    H246395   3.385   0.006   2.323 -0.7045 -0.0935  0.0011
 8302TIP3   OH246396   3.131   6.608   2.121  0.2781 -0.4155 -0.0609
 8302TIP3    H146397   3.167   6.547   2.056 -1.5556 -1.9064  0.2236
 8302TIP3    H246398   3.175   6.584   2.202 -1.7838 -2.8352  0.4774
 8303TIP3   OH246399   1.098   3.316   1.983  0.1345  0.2463 -0.0751
 8303TIP3    H146400   1.014   3.272   1.994 -1.1790  2.7923  0.7058
 8303TIP3    H246401   1.084   3.379   1.913  0.9911  1.5817  0.9095
 8304TIP3   OH246402   1.477   2.512   5.156 -0.1431 -0.2121  0.5643
 8304TIP3    H146403   1.548   2.507   5.092  1.3179  0.0273  2.0939
 8304TIP3    H246404   1.520   2.504   5.241 -2.1207 -1.6320  1.5315
 8305TIP3   OH246405   2.954   1.181   1.025 -0.5609 -0.2735  0.2440
 8305TIP3    H146406   2.960   1.233   0.945  2.1612  0.2325  0.6860
 8305TIP3    H246407   2.946   1.246   1.096  1.0072 -0.4762  0.6467
 8306TIP3   OH246408   5.113   1.667  16.287 -0.2194 -0.7472  0.0093
 8306TIP3    H146409   5.068   1.588  16.317 -1.5865  0.3682  1.0352
 8306TIP3    H246410   5.055   1.739  16.313  0.9662  0.6017 -0.9239
 8307TIP3   OH246411   1.730   0.000  15.706 -0.0240 -0.2625  0.2928
 8307TIP3    H146412   1.686  -0.040  15.632  0.6160 -1.0521  0.3220
 8307TIP3    H246413   1.805  -0.057  15.723 -1.0853 -1.0449  2.6159
 8308TIP3   OH246414   3.342   0.533   0.119 -0.3569  0.0090  0.1989
 8308TIP3    H146415   3.356   0.576   0.034  0.3971 -0.3166  0.1510
 8308TIP3    H246416   3.302   0.449   0.097 -0.3643  0.0165  0.1834
 8309TIP3   OH246417   1.351   4.794  13.555  0.3165  0.3306 -0.1930
 8309TIP3    H146418   1.349   4.747  13.472 -1.0805 -1.4253  0.7726
 8309TIP3    H246419   1.282   4.860  13.547 -0.8047 -0.7867  0.0724
 8310TIP3   OH246420   5.557   6.523   4.372 -0.0832 -0.0193  0.9385
 8310TIP3    H146421   5.513   6.607   4.389 -1.4113 -0.0401 -1.8446
 8310TIP3    H246422   5.598   6.534   4.286  1.4043 -1.6265  1.3761
 8311TIP3   OH246423   1.986   4.007  11.953 -0.5147 -0.3850  0.0496
 8311TIP3    H146424   2.014   3.997  12.044 -0.3109  0.6106  0.1120
 8311TIP3    H246425   1.938   4.090  11.952  0.3854  0.1503 -0.9480
 8312TIP3   OH246426   5.041   2.501  16.066 -0.4145 -0.0394  0.2120
 8312TIP3    H146427   5.036   2.499  15.970  0.0058  0.0116  0.1902
 8312TIP3    H246428   5.115   2.444  16.088 -0.4440  0.0331  0.5015
 8313TIP3   OH246429   2.420   4.234   4.122 -0.2065 -0.4656  0.0563
 8313TIP3    H146430   2.420   4.179   4.200  0.0774  0.0297  0.4137
 8313TIP3    H246431   2.509   4.271   4.119 -0.6902  0.7746  0.4076
 8314TIP3   OH246432   0.347   5.021  16.740 -0.1130 -0.3295  0.3627
 8314TIP3    H146433   0.424   4.986  16.784 -1.0085 -0.3347  1.9875
 8314TIP3    H246434   0.320   4.952  16.680  0.3408 -0.8734  0.7782
 8315TIP3   OH246435   2.234   0.725   3.634  0.1615  0.1061 -0.4174
 8315TIP3    H146436   2.249   0.724   3.728  0.6422 -0.1640 -0.4923
 8315TIP3    H246437   2.139   0.726   3.624  0.0820  2.3685  0.0966
 8316TIP3   OH246438   6.050   1.615  14.849 -0.5074  0.1010 -0.0366
 8316TIP3    H146439   6.129   1.651  14.889 -1.2654  0.8753  0.8113
 8316TIP3    H246440   5.992   1.596  14.923 -1.4492  0.3749 -0.6872
 8317TIP3   OH246441   3.382   2.595   1.126  0.3530  0.4100 -0.5193
 8317TIP3    H146442   3.315   2.649   1.167 -0.4098 -0.2876 -0.8347
 8317TIP3    H246443   3.336   2.546   1.058  1.3043  0.4177 -1.2050
 8318TIP3   OH246444   2.097   1.957  10.990  0.5408 -0.6674  0.0970
 8318TIP3    H146445   2.135   1.915  11.067 -0.4981 -2.3913 -0.2589
 8318TIP3    H246446   2.172   1.981  10.936  1.2159 -0.9727  0.8775
 8319TIP3   OH246447   3.348   2.841   0.377 -0.3067  0.0848 -0.1121
 8319TIP3    H146448   3.275   2.889   0.416  0.0627 -0.1345  0.9077
 8319TIP3    H246449   3.413   2.909   0.359 -1.0645  0.4007 -1.8319
 8320TIP3   OH246450   2.896   6.229   2.454 -0.0648  0.1843 -0.1219
 8320TIP3    H146451   2.805   6.242   2.479  0.1107  1.2853  0.0276
 8320TIP3    H246452   2.900   6.259   2.363  0.2392  0.6404  0.0341
 8321TIP3   OH246453   2.196   1.864   3.840  0.4797  0.0853  0.1763
 8321TIP3    H146454   2.280   1.819   3.835  0.5166  0.1218  0.4175
 8321TIP3    H246455   2.169   1.853   3.932  0.6014  0.7512  0.2960
 8322TIP3   OH246456   0.220   4.001  12.718 -0.0407  0.2509  0.3325
 8322TIP3    H146457   0.196   3.990  12.626  1.0101  1.1887 -0.0775
 8322TIP3    H246458   0.178   3.927  12.762 -1.5375  0.4219 -0.7040
 8323TIP3   OH246459   5.405   2.057   1.865  0.2337 -0.0034  0.3708
 8323TIP3    H146460   5.310   2.065   1.865  0.1518 -0.8203  0.7693
 8323TIP3    H246461   5.425   2.016   1.950  0.9846  0.6526  0.5214
 8324TIP3   OH246462   4.378   0.112  15.915 -0.0065  0.8039  0.2777
 8324TIP3    H146463   4.329   0.194  15.912  2.3933  2.3410 -0.5858
 8324TIP3    H246464   4.439   0.118  15.841  1.2198 -1.1016  1.0431
 8325TIP3   OH246465   0.689   2.720   1.264  0.2568  0.5009 -0.4930
 8325TIP3    H146466   0.704   2.799   1.316  2.4403 -0.3857  0.3356
 8325TIP3    H246467   0.775   2.696   1.230 -0.5604 -0.8494 -1.7617
 8326TIP3   OH246468   0.594   4.902  15.000  0.0520 -0.1509 -0.1353
 8326TIP3    H146469   0.635   4.988  15.014 -1.1709  0.3887  0.2973
 8326TIP3    H246470   0.603   4.857  15.084 -0.6765  0.1635  0.1139
 8327TIP3   OH246471   0.761   6.253   5.832 -0.0231  0.7895 -0.2075
 8327TIP3    H146472   0.672   6.269   5.799 -0.8291 -1.2394  0.8299
 8327TIP3    H246473   0.767   6.158   5.838  1.3862  0.9670  1.9998
 8328TIP3   OH246474   3.078   0.504  12.095 -0.2202 -0.0764 -0.3739
 8328TIP3    H146475   3.004   0.528  12.153 -1.2342  0.7412 -1.9335
 8328TIP3    H246476   3.152   0.552  12.131 -0.7284  0.0858  0.5004
 8329TIP3   OH246477   5.526   2.538   5.791 -0.3751 -0.0449  0.0510
 8329TIP3    H146478   5.492   2.520   5.703  0.2728 -0.8316 -0.0530
 8329TIP3    H246479   5.591   2.469   5.806  0.6265  0.9713  0.5407
 8330TIP3   OH246480   2.340   6.281  13.737  0.0257 -0.0771  0.1003
 8330TIP3    H146481   2.373   6.348  13.798 -0.3512 -0.0861  0.3161
 8330TIP3    H246482   2.338   6.201  13.789 -0.3961 -0.0637  0.1035
 8331TIP3   OH246483   2.628   4.686   3.901  0.3858  0.5107 -0.1358
 8331TIP3    H146484   2.698   4.702   3.964  0.0167  1.8934 -0.0563
 8331TIP3    H246485   2.627   4.764   3.845 -2.3234  1.4391  1.0507
 8332TIP3   OH246486   2.489   2.923  13.226 -0.4155  0.1788 -0.4906
 8332TIP3    H146487   2.444   3.007  13.215  1.2403  0.8042 -3.2155
 8332TIP3    H246488   2.551   2.938  13.297 -0.1212  1.2651 -0.9670
 8333TIP3   OH246489   6.226   5.368  16.323 -0.9576  0.0151 -0.0639
 8333TIP3    H146490   6.223   5.405  16.235 -1.2905 -0.2201 -0.1536
 8333TIP3    H246491   6.313   5.390  16.355 -1.0966  0.7508 -0.1721
 8334TIP3   OH246492   6.330   0.420  11.618  0.1327 -0.5587  0.1669
 8334TIP3    H146493   6.333   0.349  11.554 -0.4518  0.1806 -0.7087
 8334TIP3    H246494   6.299   0.496  11.569  1.6366  0.5639  0.8425
 8335TIP3   OH246495   4.722   1.559  10.319  0.3534 -0.2728 -0.6047
 8335TIP3    H146496   4.790   1.614  10.358 -0.0413  0.2426 -0.6410
 8335TIP3    H246497   4.770   1.483  10.285  0.8961  0.0252 -0.5215
 8336TIP3   OH246498   1.173   3.051  12.779 -0.1879  0.6287  0.1434
 8336TIP3    H146499   1.237   3.071  12.848 -0.2491 -0.5016  0.5493
 8336TIP3    H246500   1.159   2.956  12.786 -0.3152  0.5117 -1.3278
 8337TIP3   OH246501   5.758   2.468   6.161 -0.0783  0.3457  0.1680
 8337TIP3    H146502   5.819   2.414   6.210  0.1560 -0.0449 -0.5412
 8337TIP3    H246503   5.791   2.465   6.071 -2.2790 -1.5458 -0.6493
 8338TIP3   OH246504   4.762   4.636   5.943  0.3119  0.1513  0.4671
 8338TIP3    H146505   4.692   4.679   5.993 -0.8359 -0.5232 -0.4912
 8338TIP3    H246506   4.842   4.653   5.992 -0.3260  2.0800  0.9100
 8339TIP3   OH246507   5.658   0.943  11.619 -1.0391 -0.0497  0.1169
 8339TIP3    H146508   5.664   0.983  11.532 -2.7152  0.1202  0.0535
 8339TIP3    H246509   5.732   0.980  11.667 -0.4886  0.3750 -1.0209
 8340TIP3   OH246510   6.757   5.773   5.362  0.7530 -0.2670 -0.1817
 8340TIP3    H146511   6.706   5.790   5.441  0.9499 -4.7479  1.1749
 8340TIP3    H246512   6.696   5.729   5.302  1.9860 -2.5165  0.0809
 8341TIP3   OH246513   5.832   1.497  14.644  0.2521 -0.1008  0.1375
 8341TIP3    H146514   5.866   1.549  14.717  0.2341  1.0118 -0.6271
 8341TIP3    H246515   5.897   1.507  14.575 -0.9603  1.0254 -0.8955
 8342TIP3   OH246516   2.082   2.260  15.935 -0.0645 -0.0449  0.3429
 8342TIP3    H146517   2.089   2.245  16.029 -0.8291  1.6670  0.6965
 8342TIP3    H246518   2.113   2.349  15.922 -0.2847 -0.1369 -0.9948
 8343TIP3   OH246519   3.630   6.211   0.237  0.2704 -0.0598  0.2386
 8343TIP3    H146520   3.673   6.291   0.207  0.4943  0.6889  2.4104
 8343TIP3    H246521   3.548   6.242   0.277  1.4078 -0.5673  3.2130
 8344TIP3   OH246522   6.680   1.795  16.166 -0.4667 -0.3548 -0.6809
 8344TIP3    H146523   6.667   1.879  16.122  1.3021 -0.5111 -1.6226
 8344TIP3    H246524   6.673   1.815  16.260 -0.5998  0.7263 -0.9134
 8345TIP3   OH246525   6.161   2.012  11.780 -0.4039  0.2461 -0.4862
 8345TIP3    H146526   6.116   2.086  11.819  2.9939  0.9389  2.6113
 8345TIP3    H246527   6.226   2.051  11.721  0.3847 -0.3069 -0.0056
 8346TIP3   OH246528   2.058   0.669   0.380  0.3607  0.5003  0.6512
 8346TIP3    H146529   2.136   0.713   0.346 -0.1596  1.1826  0.3063
 8346TIP3    H246530   2.060   0.685   0.474  0.3401  1.0022  0.5670
 8347TIP3   OH246531   4.725   1.071   1.524  0.1230  0.6397 -0.3724
 8347TIP3    H146532   4.814   1.077   1.559  0.1952 -0.0769 -0.4079
 8347TIP3    H246533   4.679   1.147   1.561  0.6122  0.7406  0.0418
 8348TIP3   OH246534   2.915   5.539  11.412 -0.1874 -0.2347 -0.7014
 8348TIP3    H146535   2.842   5.483  11.387 -1.0326  0.1227  0.8119
 8348TIP3    H246536   2.940   5.507  11.499  2.0377 -0.8907 -1.5244
 8349TIP3   OH246537   4.474   0.816  12.411  0.2278 -0.3993 -0.4162
 8349TIP3    H146538   4.429   0.855  12.486  0.8461  0.1424 -0.3235
 8349TIP3    H246539   4.483   0.888  12.348  0.9934 -0.4920 -0.4191
 8350TIP3   OH246540   1.182   0.007   4.811  0.0523 -0.2029  0.3345
 8350TIP3    H146541   1.194   0.085   4.758 -2.1109  0.4168  0.6645
 8350TIP3    H246542   1.251   0.012   4.877 -0.5605  1.9391  0.9046
 8351TIP3   OH246543   6.532   6.247   1.839 -0.0969 -0.2972  1.0573
 8351TIP3    H146544   6.556   6.271   1.929  0.8296 -0.0985  0.7693
 8351TIP3    H246545   6.606   6.276   1.786 -1.4620  1.3062 -0.0394
 8352TIP3   OH246546   4.305   5.977  15.764 -0.2500 -0.0921  0.3299
 8352TIP3    H146547   4.251   5.932  15.829 -0.7894  1.5673  1.0932
 8352TIP3    H246548   4.243   6.028  15.713  0.4973  1.3623  0.8151
 8353TIP3   OH246549   4.636   0.485  13.902  0.0849  0.4149  0.1386
 8353TIP3    H146550   4.707   0.491  13.965  0.0267 -0.5581  0.3019
 8353TIP3    H246551   4.667   0.425  13.835 -0.2886  0.5673 -0.1768
 8354TIP3   OH246552   1.680   4.711   5.731  0.2129 -0.4178 -0.5853
 8354TIP3    H146553   1.667   4.620   5.705 -0.4295  0.4888 -3.9360
 8354TIP3    H246554   1.735   4.748   5.661  0.2389  1.8206  0.5372
 8355TIP3   OH246555   1.901   3.229  15.338 -0.0355  0.3562 -0.7551
 8355TIP3    H146556   1.906   3.316  15.378 -0.2314  0.3968 -0.8214
 8355TIP3    H246557   1.833   3.184  15.388 -0.2451  0.3894 -1.0112
 8356TIP3   OH246558   4.546   4.846   4.869  0.0719  0.4440  0.1858
 8356TIP3    H146559   4.617   4.909   4.861 -0.9904  1.9066  1.5574
 8356TIP3    H246560   4.479   4.892   4.920 -1.6728 -1.0402 -0.6686
 8357TIP3   OH246561   0.249   2.224  15.924 -0.2212  0.1087 -0.1193
 8357TIP3    H146562   0.251   2.319  15.916  0.0213  0.0242 -1.1545
 8357TIP3    H246563   0.173   2.197  15.872  0.8663 -0.3983 -1.5169
 8358TIP3   OH246564   6.407   3.450   5.634  0.2846  0.0031 -0.8177
 8358TIP3    H146565   6.449   3.507   5.699 -0.1616 -0.9429  0.3346
 8358TIP3    H246566   6.464   3.456   5.557  1.7594 -0.1309  0.2145
 8359TIP3   OH246567   3.145   2.793  12.939  0.8036 -0.1720 -0.1376
 8359TIP3    H146568   3.171   2.762  13.026  0.8506  0.5646  0.1265
 8359TIP3    H246569   3.146   2.889  12.948 -0.5382 -0.0962 -0.5510
 8360TIP3   OH246570   4.873   2.922  15.400 -0.5267  0.2734 -0.2339
 8360TIP3    H146571   4.828   2.896  15.480  0.2493 -2.0788 -0.4956
 8360TIP3    H246572   4.806   2.916  15.332 -0.4998 -0.5235 -0.1953
 8361TIP3   OH246573   1.597   1.005  12.138  0.1193 -0.2560  0.4746
 8361TIP3    H146574   1.648   0.984  12.060  0.1171  0.1257  0.3640
 8361TIP3    H246575   1.632   1.090  12.166 -1.5460  0.8217 -0.5552
 8362TIP3   OH246576   2.761   5.172  14.912  0.1672  0.0673  0.3609
 8362TIP3    H146577   2.831   5.187  14.976 -0.0793 -1.4774  1.0338
 8362TIP3    H246578   2.778   5.085  14.877 -1.0774 -0.0896  0.0827
 8363TIP3   OH246579   1.382   1.286  11.510 -0.2559  0.1978  0.4901
 8363TIP3    H146580   1.475   1.307  11.516 -0.2281 -0.1483  1.2934
 8363TIP3    H246581   1.366   1.274  11.416  0.2510  1.3989  0.2270
 8364TIP3   OH246582   2.999   3.146   4.782  0.1532 -0.0183 -0.3101
 8364TIP3    H146583   2.961   3.104   4.705  1.1879  0.5854 -1.1780
 8364TIP3    H246584   3.074   3.091   4.805 -1.4613 -1.5248  1.7350
 8365TIP3   OH246585   3.060   5.047  16.371 -0.6360 -0.2253  0.3841
 8365TIP3    H146586   3.144   5.069  16.411 -0.6196 -2.2438  1.5870
 8365TIP3    H246587   2.999   5.112  16.405  0.3535  1.1120 -0.3091
 8366TIP3   OH246588   6.785   4.253   4.664 -0.2050  0.5190 -0.1402
 8366TIP3    H146589   6.819   4.230   4.750 -0.7044 -0.2368 -0.1335
 8366TIP3    H246590   6.815   4.342   4.649  1.1328  0.1459  0.1900
 8367TIP3   OH246591   1.023   4.523  14.814 -0.2991  0.0895 -0.0310
 8367TIP3    H146592   1.109   4.530  14.856 -1.3622  3.6227  1.9049
 8367TIP3    H246593   1.038   4.553  14.724  0.5855 -0.1438  0.0231
 8368TIP3   OH246594   4.152   2.181  15.394  0.1679 -0.1538 -0.2696
 8368TIP3    H146595   4.214   2.135  15.450  1.0218 -0.5999 -1.5318
 8368TIP3    H246596   4.141   2.123  15.318 -0.6524  0.5943 -0.7438
 8369TIP3   OH246597   3.846   5.537  12.496  0.0062  0.1049  0.0225
 8369TIP3    H146598   3.884   5.453  12.523  2.0593  0.3049 -1.9984
 8369TIP3    H246599   3.918   5.583  12.452 -1.8801  1.6626 -1.6009
 8370TIP3   OH246600   3.107   6.078  11.815 -0.2317  0.4443 -0.1218
 8370TIP3    H146601   3.013   6.061  11.807 -0.0478  0.0452 -2.1434
 8370TIP3    H246602   3.113   6.169  11.842 -1.1956  0.5250 -0.1350
 8371TIP3   OH246603   2.648   6.240   4.549  0.0459 -0.1499  0.2682
 8371TIP3    H146604   2.643   6.303   4.478 -3.3669 -0.5215  0.0084
 8371TIP3    H246605   2.652   6.293   4.628 -1.5189  0.3984  0.0020
 8372TIP3   OH246606   3.597   4.414  14.532 -0.0032  0.9852 -0.6463
 8372TIP3    H146607   3.650   4.388  14.607 -0.5183  0.1738 -0.5480
 8372TIP3    H246608   3.572   4.331  14.491 -2.2222  1.2453  0.0248
 8373TIP3   OH246609   3.905   2.812   2.232  0.2475 -0.0014  0.2507
 8373TIP3    H146610   3.933   2.877   2.296  0.5548  0.9821 -0.8394
 8373TIP3    H246611   3.987   2.773   2.200  0.2307  0.8217 -0.8493
 8374TIP3   OH246612   2.811   1.687   3.061  0.1727 -0.3739 -0.1572
 8374TIP3    H146613   2.786   1.776   3.085  0.8503 -0.3515  0.5084
 8374TIP3    H246614   2.808   1.686   2.965  1.1480  0.6785 -0.2236
 8375TIP3   OH246615   0.654   5.685  10.894  0.3633  0.4253 -0.3964
 8375TIP3    H146616   0.617   5.737  10.823  0.6015  0.5461 -0.4334
 8375TIP3    H246617   0.734   5.648  10.857 -0.2500 -0.6819 -0.6604
 8376TIP3   OH246618   4.697   4.590  12.855  0.7519  0.2427  0.1745
 8376TIP3    H146619   4.604   4.570  12.839  0.8851 -0.4236  0.1949
 8376TIP3    H246620   4.698   4.682  12.880  0.2265  0.5966 -1.0187
 8377TIP3   OH246621   4.370   4.633  10.881  0.4810 -0.1941  0.1030
 8377TIP3    H146622   4.436   4.566  10.866 -0.7737 -1.3258 -0.5116
 8377TIP3    H246623   4.295   4.607  10.827 -1.0490  0.1950  1.9126
 8378TIP3   OH246624   3.324   2.055  16.144 -0.1662 -0.7372 -0.2704
 8378TIP3    H146625   3.321   2.119  16.215  0.1499 -2.4442  1.3483
 8378TIP3    H246626   3.416   2.055  16.116 -0.1924 -0.4093 -0.3622
 8379TIP3   OH246627   3.139   0.733   0.167  0.0534 -0.0744  0.0488
 8379TIP3    H146628   3.192   0.654   0.176 -1.4232 -1.0617  0.4527
 8379TIP3    H246629   3.168   0.789   0.239  1.0814 -0.2514 -0.2148
 8380TIP3   OH246630   5.968   6.319  10.882  0.1018 -0.4572  0.1310
 8380TIP3    H146631   5.988   6.343  10.973  0.9298 -0.2559 -0.0959
 8380TIP3    H246632   5.971   6.401  10.834  1.9136 -0.8254 -0.4637
 8381TIP3   OH246633   4.319   3.318  14.345  0.2966 -0.5529  0.6051
 8381TIP3    H146634   4.234   3.308  14.302  0.6380  0.3374 -0.3162
 8381TIP3    H246635   4.366   3.237  14.323 -0.2867 -1.0328  1.0857
 8382TIP3   OH246636   2.109   0.536   5.485  0.4154 -0.1488 -0.0046
 8382TIP3    H146637   2.181   0.472   5.484 -0.7144 -1.5258 -2.0737
 8382TIP3    H246638   2.135   0.602   5.421 -0.0207 -0.5231 -0.5812
 8383TIP3   OH246639   3.627   5.991  15.563  0.1365  0.2967 -1.1311
 8383TIP3    H146640   3.608   5.897  15.556 -0.7740  0.3334  0.3667
 8383TIP3    H246641   3.619   6.024  15.473 -1.2159 -0.7643 -1.4292
 8384TIP3   OH246642   2.642   4.430   0.049 -0.3830 -0.4806  0.0266
 8384TIP3    H146643   2.718   4.386   0.088 -0.0755  1.7078  2.1415
 8384TIP3    H246644   2.576   4.429   0.117 -1.7388 -0.9884 -1.2499
 8385TIP3   OH246645   6.303   0.578  12.916 -0.0691 -0.2639 -0.2033
 8385TIP3    H146646   6.323   0.512  12.850  0.1557 -1.2150  0.7876
 8385TIP3    H246647   6.338   0.660  12.879  0.8653 -0.9315 -0.8573
 8386TIP3   OH246648   3.812   1.454   2.370  0.0772 -0.0973  0.0196
 8386TIP3    H146649   3.779   1.392   2.304  0.2087 -1.1554  0.9195
 8386TIP3    H246650   3.734   1.480   2.419  0.2870 -1.1194  0.9226
 8387TIP3   OH246651   4.135   5.183   5.346  0.2954  0.3110  1.0626
 8387TIP3    H146652   4.151   5.095   5.378  0.0420 -0.1727 -0.0876
 8387TIP3    H246653   4.040   5.194   5.353 -0.0476 -0.5712 -1.3246
 8388TIP3   OH246654   3.844   1.605   0.469  0.2032  0.2746  0.2588
 8388TIP3    H146655   3.879   1.527   0.512  0.7469  0.8700  0.9399
 8388TIP3    H246656   3.894   1.678   0.508  1.3132  0.8070 -1.9675
 8389TIP3   OH246657   4.383   3.048   4.488 -0.3656  0.2317 -0.1269
 8389TIP3    H146658   4.429   3.067   4.570 -0.0743 -0.6909 -0.0608
 8389TIP3    H246659   4.306   3.105   4.489 -0.4031  0.1727  0.8288
 8390TIP3   OH246660   0.596   2.616  10.180  0.1938 -0.5558  0.4586
 8390TIP3    H146661   0.525   2.567  10.137  1.5888 -1.1564 -1.2572
 8390TIP3    H246662   0.636   2.552  10.239  0.0459 -0.5612  0.5537
 8391TIP3   OH246663   1.664   0.453  15.551 -0.1826  0.4447  0.4238
 8391TIP3    H146664   1.679   0.358  15.549  1.7324  0.6672  1.4151
 8391TIP3    H246665   1.729   0.489  15.492 -0.8577  1.1687  0.1030
 8392TIP3   OH246666   1.609   0.516  16.584  0.3517  0.5369  0.4432
 8392TIP3    H146667   1.668   0.570  16.531  2.5414 -1.4208  0.7312
 8392TIP3    H246668   1.564   0.461  16.521  0.2977  0.6882  0.3503
 8393TIP3   OH246669   1.869   2.392  16.379  0.0303  0.5397 -0.3868
 8393TIP3    H146670   1.947   2.446  16.391 -1.2450  2.5846 -0.7616
 8393TIP3    H246671   1.825   2.431  16.303 -1.0426 -0.9422 -0.5548
 8394TIP3   OH246672   1.339   2.996   5.746 -0.2170 -0.0526 -0.3973
 8394TIP3    H146673   1.396   2.922   5.765  0.9024  1.2878  1.9585
 8394TIP3    H246674   1.392   3.055   5.692 -1.3654 -1.1961 -2.9329
 8395TIP3   OH246675   3.393   4.056  14.469 -0.3373  0.0539 -0.2372
 8395TIP3    H146676   3.427   3.972  14.436 -0.0684  0.1210 -0.1301
 8395TIP3    H246677   3.337   4.032  14.543  0.4019  0.0280  0.3248
 8396TIP3   OH246678   6.116   0.922  14.471  0.3197 -0.2480  0.2532
 8396TIP3    H146679   6.021   0.909  14.471  0.2040  0.3565  1.4073
 8396TIP3    H246680   6.138   0.931  14.564  1.4298  0.1580 -0.0354
 8397TIP3   OH246681   5.040   2.645  15.449  0.1626 -0.5139 -0.5045
 8397TIP3    H146682   5.014   2.634  15.357  0.4844 -1.9153 -0.4375
 8397TIP3    H246683   5.126   2.688  15.444 -0.1582  0.1107 -0.8258
 8398TIP3   OH246684   5.766   2.618   3.340  1.0917 -0.2610 -0.3806
 8398TIP3    H146685   5.815   2.616   3.258  3.6036 -0.1742  1.0152
 8398TIP3    H246686   5.766   2.528   3.371 -0.5506 -0.4433 -0.7941
 8399TIP3   OH246687   0.132   5.527   0.057 -0.1559 -0.2467  0.1099
 8399TIP3    H146688   0.212   5.506   0.009  0.2194  0.4503  0.4085
 8399TIP3    H246689   0.082   5.445   0.059  0.6722 -0.7538  0.1652
 8400TIP3   OH246690   5.483   2.824   4.773 -0.2244  0.3128 -0.6682
 8400TIP3    H146691   5.555   2.785   4.723 -0.7954  0.3640 -1.5616
 8400TIP3    H246692   5.485   2.916   4.748  0.1775  0.5700  0.2790
 8401TIP3   OH246693   1.630   5.459  16.265  0.3702 -0.0703 -0.1699
 8401TIP3    H146694   1.650   5.534  16.208 -0.5461  0.8504  0.7042
 8401TIP3    H246695   1.551   5.484  16.312  0.1260 -1.5394  0.2584
 8402TIP3   OH246696   2.189   6.164  12.039 -0.6422  0.2111  0.3018
 8402TIP3    H146697   2.179   6.097  11.971 -2.9553  2.7296 -2.1181
 8402TIP3    H246698   2.277   6.200  12.026  0.1159 -1.4085  0.7749
 8403TIP3   OH246699   6.476   4.871   2.063  0.1491  0.4194  0.7267
 8403TIP3    H146700   6.531   4.943   2.034  0.3686  0.5595  1.4597
 8403TIP3    H246701   6.400   4.914   2.103 -0.5603  0.2314 -0.3622
 8404TIP3   OH246702   4.310   3.580  15.759 -0.3144 -0.0294  0.0261
 8404TIP3    H146703   4.315   3.556  15.851 -1.2937 -0.2526  0.0375
 8404TIP3    H246704   4.361   3.514  15.713 -1.3621 -1.0255  0.2477
 8405TIP3   OH246705   4.875   0.704  13.122 -0.1462 -0.3550  0.6570
 8405TIP3    H146706   4.950   0.741  13.168 -0.9904 -0.4042  2.1250
 8405TIP3    H246707   4.863   0.760  13.045  0.3854  0.6270  1.2796
 8406TIP3   OH246708   0.024   6.381  14.584  0.7074  0.0737  0.2636
 8406TIP3    H146709   0.030   6.466  14.541  1.3599 -0.4491 -0.7214
 8406TIP3    H246710  -0.070   6.364  14.593  0.5495  0.1826 -1.0186
 8407TIP3   OH246711   0.663   4.463  15.139  0.0479 -0.1549 -0.2017
 8407TIP3    H146712   0.748   4.425  15.163 -0.5513 -0.0918  2.2891
 8407TIP3    H246713   0.624   4.398  15.081  0.3237 -1.9578  1.5096
 8408TIP3   OH246714   1.274   2.816  14.378  0.4614 -0.3758 -0.5724
 8408TIP3    H146715   1.255   2.794  14.287  0.0335  2.3786 -1.2426
 8408TIP3    H246716   1.207   2.771  14.429 -1.2256  0.5057 -1.9338
 8409TIP3   OH246717   6.698   2.560  15.014  0.5768 -0.1774 -0.3511
 8409TIP3    H146718   6.610   2.525  15.027  0.5183 -0.4741 -1.4426
 8409TIP3    H246719   6.749   2.485  14.982  1.5300 -0.2981  1.3260
 8410TIP3   OH246720   2.092   6.193  12.401  0.4359 -0.3052  0.2673
 8410TIP3    H146721   2.064   6.164  12.314  1.2384 -0.3315  0.0055
 8410TIP3    H246722   2.027   6.257  12.427  0.6890  0.4032 -0.7677
 8411TIP3   OH246723   1.545   3.665  15.483 -0.1602 -0.5905  0.2149
 8411TIP3    H146724   1.486   3.591  15.466 -0.8127 -0.3434  1.2845
 8411TIP3    H246725   1.607   3.664  15.410 -0.5844 -1.7648 -0.1521
 8412TIP3   OH246726   2.099   1.111  12.206  0.1306 -0.3080  0.3582
 8412TIP3    H146727   2.061   1.024  12.195 -0.1937 -0.1553  0.2460
 8412TIP3    H246728   2.085   1.132  12.298 -0.6267  0.0053  0.1790
 8413TIP3   OH246729   4.844   3.840   0.439 -0.3980  0.1887  0.0104
 8413TIP3    H146730   4.859   3.836   0.344  0.6985  2.0266  0.0581
 8413TIP3    H246731   4.901   3.771   0.475  2.1307  1.9108 -0.4386
 8414TIP3   OH246732   3.255   2.796  13.738 -0.3034  0.1782 -1.2015
 8414TIP3    H146733   3.339   2.820  13.775 -0.6293  1.6541 -1.3641
 8414TIP3    H246734   3.267   2.802  13.643 -0.7313  0.9824 -1.2172
 8415TIP3   OH246735   4.604   2.650   0.555  0.3057  0.3119 -0.5750
 8415TIP3    H146736   4.536   2.674   0.492 -1.4939 -0.2027  1.0700
 8415TIP3    H246737   4.604   2.554   0.554  0.1239  0.2960  0.3095
 8416TIP3   OH246738   1.746   6.060  11.488 -0.2919 -0.0951  0.3171
 8416TIP3    H146739   1.744   6.152  11.512 -0.5649  0.9942 -3.2054
 8416TIP3    H246740   1.829   6.048  11.443 -0.4500 -1.4513  0.3269
 8417TIP3   OH246741   1.995   1.585   3.477  0.6150  0.4631 -0.5211
 8417TIP3    H146742   1.979   1.649   3.408 -0.2495  1.1329  0.2761
 8417TIP3    H246743   2.015   1.637   3.555 -0.1261 -0.2121  0.1436
 8418TIP3   OH246744   1.565   0.085   2.943 -0.4366  0.2080 -0.7777
 8418TIP3    H146745   1.484   0.086   2.893  0.2917  0.5347 -1.9773
 8418TIP3    H246746   1.633   0.067   2.879  0.4401 -0.1793  0.2308
 8419TIP3   OH246747   1.442   1.520  16.427  0.1908  0.3373  0.6342
 8419TIP3    H146748   1.493   1.575  16.486  2.2121 -1.7995  1.0218
 8419TIP3    H246749   1.457   1.431  16.458 -2.1351 -0.5546 -0.5685
 8420TIP3   OH246750   4.973   5.041  14.027 -0.1025  0.0494  0.4340
 8420TIP3    H146751   4.962   5.012  14.118  1.2933 -0.4387  0.4746
 8420TIP3    H246752   4.967   5.136  14.031 -4.7838 -0.0011  0.3059
 8421TIP3   OH246753   4.391   0.095   2.252 -0.3715  0.4329  0.8702
 8421TIP3    H146754   4.470   0.062   2.295 -0.0368 -0.4698 -0.3951
 8421TIP3    H246755   4.381   0.184   2.287  0.6409  0.2073  1.7906
 8422TIP3   OH246756   2.786   4.511  12.390 -0.6356  0.0251 -0.1647
 8422TIP3    H146757   2.700   4.484  12.422 -0.6587  0.3993  0.0957
 8422TIP3    H246758   2.814   4.440  12.333  0.5686 -1.9531  2.6718
 8423TIP3   OH246759   5.964   5.676   0.809  0.6550 -0.2330 -0.5369
 8423TIP3    H146760   6.011   5.677   0.726  0.1570  1.3840 -0.8286
 8423TIP3    H246761   5.874   5.701   0.786  0.7133  1.0708  0.5881
 8424TIP3   OH246762   0.479   5.416   0.498 -0.3302 -0.3362  0.3082
 8424TIP3    H146763   0.550   5.356   0.475  0.9967  1.0157  0.7623
 8424TIP3    H246764   0.429   5.425   0.416 -1.2823 -2.8892  0.4977
 8425TIP3   OH246765   4.220   2.608  16.441 -0.6441  0.8073 -0.2959
 8425TIP3    H146766   4.253   2.527  16.403  0.7597  1.6163 -0.9152
 8425TIP3    H246767   4.147   2.634  16.385 -1.8973 -0.6205  0.6222
 8426TIP3   OH246768   6.335   6.501  14.465  0.2232 -0.4097 -0.2153
 8426TIP3    H146769   6.358   6.411  14.489  1.3457 -0.4630 -1.4245
 8426TIP3    H246770   6.413   6.553  14.485 -0.3669  0.2916  0.3437
 8427TIP3   OH246771   0.362   6.826  16.401 -0.5542 -0.2710 -0.6690
 8427TIP3    H146772   0.376   6.912  16.441 -1.8106 -0.5458  0.4313
 8427TIP3    H246773   0.444   6.808  16.356 -0.4012  1.6584 -1.2518
 8428TIP3   OH246774   4.865   0.582   0.015 -0.1560  0.7077 -0.4744
 8428TIP3    H146775   4.817   0.602   0.095 -1.7060 -0.0252 -1.1748
 8428TIP3    H246776   4.957   0.596   0.038 -0.6646  1.9943  0.9725
 8429TIP3   OH246777   6.185   1.645  14.140  0.4651 -0.3616  0.6375
 8429TIP3    H146778   6.237   1.577  14.182  1.5085 -0.3981 -0.6416
 8429TIP3    H246779   6.221   1.727  14.176  0.1565 -0.4311  1.1190
 8430TIP3   OH246780   1.165   6.640   5.956  0.2141  0.3678 -0.2675
 8430TIP3    H146781   1.134   6.686   5.878  1.0020  0.9157 -0.2654
 8430TIP3    H246782   1.260   6.641   5.949  0.4130  2.1558  1.6259
 8431TIP3   OH246783   2.523   3.848  14.776 -0.0531 -0.5369  0.5503
 8431TIP3    H146784   2.454   3.825  14.838 -0.3612 -2.6323 -0.4918
 8431TIP3    H246785   2.591   3.782  14.790  0.7804  0.2025  0.0613
 8432TIP3   OH246786   6.347   0.036   5.623  0.2022 -0.1803 -0.0954
 8432TIP3    H146787   6.395   0.104   5.576 -3.1314  2.4446 -0.0950
 8432TIP3    H246788   6.365   0.053   5.715  0.8078 -0.4990 -0.1509
 8433TIP3   OH246789   4.932   1.518  15.082 -0.3584  0.4078  0.1656
 8433TIP3    H146790   4.995   1.591  15.088  0.3010 -0.2315  1.4951
 8433TIP3    H246791   4.975   1.454  15.026 -0.5757  0.6740 -0.3146
 8434TIP3   OH246792   0.011   0.408   0.049 -0.2140 -0.8420  0.3707
 8434TIP3    H146793   0.002   0.469   0.123  1.4550 -0.1685  0.0492
 8434TIP3    H246794   0.038   0.463  -0.024 -0.5547 -1.7130 -0.4260
 8435TIP3   OH246795   0.994   2.087   4.649  0.0362  0.3268  0.2869
 8435TIP3    H146796   0.905   2.106   4.618 -0.4100 -1.3285  0.4494
 8435TIP3    H246797   1.051   2.133   4.588 -0.9163  2.4974  0.9218
 8436TIP3   OH246798   2.848   0.387   3.887  0.4581 -0.3767  0.4291
 8436TIP3    H146799   2.913   0.368   3.820 -1.2451 -1.4424 -1.0087
 8436TIP3    H246800   2.819   0.476   3.868 -0.6040 -0.9560 -0.8415
 8437TIP3   OH246801   3.668   6.857   1.490  0.0587  0.4957  0.1542
 8437TIP3    H146802   3.643   6.910   1.414 -0.5673  1.9197  1.3075
 8437TIP3    H246803   3.716   6.783   1.453  0.7736  1.7433 -1.5410
 8438TIP3   OH246804   3.614   2.081   1.142 -0.7690  0.8427  0.2772
 8438TIP3    H146805   3.671   2.073   1.065  0.6457 -0.7566  1.4032
 8438TIP3    H246806   3.576   2.168   1.136 -0.2174  0.9728 -1.8984
 8439TIP3   OH246807   5.785   4.991   3.268  0.2172 -0.3277 -0.5416
 8439TIP3    H146808   5.834   4.933   3.326  0.6274 -0.6582 -1.2064
 8439TIP3    H246809   5.852   5.037   3.217 -0.0184  1.7366  0.8630
 8440TIP3   OH246810   2.423   2.868   5.833  0.3205  0.9433 -0.3212
 8440TIP3    H146811   2.340   2.909   5.808 -2.3593 -1.1125  4.0202
 8440TIP3    H246812   2.440   2.899   5.921  2.8563 -0.6431 -0.1423
 8441TIP3   OH246813   5.748   3.019   4.300  0.1274  0.0536  0.2745
 8441TIP3    H146814   5.683   3.068   4.350 -0.4949 -1.3012  0.8254
 8441TIP3    H246815   5.765   2.941   4.352  2.8822  0.7624  0.5929
 8442TIP3   OH246816   5.550   4.843  14.774 -0.1375 -0.1302 -0.4338
 8442TIP3    H146817   5.525   4.754  14.748  0.1215  0.1000 -1.5122
 8442TIP3    H246818   5.640   4.853  14.743  0.0550  0.3056  0.2357
 8443TIP3   OH246819   6.147   5.153   6.115 -0.2036 -0.0951 -0.5642
 8443TIP3    H146820   6.063   5.188   6.144  0.1591 -0.4269  0.9487
 8443TIP3    H246821   6.180   5.217   6.053 -1.8847 -0.2997 -1.7297
 8444TIP3   OH246822   0.194   1.095  15.045  0.0368 -0.1419  0.2933
 8444TIP3    H146823   0.212   1.183  15.014  0.2174  0.2481  1.4271
 8444TIP3    H246824   0.110   1.102  15.091  0.0919 -0.5318  0.4586
 8445TIP3   OH246825   5.216   4.398  16.314  0.1566  0.2631  0.1126
 8445TIP3    H146826   5.234   4.372  16.404 -1.8783 -1.5349  0.0651
 8445TIP3    H246827   5.253   4.328  16.261  0.2433  0.6855 -0.3871
 8446TIP3   OH246828   5.625   1.094  16.709  0.0339  0.3445 -0.2353
 8446TIP3    H146829   5.690   1.106  16.640 -0.9321  1.1365 -1.0434
 8446TIP3    H246830   5.667   1.127  16.788  1.4808 -1.3672 -0.2169
 8447TIP3   OH246831   4.006   2.807   5.551 -0.0865  0.3619  0.3784
 8447TIP3    H146832   3.911   2.814   5.550 -0.1519 -0.3776 -1.0462
 8447TIP3    H246833   4.026   2.751   5.626 -0.7291  0.8877  0.9528
 8448TIP3   OH246834   3.921   1.895  10.624  0.2725 -0.0508 -0.6248
 8448TIP3    H146835   3.920   1.876  10.718  0.2331 -1.8206 -0.9433
 8448TIP3    H246836   3.833   1.873  10.594  0.7168 -0.9620 -1.3103
 8449TIP3   OH246837   5.138   5.985   3.892 -0.3747 -0.0415 -0.3053
 8449TIP3    H146838   5.044   5.968   3.898 -0.2671 -0.2585  1.4140
 8449TIP3    H246839   5.147   6.077   3.916  0.0051 -0.5720  1.7495
 8450TIP3   OH246840   2.905   1.833  15.696 -0.7710 -0.0632  0.0615
 8450TIP3    H146841   2.920   1.877  15.780  1.4374 -0.4861 -0.0681
 8450TIP3    H246842   2.871   1.902  15.638  0.6983  1.0065  0.4335
 8451TIP3   OH246843   2.030   0.948   3.773 -0.0981 -0.2826  0.3700
 8451TIP3    H146844   2.119   0.966   3.805  1.3675 -1.3262 -2.7223
 8451TIP3    H246845   2.000   1.031   3.738  1.2096 -0.6396 -1.7931
 8452TIP3   OH246846   3.236   2.130   2.210 -0.0511  0.1963  1.2352
 8452TIP3    H146847   3.275   2.214   2.186  0.7169 -0.3681  0.4592
 8452TIP3    H246848   3.295   2.064   2.174 -0.3561 -0.6927  2.2852
 8453TIP3   OH246849   2.379   3.100   3.103  0.2515 -0.0786 -0.3823
 8453TIP3    H146850   2.391   3.050   3.022  0.0441  0.0500 -0.4948
 8453TIP3    H246851   2.294   3.144   3.091  1.2626  1.8333 -1.1400
 8454TIP3   OH246852   6.726   2.488   5.738  0.1949 -0.3416 -0.3443
 8454TIP3    H146853   6.699   2.485   5.646  1.2823 -2.7428 -0.6812
 8454TIP3    H246854   6.822   2.489   5.734  0.2940 -1.9289  0.7076
 8455TIP3   OH246855   6.260   3.054  13.663  0.1539 -0.7126 -0.0848
 8455TIP3    H146856   6.234   3.025  13.576  1.5448 -1.0011 -0.4384
 8455TIP3    H246857   6.355   3.046  13.663  0.2536  0.1513  1.1587
 8456TIP3   OH246858   2.889   4.513  15.045  0.1067 -0.2537 -0.2603
 8456TIP3    H146859   2.943   4.565  15.105 -0.8078 -0.6158  0.9070
 8456TIP3    H246860   2.900   4.556  14.960  0.4896  0.9917  0.3952
 8457TIP3   OH246861   4.490   4.843   3.686  0.4875 -0.3870  0.0466
 8457TIP3    H146862   4.417   4.845   3.623 -0.4944  1.2756  1.1734
 8457TIP3    H246863   4.456   4.886   3.764  1.8089 -2.0359  1.6293
 8458TIP3   OH246864   4.707   4.734  12.006  0.3869 -0.7311 -0.5923
 8458TIP3    H146865   4.679   4.734  12.098  1.5413  1.3287 -0.1673
 8458TIP3    H246866   4.696   4.643  11.978 -4.0253 -0.6686  0.2340
 8459TIP3   OH246867   6.476   3.906   2.227 -0.0306  0.4107  0.1691
 8459TIP3    H146868   6.474   3.906   2.323  0.6916 -0.9743  0.1953
 8459TIP3    H246869   6.562   3.870   2.204 -1.1537 -1.6926 -0.9907
 8460TIP3   OH246870   1.092   3.914  15.664  0.2749 -0.6070  0.1636
 8460TIP3    H146871   1.069   3.884  15.576  0.0707 -1.4362  0.4904
 8460TIP3    H246872   1.115   3.834  15.712 -1.3101 -0.3864  1.3639
 8461TIP3   OH246873   3.183   4.947   4.293 -0.3766 -0.2372  0.2972
 8461TIP3    H146874   3.131   4.945   4.373  0.6029 -1.3638  0.9365
 8461TIP3    H246875   3.236   5.026   4.301 -1.2857  0.4184  0.0736
 8462TIP3   OH246876   3.901   1.039   2.710  0.1282 -0.3605  0.4978
 8462TIP3    H146877   3.943   0.972   2.764  0.2006 -0.7999 -0.0985
 8462TIP3    H246878   3.954   1.117   2.724 -0.8199  0.0110  2.3718
 8463TIP3   OH246879   1.962   5.558   5.214  0.1201 -0.2076  0.2153
 8463TIP3    H146880   1.918   5.522   5.290 -1.7311  0.7232 -0.3369
 8463TIP3    H246881   1.905   5.535   5.140  0.1969  1.5798 -0.4529
 8464TIP3   OH246882   1.216   3.401   2.392 -0.5447 -0.2819 -0.0340
 8464TIP3    H146883   1.286   3.436   2.447 -2.0894  0.1930  1.7506
 8464TIP3    H246884   1.259   3.336   2.336  1.2406 -0.2650  1.2455
 8465TIP3   OH246885   6.449   5.947  15.002 -0.4645  0.2770 -0.1333
 8465TIP3    H146886   6.534   5.921  15.037  0.3084 -0.9434 -2.6580
 8465TIP3    H246887   6.388   5.936  15.075  1.4543  0.9732  1.6836
 8466TIP3   OH246888   0.785   5.666  16.319 -0.0018 -0.0976  0.2091
 8466TIP3    H146889   0.827   5.740  16.276 -0.8028  0.3143  0.1126
 8466TIP3    H246890   0.703   5.702  16.354 -0.8363 -1.1260 -0.6139
 8467TIP3   OH246891   5.439   5.424   1.849  0.9079  0.0093  0.3144
 8467TIP3    H146892   5.403   5.388   1.929  1.6645  0.1172  0.7176
 8467TIP3    H246893   5.446   5.518   1.866 -0.3240  0.2536 -0.4380
 8468TIP3   OH246894   4.191   1.804  15.402  0.7220 -0.2077 -0.1574
 8468TIP3    H146895   4.147   1.859  15.467  2.7881  2.5385 -0.9143
 8468TIP3    H246896   4.121   1.778  15.342 -0.1557  3.5734 -1.0444
 8469TIP3   OH246897   2.569   5.104  14.601  0.9891  0.3436 -0.0775
 8469TIP3    H146898   2.546   5.027  14.654  0.2051  0.2679 -0.5083
 8469TIP3    H246899   2.601   5.168  14.665  1.0126 -0.1002  0.3647
 8470TIP3   OH246900   3.667   1.545  13.511 -0.1601 -0.3324  0.1401
 8470TIP3    H146901   3.741   1.564  13.569 -0.5808  1.6492  0.0753
 8470TIP3    H246902   3.669   1.614  13.445 -2.6440  0.3751  0.7143
 8471TIP3   OH246903   2.006   1.195  16.535  0.2371  0.6591 -0.2379
 8471TIP3    H146904   1.936   1.149  16.488 -1.8050  1.7240  1.5864
 8471TIP3    H246905   2.058   1.236  16.466 -1.4783  0.5900 -1.6618
 8472TIP3   OH246906   4.059   2.097   0.780 -0.1030 -0.4089  0.7039
 8472TIP3    H146907   3.996   2.138   0.720  0.3933 -1.0163 -0.2703
 8472TIP3    H246908   4.025   2.115   0.867 -1.2910 -0.1915  0.2152
 8473TIP3   OH246909   5.191   6.525   1.277 -0.2184  0.6504  0.1428
 8473TIP3    H146910   5.238   6.601   1.313 -1.2114  0.9126  0.9271
 8473TIP3    H246911   5.180   6.467   1.351 -1.1224  0.5878 -0.0382
 8474TIP3   OH246912   6.709   0.042   6.347  0.2384 -0.7670 -0.1875
 8474TIP3    H146913   6.741   0.130   6.367 -2.4650  0.0714  0.9263
 8474TIP3    H246914   6.673   0.050   6.258 -0.1607 -0.6874 -0.0203
 8475TIP3   OH246915   6.123   5.388  15.940 -0.3367 -0.0901  0.0615
 8475TIP3    H146916   6.175   5.455  15.985 -1.0915  1.1564 -0.8871
 8475TIP3    H246917   6.188   5.323  15.912  0.1939 -0.8467  2.7408
 8476TIP3   OH246918   3.558   5.582  12.219  0.7804  0.0036  0.0787
 8476TIP3    H146919   3.564   5.674  12.244 -0.0443  0.4446 -1.2459
 8476TIP3    H246920   3.470   5.556  12.246 -0.0214  0.4083 -1.9544
 8477TIP3   OH246921   0.764   1.292   3.362  0.5654 -0.9981  0.0973
 8477TIP3    H146922   0.700   1.355   3.394  0.8149 -1.5226  1.6837
 8477TIP3    H246923   0.784   1.322   3.273 -0.3498  0.3397  0.3136
 8478TIP3   OH246924   6.880   1.995  14.622  0.1773 -0.8715 -0.3018
 8478TIP3    H146925   6.974   2.015  14.617  0.4313 -1.7963  0.5333
 8478TIP3    H246926   6.856   1.974  14.532  0.5824  0.1662 -0.6654
 8479TIP3   OH246927   1.078   3.382   4.846 -0.1500 -0.5071 -0.0562
 8479TIP3    H146928   1.086   3.322   4.920 -2.0554 -1.3889 -0.5064
 8479TIP3    H246929   0.986   3.375   4.819 -0.1041  1.6151 -0.9798
 8480TIP3   OH246930   4.229   6.006  16.419 -0.2901 -0.2586 -0.0818
 8480TIP3    H146931   4.185   5.995  16.335  0.0310 -0.9422 -0.1698
 8480TIP3    H246932   4.199   5.932  16.471 -0.6662  0.2892  0.4857
 8481TIP3   OH246933   3.157   0.027   2.141 -0.3499  0.5357  0.0189
 8481TIP3    H146934   3.209   0.000   2.216 -1.2826  0.5608  0.6969
 8481TIP3    H246935   3.115  -0.053   2.111  0.9623  0.2945 -1.2555
 8482TIP3   OH246936   2.901   6.155  11.090 -0.2144  0.3506  0.5595
 8482TIP3    H146937   2.957   6.143  11.013 -1.2544 -0.3332 -0.1084
 8482TIP3    H246938   2.838   6.084  11.086 -2.6058  2.3683  0.0055
 8483TIP3   OH246939   4.503   4.547  14.458 -0.2207 -0.2379  0.7094
 8483TIP3    H146940   4.526   4.619  14.399  0.7559 -0.0239  1.3290
 8483TIP3    H246941   4.465   4.481  14.400 -1.2718  0.8247  0.1590
 8484TIP3   OH246942   0.348   3.397  12.685 -0.1523  0.1129  0.5109
 8484TIP3    H146943   0.404   3.423  12.612  0.7156  0.6143  1.3327
 8484TIP3    H246944   0.269   3.363  12.644  0.6556 -0.3840 -0.6745
 8485TIP3   OH246945   4.873   4.680  13.549  0.7541 -0.5728 -0.3140
 8485TIP3    H146946   4.940   4.747  13.557 -0.8123  1.6225 -3.4301
 8485TIP3    H246947   4.905   4.621  13.481 -0.0780  0.0974 -1.3253
 8486TIP3   OH246948   6.818   4.057   1.314  0.4573  0.2982  0.3596
 8486TIP3    H146949   6.837   4.112   1.390  1.6131  0.6634 -0.1712
 8486TIP3    H246950   6.744   4.100   1.271  0.3002  0.5223  0.8507
 8487TIP3   OH246951   2.074   0.682  14.679  0.3436  0.0529  0.8185
 8487TIP3    H146952   2.055   0.708  14.590  0.1806 -0.0174  0.8325
 8487TIP3    H246953   2.031   0.747  14.734  1.3285  0.7084  0.8410
 8488TIP3   OH246954   6.042   2.788   5.706  0.7209  0.0445 -0.0202
 8488TIP3    H146955   6.108   2.723   5.681  0.8712  0.8570 -1.8465
 8488TIP3    H246956   6.057   2.862   5.648 -2.0672  0.0958 -0.8309
 8489TIP3   OH246957   2.364   5.498   1.256 -0.2131  0.1821 -0.1009
 8489TIP3    H146958   2.399   5.582   1.285  0.0387 -0.3265  1.1311
 8489TIP3    H246959   2.441   5.442   1.245 -0.4545 -0.2197  0.2061
 8490TIP3   OH246960   5.975   1.551   4.739  0.2517 -0.0971  0.9471
 8490TIP3    H146961   5.911   1.615   4.768  1.1766 -0.2737  3.6225
 8490TIP3    H246962   6.047   1.603   4.703  0.3445  0.3238  1.7124
 8491TIP3   OH246963   5.432   4.109   0.896  0.0247  0.6401  0.1244
 8491TIP3    H146964   5.348   4.082   0.859 -0.0798  0.5092  0.4516
 8491TIP3    H246965   5.468   4.170   0.832  0.9913 -1.4264 -1.3721
 8492TIP3   OH246966   2.965   4.381   4.119 -0.3927  0.2712  0.4457
 8492TIP3    H146967   2.968   4.317   4.190  0.3490 -0.3596 -0.1422
 8492TIP3    H246968   3.055   4.387   4.087 -0.8867 -0.2588 -1.1371
 8493TIP3   OH246969   0.236   6.058  13.133 -0.5105 -0.4518  0.1997
 8493TIP3    H146970   0.312   6.041  13.189 -0.1722  2.5474  0.8287
 8493TIP3    H246971   0.221   6.152  13.140 -3.0709 -0.6094 -1.5191
 8494TIP3   OH246972   6.741   1.529  12.120  0.0536 -0.1148 -0.0448
 8494TIP3    H146973   6.678   1.473  12.075  1.8935 -1.3099 -1.2790
 8494TIP3    H246974   6.798   1.561  12.051  0.0262  2.0323  0.8667
 8495TIP3   OH246975   2.035   2.093   5.848  0.5598  0.0844 -0.2400
 8495TIP3    H146976   1.962   2.126   5.795  0.0181 -1.7847 -0.7221
 8495TIP3    H246977   2.104   2.073   5.785  0.7151 -0.1286 -0.0066
 8496TIP3   OH246978   2.685   1.090   3.900  0.2160  0.1200 -0.4377
 8496TIP3    H146979   2.747   1.141   3.952 -0.4980  0.9658 -0.3902
 8496TIP3    H246980   2.622   1.056   3.964  0.7589 -0.9619 -0.4495
 8497TIP3   OH246981   4.893   5.745  10.288  0.8021  0.0294  0.3452
 8497TIP3    H146982   4.933   5.814  10.234  5.2410 -3.4320 -1.4343
 8497TIP3    H246983   4.817   5.717  10.238  1.8023  0.4069 -1.4967
 8498TIP3   OH246984   6.187   5.499  14.143  0.2899  0.2823  0.1790
 8498TIP3    H146985   6.171   5.533  14.055 -1.6139  1.1481  0.7967
 8498TIP3    H246986   6.282   5.501  14.153  0.4577  1.7518 -1.2551
 8499TIP3   OH246987   3.812   5.247   5.355 -0.1942  0.7037  0.4577
 8499TIP3    H146988   3.765   5.222   5.275 -1.4389 -0.4258  1.4731
 8499TIP3    H246989   3.837   5.338   5.341  1.2427  0.0370 -1.9317
 8500TIP3   OH246990   1.721   1.275  12.690  0.1468 -0.2408  0.9217
 8500TIP3    H146991   1.729   1.365  12.720  0.1658 -0.0216  0.2709
 8500TIP3    H246992   1.804   1.234  12.714 -0.6803 -0.7260  3.2625
 8501TIP3   OH246993   0.421   5.954   4.625  0.5308  0.5483 -0.7148
 8501TIP3    H146994   0.460   6.023   4.572 -1.0946  0.1516 -2.5281
 8501TIP3    H246995   0.348   5.997   4.670  1.0010  0.5382  0.0809
 8502TIP3   OH246996   5.622   1.001  12.716 -1.2574  0.1785 -0.1130
 8502TIP3    H146997   5.662   1.087  12.729  0.0601  0.0987 -2.9477
 8502TIP3    H246998   5.544   1.019  12.664 -1.9485 -0.2181  0.7621
 8503TIP3   OH246999   5.409   4.312  15.429 -0.2108 -0.1713  0.3928
 8503TIP3    H147000   5.404   4.231  15.379  0.6973 -0.8238  1.3128
 8503TIP3    H247001   5.375   4.289  15.515 -1.7069  0.9215  0.1309
 8504TIP3   OH247002   0.931   2.922  16.759 -0.3861  0.1608  0.2440
 8504TIP3    H147003   0.882   2.870  16.823 -1.6040 -0.4175 -1.0813
 8504TIP3    H247004   0.989   2.977  16.811 -1.7698  0.1681  1.8721
 8505TIP3   OH247005   2.501   4.351   0.937  0.2885  0.1259  0.0070
 8505TIP3    H147006   2.469   4.314   1.020  1.0817 -0.6760 -0.0301
 8505TIP3    H247007   2.422   4.385   0.895 -0.7470 -2.5615 -0.4753
 8506TIP3   OH247008   1.564   1.196   1.754  0.1187 -0.0824  0.4300
 8506TIP3    H147009   1.479   1.238   1.767 -0.1880 -0.9032  1.1297
 8506TIP3    H247010   1.610   1.209   1.837  1.0772  1.2157 -0.2690
 8507TIP3   OH247011   5.818   0.132   2.381 -0.2282  0.3879 -0.1618
 8507TIP3    H147012   5.781   0.046   2.359 -0.1366  0.6727 -1.5304
 8507TIP3    H247013   5.912   0.121   2.367 -0.2535  0.7986 -0.6744
 8508TIP3   OH247014   4.004   4.744  16.833  0.5579 -0.7707  0.1222
 8508TIP3    H147015   4.056   4.730  16.912  0.4582  0.1954  0.3687
 8508TIP3    H247016   3.944   4.815  16.856 -0.3014 -1.3036 -0.4314
 8509TIP3   OH247017   2.032   0.998  17.031 -0.2060  0.4511 -0.3863
 8509TIP3    H147018   1.941   0.986  17.061 -0.5364 -1.3979 -1.9546
 8509TIP3    H247019   2.032   1.085  16.991 -1.0374  0.8533  0.4395
 8510TIP3   OH247020   5.028   4.491   1.513 -0.2128 -0.1594  0.4431
 8510TIP3    H147021   5.007   4.439   1.591  1.3995 -3.3251 -1.0385
 8510TIP3    H247022   4.944   4.499   1.467 -0.6490 -0.7998  1.0916
 8511TIP3   OH247023   3.128   0.400  14.892  0.1754 -0.3498  0.3017
 8511TIP3    H147024   3.155   0.417  14.982  0.6481 -3.5139  0.8765
 8511TIP3    H247025   3.184   0.455  14.839  1.4423 -0.0671  1.8728
 8512TIP3   OH247026   0.957   3.317  15.585  0.0672  0.1035  0.1529
 8512TIP3    H147027   1.035   3.264  15.574  0.5567  1.0922 -1.6343
 8512TIP3    H247028   0.967   3.388  15.521 -1.9646  0.6405  0.3492
 8513TIP3   OH247029   4.008   5.494  12.260  0.0004 -0.3687 -0.5073
 8513TIP3    H147030   4.033   5.585  12.244  2.1238 -0.5864  1.1304
 8513TIP3    H247031   4.036   5.447  12.181  0.0626  0.1929 -0.8241
 8514TIP3   OH247032   6.330   3.786  13.456  0.0053 -0.9754  0.2742
 8514TIP3    H147033   6.280   3.835  13.391  0.7492 -0.1432  0.3072
 8514TIP3    H247034   6.323   3.838  13.536  0.4456 -1.1402  0.4223
 8515TIP3   OH247035   0.900   5.132   1.015 -0.2674 -0.0094 -0.3494
 8515TIP3    H147036   0.870   5.041   1.013 -0.8097  0.1428  0.3903
 8515TIP3    H247037   0.933   5.145   1.104  1.4081  0.0341 -0.9380
 8516TIP3   OH247038   6.471   4.803   1.742  0.1205 -0.3913  0.2816
 8516TIP3    H147039   6.506   4.715   1.725 -0.5922 -0.4791 -0.7974
 8516TIP3    H247040   6.485   4.816   1.836  1.9796 -0.8821  0.1130
 8517TIP3   OH247041   0.502   5.545   4.464 -0.1182  0.3531 -0.1718
 8517TIP3    H147042   0.497   5.455   4.496  0.2666  0.1770 -0.5919
 8517TIP3    H247043   0.422   5.557   4.414 -0.4210  0.4213  0.3205
 8518TIP3   OH247044   3.259   1.206   5.085 -0.2086  0.0363 -0.1010
 8518TIP3    H147045   3.175   1.224   5.126  0.2929 -0.1997  1.0558
 8518TIP3    H247046   3.238   1.154   5.008 -1.2612  1.4337 -0.8025
 8519TIP3   OH247047   0.604   2.928   3.164  0.1948 -0.0096 -0.8792
 8519TIP3    H147048   0.545   2.997   3.134  0.0553  0.0415 -0.4935
 8519TIP3    H247049   0.678   2.932   3.103 -0.9344 -1.1631 -2.3900
 8520TIP3   OH247050   2.818   5.717   0.574 -0.6598 -0.0234  0.1842
 8520TIP3    H147051   2.876   5.641   0.567  0.1347  0.4841  0.9569
 8520TIP3    H247052   2.767   5.716   0.494 -1.9590 -2.4118  0.9313
 8521TIP3   OH247053   4.332   4.916  12.852  0.1457 -0.7511  0.0201
 8521TIP3    H147054   4.362   4.906  12.762  1.5164  1.2151  0.1823
 8521TIP3    H247055   4.259   4.978  12.846 -0.0205 -0.9281  0.2150
 8522TIP3   OH247056   3.669   4.876   3.135  0.5961 -0.3860 -0.1710
 8522TIP3    H147057   3.655   4.786   3.105 -0.9220  0.2527 -1.5327
 8522TIP3    H247058   3.747   4.871   3.191  1.4346 -2.2681 -1.4195
 8523TIP3   OH247059   2.653   3.299  11.797 -0.3682 -0.5526 -0.1644
 8523TIP3    H147060   2.663   3.283  11.703 -0.8665 -0.0596 -0.3075
 8523TIP3    H247061   2.731   3.260  11.837  0.0572 -0.3955 -0.8235
 8524TIP3   OH247062   0.392   3.406  16.788  0.3837  0.3780  0.4359
 8524TIP3    H147063   0.369   3.337  16.849 -1.1725 -1.1644 -1.7331
 8524TIP3    H247064   0.311   3.457  16.777  0.2026 -0.2039 -1.2780
 8525TIP3   OH247065   2.673   0.078   3.216  0.2575 -0.4543  0.0348
 8525TIP3    H147066   2.686   0.006   3.154 -1.2129  0.1954 -1.0702
 8525TIP3    H247067   2.578   0.085   3.226  0.3344  1.5639 -0.1919
 8526TIP3   OH247068   4.165   2.080  13.186  0.0835  0.4206  0.0001
 8526TIP3    H147069   4.129   2.169  13.191  1.5627  1.0826 -0.3314
 8526TIP3    H247070   4.119   2.039  13.114  1.0670  1.7994 -1.4982
 8527TIP3   OH247071   4.175   4.143   0.926 -0.0722 -0.3593 -0.0864
 8527TIP3    H147072   4.167   4.194   0.845 -0.0100 -1.6416 -0.9418
 8527TIP3    H247073   4.115   4.185   0.987 -1.2515 -0.2239 -1.2874
 8528TIP3   OH247074   0.027   6.361   2.815  0.9368 -0.2172  0.0364
 8528TIP3    H147075   0.088   6.339   2.745  0.0817 -0.1110 -0.7624
 8528TIP3    H247076   0.006   6.277   2.856  1.2190 -0.3134 -0.0135
 8529TIP3   OH247077   6.282   3.162   5.739 -0.2543  0.0071  0.0132
 8529TIP3    H147078   6.324   3.084   5.702  0.7113 -0.2967  1.6488
 8529TIP3    H247079   6.351   3.205   5.789 -1.2827  0.8702  0.7274
 8530TIP3   OH247080   6.571   2.750  13.831  0.2395 -0.1897  0.0142
 8530TIP3    H147081   6.579   2.807  13.754  0.9086 -2.3487 -1.6077
 8530TIP3    H247082   6.483   2.768  13.865  0.5774  2.0702 -0.1691
 8531TIP3   OH247083   3.117   3.895  15.640  0.2288  0.1375 -0.1768
 8531TIP3    H147084   3.140   3.959  15.706 -2.0187 -0.5818  1.4296
 8531TIP3    H247085   3.037   3.930  15.599 -0.6842 -1.2695  0.3060
 8532TIP3   OH247086   0.194   3.031   6.473 -0.2179  0.2023 -0.3480
 8532TIP3    H147087   0.170   3.096   6.539 -2.1087 -0.2430 -0.5205
 8532TIP3    H247088   0.228   2.957   6.523 -3.4052 -0.9082  0.4284
 8533TIP3   OH247089   2.090   6.374  15.512 -0.9498  0.1179  0.0733
 8533TIP3    H147090   2.070   6.283  15.534  0.0007 -0.4996 -1.4721
 8533TIP3    H247091   2.044   6.390  15.430 -0.0235  0.5924 -0.3686
 8534TIP3   OH247092   3.399   5.107  15.668 -0.2193  0.1568 -0.2098
 8534TIP3    H147093   3.372   5.188  15.710  1.5860  1.1623 -0.8936
 8534TIP3    H247094   3.381   5.039  15.733 -1.3963  1.1335  0.5227
 8535TIP3   OH247095   5.714   3.611   1.524 -0.3105 -0.5383  0.7782
 8535TIP3    H147096   5.795   3.595   1.573  0.0666 -0.3472  0.2210
 8535TIP3    H247097   5.651   3.634   1.592  0.3674  0.3567  1.1310
 8536TIP3   OH247098   5.167   3.919   0.031  0.4024 -0.0356 -0.3869
 8536TIP3    H147099   5.228   3.856  -0.007 -0.2975 -0.4602 -0.8301
 8536TIP3    H247100   5.222   3.993   0.058  1.2151 -0.7966  0.0585
 8537TIP3   OH247101   2.597   5.450  12.586 -0.0866 -0.0858 -0.4907
 8537TIP3    H147102   2.660   5.380  12.571 -0.2965 -0.1642 -1.0116
 8537TIP3    H247103   2.600   5.503  12.507 -0.2657  0.2341 -0.2865
 8538TIP3   OH247104   0.110   5.964  16.398 -0.5031 -0.5481 -0.0832
 8538TIP3    H147105   0.085   6.043  16.447  0.9664 -0.2867  0.3068
 8538TIP3    H247106   0.092   5.892  16.458  0.6866 -0.2745  0.6444
 8539TIP3   OH247107   1.543   1.806  11.854  0.1269 -0.9944  0.1157
 8539TIP3    H147108   1.540   1.899  11.875 -1.5726 -1.2736  1.3386
 8539TIP3    H247109   1.454   1.785  11.828  0.5482 -2.2379 -0.3937
 8540TIP3   OH247110   0.667   5.162  16.239  0.2350 -0.3213  0.5817
 8540TIP3    H147111   0.716   5.170  16.157 -0.9302  2.1651  0.0302
 8540TIP3    H247112   0.588   5.113  16.214 -0.4984  1.1127 -0.0226
 8541TIP3   OH247113   1.299   1.251  13.016  0.0021 -0.1465  0.1975
 8541TIP3    H147114   1.232   1.206  13.066  1.4265 -1.1371  1.2928
 8541TIP3    H247115   1.356   1.291  13.081  1.9810 -1.5752 -0.5212
 8542TIP3   OH247116   2.337   5.253  10.373 -0.7747  0.1086  0.1479
 8542TIP3    H147117   2.317   5.163  10.346 -0.0056  0.2520 -0.9650
 8542TIP3    H247118   2.384   5.291  10.299  1.7090  0.4752  1.7845
 8543TIP3   OH247119   2.434   2.077  10.568 -0.1077 -0.0348  0.0234
 8543TIP3    H147120   2.454   2.167  10.594 -0.0029 -0.4867  1.6519
 8543TIP3    H247121   2.516   2.030  10.584 -0.4996 -0.6261  0.2964
 8544TIP3   OH247122   0.940   6.169  12.306 -0.4192  0.1581 -1.0210
 8544TIP3    H147123   0.948   6.078  12.338 -1.0877 -0.3530 -2.2362
 8544TIP3    H247124   0.887   6.212  12.373 -2.5387 -1.1182 -1.7682
 8545TIP3   OH247125   5.138   5.638  16.972  0.4782  0.2539  0.0073
 8545TIP3    H147126   5.088   5.648  17.053  0.1935  0.6083 -0.2043
 8545TIP3    H247127   5.221   5.599  16.999  0.0108 -0.5322  0.3381
 8546TIP3   OH247128   1.586   1.102   1.101  0.6411  0.3631  0.1893
 8546TIP3    H147129   1.552   1.028   1.152 -0.6968  1.6384  1.2321
 8546TIP3    H247130   1.597   1.067   1.013 -0.9927 -0.8311  0.4047
 8547TIP3   OH247131   2.121   3.560   4.740  0.1408 -0.1282  0.6698
 8547TIP3    H147132   2.060   3.632   4.724  1.5675  1.1587  0.8006
 8547TIP3    H247133   2.068   3.481   4.730 -1.1428  0.8766 -0.9520
 8548TIP3   OH247134   6.095   6.761  14.956  0.3219 -0.2744 -0.5094
 8548TIP3    H147135   6.169   6.728  14.906 -0.1071  0.0816 -1.4017
 8548TIP3    H247136   6.102   6.856  14.949  1.6534 -0.0819  2.1825
 8549TIP3   OH247137   6.332   3.915   0.077 -0.3622  0.3721 -0.1070
 8549TIP3    H147138   6.347   4.008   0.059  0.8683  0.4599  1.1772
 8549TIP3    H247139   6.402   3.891   0.138  0.6317 -1.9290 -1.9559
 8550TIP3   OH247140   6.436   4.947  14.616  0.2996 -0.0370 -0.1541
 8550TIP3    H147141   6.390   4.882  14.563 -0.5895  0.8928 -0.5640
 8550TIP3    H247142   6.484   4.896  14.681 -0.9630 -1.0762  0.0039
 8551TIP3   OH247143   2.004   5.994  16.367  0.3313 -0.5828  0.2831
 8551TIP3    H147144   2.073   6.060  16.371  0.1487 -0.4339  1.1835
 8551TIP3    H247145   1.991   5.979  16.273 -0.9393  2.0516 -0.0475
 8552TIP3   OH247146   5.476   0.087  12.066  0.5477  0.1197 -0.5454
 8552TIP3    H147147   5.480   0.096  11.970  2.3165  1.0164 -0.4379
 8552TIP3    H247148   5.517   0.167  12.099 -2.7000  1.2646  1.0832
 8553TIP3   OH247149   3.905   3.354   2.484 -0.0720  0.2233  0.4369
 8553TIP3    H147150   3.822   3.387   2.450  0.4714  1.7146  0.4488
 8553TIP3    H247151   3.933   3.288   2.421  0.5582  2.4017 -1.7048
 8554TIP3   OH247152   6.377   6.112   5.911 -0.4750 -0.6770  0.1947
 8554TIP3    H147153   6.359   6.095   6.003 -3.0338  1.1232  0.1319
 8554TIP3    H247154   6.311   6.061   5.863 -0.6301  0.1498 -0.5016
 8555TIP3   OH247155   4.882   4.867   1.893  0.4509 -0.3311 -0.0884
 8555TIP3    H147156   4.861   4.774   1.891  0.3257 -0.3007 -0.1662
 8555TIP3    H247157   4.805   4.908   1.931  0.2358 -0.1804 -0.6966
 8556TIP3   OH247158   1.827   1.849  12.928 -0.2405 -0.1593 -0.5647
 8556TIP3    H147159   1.875   1.866  13.009 -0.8586 -0.4045 -0.1368
 8556TIP3    H247160   1.735   1.840  12.956 -0.6715  1.1435 -1.4577
 8557TIP3   OH247161   0.904   1.123   0.309  0.2280  0.0265  0.0370
 8557TIP3    H147162   0.987   1.169   0.313  0.8319 -1.0108 -0.2415
 8557TIP3    H247163   0.897   1.078   0.394  0.1457 -0.1972 -0.0858
 8558TIP3   OH247164   2.213   3.946   2.755 -0.1285  0.3781  0.2087
 8558TIP3    H147165   2.141   3.923   2.696 -1.0057 -0.8213  1.6734
 8558TIP3    H247166   2.253   3.862   2.778 -0.2510  0.7325  1.8465
 8559TIP3   OH247167   1.690   2.606  14.050  0.3065  0.3288 -0.1079
 8559TIP3    H147168   1.761   2.601  14.114  0.9399 -0.1340 -0.8113
 8559TIP3    H247169   1.735   2.627  13.967 -0.3467 -0.2183 -0.6102
 8560TIP3   OH247170   0.550   0.619  12.043 -0.9908  0.2390 -0.3617
 8560TIP3    H147171   0.516   0.631  11.954 -2.1277 -2.6685 -0.4269
 8560TIP3    H247172   0.476   0.586  12.093  0.2016 -0.3668  1.0785
 8561TIP3   OH247173   0.592   4.192  16.951 -0.2970  0.5767  0.5438
 8561TIP3    H147174   0.520   4.150  16.998  0.2605  0.0258  0.9108
 8561TIP3    H247175   0.640   4.240  17.018  3.3299 -3.9436  1.6613
 8562TIP3   OH247176   3.303   3.532   4.510  1.0315  0.7274 -0.1777
 8562TIP3    H147177   3.270   3.575   4.589  1.1018  0.0965  0.1986
 8562TIP3    H247178   3.254   3.450   4.504  1.6100  0.3891 -0.3345
 8563TIP3   OH247179   2.740   2.051  10.565 -0.6143 -0.8422 -0.2809
 8563TIP3    H147180   2.788   2.111  10.623 -0.1242 -0.2380 -1.2896
 8563TIP3    H247181   2.791   2.050  10.484 -2.1695 -0.3707 -1.3148
 8564TIP3   OH247182   4.229   1.974   3.145 -0.5680 -0.1295  0.5838
 8564TIP3    H147183   4.210   1.890   3.103  1.1902 -0.5426  0.5255
 8564TIP3    H247184   4.155   1.988   3.204 -1.0824 -1.5366  0.3229
 8565TIP3   OH247185   3.793   3.349   4.998  0.3291  0.8119 -0.0262
 8565TIP3    H147186   3.762   3.259   4.989  0.7248  0.7565 -0.9883
 8565TIP3    H247187   3.813   3.359   5.091 -0.4505  0.1565  0.2265
 8566TIP3   OH247188   6.286   2.455  12.055 -0.0490 -0.1172  0.1180
 8566TIP3    H147189   6.271   2.450  12.150 -1.3572  1.1173  0.0111
 8566TIP3    H247190   6.225   2.392  12.018  0.4671 -0.6038  0.0909
 8567TIP3   OH247191   3.006   2.503  16.588 -0.4426 -0.2471  0.2338
 8567TIP3    H147192   3.077   2.549  16.542 -0.0299  1.4728  2.4442
 8567TIP3    H247193   3.051   2.448  16.652 -1.0912 -0.5670  0.4175
 8568TIP3   OH247194   3.987   1.728  15.235 -0.5030 -0.4871  0.4925
 8568TIP3    H147195   3.915   1.782  15.202 -0.0264  0.0990  0.3767
 8568TIP3    H247196   3.945   1.662  15.290 -1.0586  0.4810  1.2818
 8569TIP3   OH247197   5.196   1.109   6.110 -0.0173  0.6031  0.2501
 8569TIP3    H147198   5.165   1.114   6.020  1.3272  0.6364 -0.2340
 8569TIP3    H247199   5.117   1.097   6.162 -0.7336 -0.3412 -1.0076
 8570TIP3   OH247200   6.747   6.800  14.711 -0.1978  0.2220 -0.6283
 8570TIP3    H147201   6.724   6.721  14.760 -1.9845  0.9104 -0.2642
 8570TIP3    H247202   6.828   6.831  14.751 -1.7635  0.9692  2.2817
 8571TIP3   OH247203   3.118   6.492  13.223  0.3835  0.2139  0.2154
 8571TIP3    H147204   3.109   6.546  13.301  1.1603  0.8831 -0.1494
 8571TIP3    H247205   3.122   6.554  13.150 -1.1757 -0.4245 -0.4682
 8572TIP3   OH247206   5.147   4.179   2.167  0.2146  0.7066  0.5069
 8572TIP3    H147207   5.144   4.242   2.239  0.3872 -0.3114  1.4323
 8572TIP3    H247208   5.085   4.111   2.192  0.2214  0.3738 -0.3472
 8573TIP3   OH247209   0.917   6.869  12.755 -0.2431 -0.4679 -0.0160
 8573TIP3    H147210   0.902   6.849  12.662 -1.9004  1.0788 -0.1590
 8573TIP3    H247211   0.904   6.786  12.801  0.6939 -1.2772 -1.1417
 8574TIP3   OH247212   4.429   1.281  11.547  0.7684  0.1207 -0.6933
 8574TIP3    H147213   4.432   1.262  11.641  1.3609  1.3538 -0.4504
 8574TIP3    H247214   4.520   1.301  11.524  0.3145  1.8115 -1.0915
 8575TIP3   OH247215   4.963   2.327  11.183  0.1735 -0.2944  0.3567
 8575TIP3    H147216   4.986   2.420  11.186 -0.4071 -0.1002 -0.7333
 8575TIP3    H247217   4.960   2.300  11.275  1.2257  0.5334  0.6534
 8576TIP3   OH247218   0.172   1.059  11.145  0.0405 -0.0167 -0.3817
 8576TIP3    H147219   0.212   1.031  11.227 -1.5097 -1.2434  0.0236
 8576TIP3    H247220   0.239   1.044  11.079  1.1180  0.4515  0.5768
 8577TIP3   OH247221   0.358   5.940   3.111  0.0099  0.5087 -0.3555
 8577TIP3    H147222   0.339   5.882   3.037  0.3813 -0.3662  0.2219
 8577TIP3    H247223   0.450   5.962   3.101  0.2061 -0.0553  0.1364
 8578TIP3   OH247224   2.670   4.670  11.284 -0.6103 -0.2338  0.3533
 8578TIP3    H147225   2.710   4.755  11.268 -1.2788  0.0139 -0.0383
 8578TIP3    H247226   2.712   4.639  11.365 -1.0111  0.8661  1.0088
 8579TIP3   OH247227   3.619   4.412   6.078 -0.1017  0.3385 -0.6160
 8579TIP3    H147228   3.590   4.439   5.990 -0.0046  0.3527 -0.6434
 8579TIP3    H247229   3.549   4.441   6.136 -0.6893 -0.6378 -0.8167
 8580TIP3   OH247230   1.403   1.226   4.794 -0.2166  0.3041 -0.5888
 8580TIP3    H147231   1.347   1.151   4.774  0.1370 -0.6820  1.7174
 8580TIP3    H247232   1.365   1.299   4.745 -0.7507 -1.2881 -2.6844
 8581TIP3   OH247233   5.996   4.810   3.365 -0.3002 -0.0319  0.0678
 8581TIP3    H147234   6.032   4.798   3.277  0.9441  1.6765  0.2952
 8581TIP3    H247235   5.996   4.722   3.403  1.5012 -0.4454 -0.7830
 8582TIP3   OH247236   1.125   3.873   3.815  0.0109  0.0995  0.1419
 8582TIP3    H147237   1.187   3.839   3.880 -0.7138 -2.2684 -0.2773
 8582TIP3    H247238   1.040   3.867   3.858 -0.1448  1.5281  0.0553
 8583TIP3   OH247239   4.605   4.799  10.598 -0.2379 -0.5867  0.4542
 8583TIP3    H147240   4.528   4.742  10.592  0.4711 -1.6540  1.2178
 8583TIP3    H247241   4.580   4.866  10.662 -0.7892 -0.4927  0.1499
 8584TIP3   OH247242   1.784   2.912   4.518  0.5181  0.5549 -0.0213
 8584TIP3    H147243   1.776   2.818   4.535 -3.5323  0.9211  0.9747
 8584TIP3    H247244   1.822   2.917   4.430 -0.8739 -2.0698 -0.8761
 8585TIP3   OH247245   0.335   0.534  11.135  0.0279 -0.1039  0.9275
 8585TIP3    H147246   0.293   0.591  11.071  0.9485  0.7938  1.1100
 8585TIP3    H247247   0.424   0.522  11.103  0.9524  1.4813  2.6949
 8586TIP3   OH247248   4.235   5.708   0.742 -0.1632  0.1883 -0.4735
 8586TIP3    H147249   4.196   5.662   0.667 -2.0210  1.9160 -0.6553
 8586TIP3    H247250   4.267   5.790   0.706  0.0759  0.4944  0.4173
 8587TIP3   OH247251   1.840   5.324  12.883  0.1786  0.4423 -0.6821
 8587TIP3    H147252   1.812   5.404  12.838  1.6676  1.0956 -0.4972
 8587TIP3    H247253   1.780   5.316  12.958  1.0650  2.3654  0.2971
 8588TIP3   OH247254   3.238   4.282   1.668  0.4046 -0.6967  0.7150
 8588TIP3    H147255   3.289   4.209   1.704  0.1923 -1.3557 -0.2703
 8588TIP3    H247256   3.206   4.249   1.584 -1.2059 -0.1071  1.0668
 8589TIP3   OH247257   3.823   2.276   6.031  0.4015 -0.1486  0.3185
 8589TIP3    H147258   3.888   2.320   5.975  0.2177  1.1109  1.0679
 8589TIP3    H247259   3.873   2.249   6.108  0.8812 -2.7611 -0.7690
 8590TIP3   OH247260   3.849   4.843   2.870 -0.4020 -0.0731  0.4264
 8590TIP3    H147261   3.817   4.756   2.847 -0.5568  0.2578 -0.6436
 8590TIP3    H247262   3.770   4.898   2.873 -0.2584  0.1258  0.7011
 8591TIP3   OH247263   2.467   1.127  17.011  0.0180  0.8462  0.3570
 8591TIP3    H147264   2.431   1.210  17.042 -0.6050  0.3543  0.9774
 8591TIP3    H247265   2.432   1.118  16.922  0.9011  1.7146 -0.1103
 8592TIP3   OH247266   4.507   6.793  14.885 -0.0312  0.0328 -0.4960
 8592TIP3    H147267   4.547   6.758  14.965  1.3593 -0.1744 -1.2563
 8592TIP3    H247268   4.499   6.717  14.828  2.8370  0.7720 -2.0933
 8593TIP3   OH247269   4.447   2.292   3.240 -0.2425  0.7407  0.0950
 8593TIP3    H147270   4.430   2.300   3.146 -0.2680 -0.2474  0.0059
 8593TIP3    H247271   4.365   2.317   3.281  0.0440  2.0729 -0.1001
 8594TIP3   OH247272   2.421   5.328   2.770  0.0102  0.4119  0.0533
 8594TIP3    H147273   2.516   5.319   2.758  0.0766 -0.1164  0.8851
 8594TIP3    H247274   2.383   5.285   2.693  0.4413 -0.0912  0.1121
 8595TIP3   OH247275   5.673   1.732   5.538 -0.1056 -0.1334  0.2872
 8595TIP3    H147276   5.665   1.745   5.632  0.2433 -0.5123  0.3703
 8595TIP3    H247277   5.663   1.637   5.526 -1.5046  0.0476 -0.1939
 8596TIP3   OH247278   5.031   0.272  11.716  0.1383  0.5293  0.1741
 8596TIP3    H147279   5.021   0.249  11.808 -0.1513 -0.7092 -0.1506
 8596TIP3    H247280   5.090   0.204  11.681  0.3093  1.0329 -0.5365
 8597TIP3   OH247281   4.690   1.863   5.960  0.9923 -0.5509  0.9323
 8597TIP3    H147282   4.680   1.768   5.973  1.1661 -0.5974  0.7318
 8597TIP3    H247283   4.783   1.875   5.941  1.0679 -0.2742  1.4775
 8598TIP3   OH247284   2.019   4.406  13.853  0.5368  0.6874 -0.3705
 8598TIP3    H147285   2.106   4.389  13.816 -0.2685  1.3661 -2.7186
 8598TIP3    H247286   1.968   4.328  13.834  0.1584  0.9623 -0.4943
 8599TIP3   OH247287   3.527   5.216  10.674 -0.7210 -0.4236 -0.9911
 8599TIP3    H147288   3.495   5.257  10.755 -0.2496 -0.4143 -0.8030
 8599TIP3    H247289   3.549   5.126  10.700  1.8154  0.2707 -0.4699
 8600TIP3   OH247290   3.375   2.254  16.897  0.3365  0.2082  0.3495
 8600TIP3    H147291   3.397   2.215  16.813 -0.1994  0.1625  0.2268
 8600TIP3    H247292   3.447   2.315  16.915 -0.1683  1.1695 -0.7567
 8601TIP3   OH247293   6.441   5.171  13.745  0.0502 -0.1852  0.3891
 8601TIP3    H147294   6.361   5.133  13.711  0.3332  0.0297 -0.5606
 8601TIP3    H247295   6.491   5.196  13.667  0.3135  1.1921  0.9587
 8602TIP3   OH247296   2.417   6.063   0.426 -0.3784  0.8551  0.1599
 8602TIP3    H147297   2.351   6.132   0.422  1.0306  2.2093 -1.3378
 8602TIP3    H247298   2.478   6.092   0.494 -0.8622 -0.0106  1.0002
 8603TIP3   OH247299   2.561   0.662  13.553  0.3009  1.0234  0.4123
 8603TIP3    H147300   2.611   0.736  13.518  0.6804  0.5285 -0.1149
 8603TIP3    H247301   2.627   0.603  13.588  0.1510  0.0633 -0.8606
 8604TIP3   OH247302   5.360   3.846  16.174 -0.1185 -0.0122 -0.0124
 8604TIP3    H147303   5.288   3.893  16.217  0.1145 -1.1788  1.7661
 8604TIP3    H247304   5.316   3.783  16.117 -0.5140 -0.2990  0.5953
 8605TIP3   OH247305   3.062   0.868  14.468 -0.0161 -0.0727  0.2357
 8605TIP3    H147306   3.120   0.887  14.541  1.4450 -2.2569 -0.2890
 8605TIP3    H247307   3.110   0.897  14.391 -0.2287 -0.5973 -0.0983
 8606TIP3   OH247308   5.657   3.655   1.262 -0.1554  0.0929  0.1375
 8606TIP3    H147309   5.694   3.644   1.350  0.1855  1.7165  0.2331
 8606TIP3    H247310   5.703   3.731   1.226 -0.4260 -0.4358 -1.3892
 8607TIP3   OH247311   3.138   5.671  13.235 -0.1227 -0.0014  0.2685
 8607TIP3    H147312   3.053   5.679  13.278 -0.1893 -1.0363  0.3487
 8607TIP3    H247313   3.123   5.697  13.144  0.3057  3.6271  1.0773
 8608TIP3   OH247314   1.785   3.919  10.642  0.2328 -0.3689 -0.9403
 8608TIP3    H147315   1.812   3.991  10.698 -0.1839 -0.7582 -0.2291
 8608TIP3    H247316   1.862   3.901  10.588  1.0045 -0.6935  0.2341
 8609TIP3   OH247317   5.544   1.581  13.670  0.4710  0.1311  0.0323
 8609TIP3    H147318   5.590   1.600  13.752 -0.6966 -1.2911  1.0757
 8609TIP3    H247319   5.605   1.527  13.620  1.5111  1.6788 -0.4223
 8610TIP3   OH247320   2.940   4.763   0.554  0.8759 -0.2617  0.0215
 8610TIP3    H147321   2.977   4.681   0.586  1.1580  0.0760  0.6001
 8610TIP3    H247322   2.945   4.822   0.630  3.2734  1.1524 -1.1047
 8611TIP3   OH247323   4.850   3.803  13.483 -0.1950  0.0355  0.2536
 8611TIP3    H147324   4.758   3.807  13.509  0.0973  0.4447  1.2798
 8611TIP3    H247325   4.891   3.877  13.529  0.6149 -0.0395 -0.3290
 8612TIP3   OH247326   3.749   0.942  11.130  0.1833  0.9949  0.0812
 8612TIP3    H147327   3.739   0.851  11.159  2.8957  0.1248 -1.3421
 8612TIP3    H247328   3.681   0.990  11.177 -1.8672 -1.8664  0.2990
 8613TIP3   OH247329   2.219   2.291  12.930  0.4152  0.2172  0.5873
 8613TIP3    H147330   2.247   2.260  12.844  0.0392  0.7738  0.2613
 8613TIP3    H247331   2.266   2.235  12.992 -1.6786 -2.3633  0.0372
 8614TIP3   OH247332   3.764   5.823  13.169 -0.5624  0.1670  0.1473
 8614TIP3    H147333   3.758   5.814  13.264 -2.4068  1.0615  0.1589
 8614TIP3    H247334   3.710   5.899  13.149  0.5858  0.6019 -1.5393
 8615TIP3   OH247335   6.596   0.769   3.092  0.0767  0.3430  0.0059
 8615TIP3    H147336   6.572   0.717   3.016 -0.6537  0.7746 -0.0732
 8615TIP3    H247337   6.563   0.857   3.072 -0.1879  0.4455  0.8428
 8616TIP3   OH247338   4.285   1.976   5.900 -1.3634  0.3400 -0.7142
 8616TIP3    H147339   4.278   2.064   5.936  0.9667  0.2807  0.0460
 8616TIP3    H247340   4.357   1.981   5.837 -0.7157 -1.1413 -0.1422
 8617TIP3   OH247341   6.222   0.339   0.208  0.0167  0.2124 -0.0592
 8617TIP3    H147342   6.256   0.421   0.244  0.1815 -0.2197  0.7810
 8617TIP3    H247343   6.166   0.304   0.277  0.8695 -0.9684  0.0511
 8618TIP3   OH247344   1.064   4.221   1.758  0.5585  0.1756 -0.0146
 8618TIP3    H147345   1.109   4.153   1.707  1.6612  1.1337 -0.3717
 8618TIP3    H247346   1.017   4.272   1.693  3.7635  2.7860 -0.5196
 8619TIP3   OH247347   0.634   1.340  16.898 -0.1831 -0.1821 -0.4031
 8619TIP3    H147348   0.613   1.363  16.808  0.2468 -0.7877 -0.6631
 8619TIP3    H247349   0.704   1.401  16.922  0.7234 -0.9816 -0.9774
 8620TIP3   OH247350   6.479   1.003   2.417 -0.1960  0.1419  0.1804
 8620TIP3    H147351   6.401   0.983   2.365  0.6001 -0.6315 -0.7506
 8620TIP3    H247352   6.447   1.007   2.507 -1.4049  0.3780 -0.2305
 8621TIP3   OH247353   6.294   5.052   0.212  0.0019 -0.4879 -0.0460
 8621TIP3    H147354   6.359   5.092   0.155  0.9928 -0.8607  0.8021
 8621TIP3    H247355   6.313   4.958   0.208 -0.2896 -0.5719  0.4446
 8622TIP3   OH247356   5.555   4.915  16.822 -0.4702 -0.0899 -0.2399
 8622TIP3    H147357   5.585   4.996  16.781  1.1898  0.1661  1.3420
 8622TIP3    H247358   5.600   4.846  16.775  1.4654  0.2054  1.0724
 8623TIP3   OH247359   4.636   4.343  10.505  0.2688 -0.1457 -0.4371
 8623TIP3    H147360   4.584   4.377  10.432 -0.2814 -1.1277 -0.5212
 8623TIP3    H247361   4.636   4.248  10.492 -0.2819 -0.3904  1.1276
 8624TIP3   OH247362   4.019   6.589  12.888  0.7854 -0.4489  0.4078
 8624TIP3    H147363   3.926   6.614  12.891  0.9032  0.0724 -0.1005
 8624TIP3    H247364   4.018   6.495  12.874  0.3141 -0.1561 -1.8249
 8625TIP3   OH247365   5.340   1.230   0.312  0.2301 -0.1338  0.1651
 8625TIP3    H147366   5.257   1.190   0.286  0.0500  0.8234 -0.8235
 8625TIP3    H247367   5.398   1.156   0.331 -0.1297 -0.8711 -1.4741
 8626TIP3   OH247368   4.043   5.190   0.105  0.0799 -0.5973  0.0604
 8626TIP3    H147369   4.097   5.158   0.178  0.5015 -0.3217 -0.1267
 8626TIP3    H247370   4.059   5.127   0.034  0.1505 -0.5210  0.0084
 8627TIP3   OH247371   6.650   3.959  12.748  0.6165 -0.2490 -0.1729
 8627TIP3    H147372   6.657   3.932  12.840 -0.2657 -1.0363 -0.3148
 8627TIP3    H247373   6.676   4.051  12.748  0.3720 -0.1600  0.9160
 8628TIP3   OH247374   1.561   5.531  12.037  0.2480  0.0135 -0.3573
 8628TIP3    H147375   1.643   5.553  11.993  0.4594 -1.3216 -0.6740
 8628TIP3    H247376   1.495   5.535  11.969  0.5569 -1.9325 -0.8582
 8629TIP3   OH247377   2.989   0.599   1.960 -0.5829 -0.0128 -0.1200
 8629TIP3    H147378   2.952   0.635   1.879 -3.3110 -0.4789  0.8173
 8629TIP3    H247379   2.946   0.648   2.030  1.3591  0.0403  1.1206
 8630TIP3   OH247380   6.308   6.209  11.596  0.3658 -0.0951  0.1426
 8630TIP3    H147381   6.312   6.115  11.614  1.1093  0.2502  2.0529
 8630TIP3    H247382   6.381   6.225  11.536  0.6515 -0.6334  0.3364
 8631TIP3   OH247383   5.819   4.195   1.614 -0.8526 -0.1663  0.0653
 8631TIP3    H147384   5.733   4.188   1.657 -1.0955  0.5625 -0.2890
 8631TIP3    H247385   5.809   4.148   1.532 -1.2412  0.7739 -0.4470
 8632TIP3   OH247386   2.737   5.628   3.470 -0.0842 -0.4708 -0.4271
 8632TIP3    H147387   2.682   5.602   3.544  0.3167 -0.2600 -0.0523
 8632TIP3    H247388   2.746   5.723   3.478  0.2212 -0.4870 -0.5611
 8633TIP3   OH247389   4.328   0.802   3.471  0.5189 -0.2682  0.1458
 8633TIP3    H147390   4.262   0.732   3.471 -0.6500  0.7861  1.3903
 8633TIP3    H247391   4.400   0.767   3.524  2.1234 -2.3482 -3.0591
 8634TIP3   OH247392   1.454   0.231  11.509  0.2560 -0.6589  0.3297
 8634TIP3    H147393   1.498   0.146  11.507  2.5378  0.4211  0.7077
 8634TIP3    H247394   1.478   0.269  11.593 -0.8402  0.3025  0.2314
 8635TIP3   OH247395   5.505   0.556   4.730 -0.0817  0.2230 -0.1902
 8635TIP3    H147396   5.417   0.520   4.744  0.1596  0.2023  1.5287
 8635TIP3    H247397   5.507   0.580   4.637 -1.4879 -0.8490 -0.5278
 8636TIP3   OH247398   0.639   2.710   2.923 -0.0343 -0.2870  0.1190
 8636TIP3    H147399   0.651   2.782   2.984  1.4248  0.4299 -0.9761
 8636TIP3    H247400   0.692   2.639   2.958  3.6002  1.1802 -1.9271
 8637TIP3   OH247401   1.077   6.499  13.930  0.2118 -0.6156  0.3328
 8637TIP3    H147402   0.993   6.485  13.974  0.4489 -3.1303  0.1135
 8637TIP3    H247403   1.065   6.459  13.844  1.0067  0.8278 -0.4680
 8638TIP3   OH247404   5.247   0.741   0.301  0.2405  0.3773  0.0589
 8638TIP3    H147405   5.235   0.728   0.395 -0.0277 -0.5829 -0.0909
 8638TIP3    H247406   5.319   0.682   0.277 -1.1961 -1.1798 -0.7043
 8639TIP3   OH247407   1.201   1.063   0.909  0.9442  0.5183  0.2365
 8639TIP3    H147408   1.172   1.142   0.863 -0.1777  0.2704  0.4842
 8639TIP3    H247409   1.188   0.992   0.846  0.9398  0.3925  0.3783
 8640TIP3   OH247410   1.100   4.367  16.396  0.0012  0.2894 -0.0947
 8640TIP3    H147411   1.100   4.423  16.319  0.7748 -0.6544 -0.8043
 8640TIP3    H247412   1.090   4.278  16.361 -1.2054 -0.0299  1.0043
 8641TIP3   OH247413   1.291   0.391  16.712  0.0604  0.3460 -0.3262
 8641TIP3    H147414   1.274   0.352  16.798  0.0969  1.6185  0.2885
 8641TIP3    H247415   1.384   0.415  16.716 -0.3421  1.9872 -0.0221
 8642TIP3   OH247416   4.139   0.511  14.466 -0.4368 -0.4550 -0.4626
 8642TIP3    H147417   4.089   0.472  14.538 -0.9861 -0.3543 -0.7855
 8642TIP3    H247418   4.189   0.439  14.428  2.9359  0.0745  2.4315
 8643TIP3   OH247419   1.777   4.387   4.521  0.4111 -0.0305  0.8785
 8643TIP3    H147420   1.848   4.343   4.568  2.0492  1.8072  0.2477
 8643TIP3    H247421   1.741   4.449   4.584 -0.0966 -0.3719  0.9320
 8644TIP3   OH247422   3.590   1.718  16.446  0.1802  0.2724  0.6573
 8644TIP3    H147423   3.686   1.725  16.446  0.2434 -0.3870  1.2027
 8644TIP3    H247424   3.561   1.779  16.379  1.0762 -0.6240 -0.5882
 8645TIP3   OH247425   1.741   1.170  11.212  0.1564  0.1433 -0.4065
 8645TIP3    H147426   1.804   1.184  11.282  0.1011 -0.4820 -0.2211
 8645TIP3    H247427   1.687   1.249  11.211 -1.1791 -0.6602  1.6733
 8646TIP3   OH247428   2.192   6.161  15.729  0.5748  0.2435 -0.2616
 8646TIP3    H147429   2.174   6.123  15.816  0.0830  1.8305  0.3656
 8646TIP3    H247430   2.188   6.087  15.669  0.5976 -0.8424  1.0276
 8647TIP3   OH247431   2.237   0.276   1.555 -0.9267  0.1607  0.4991
 8647TIP3    H147432   2.166   0.238   1.606 -0.9274 -0.7444 -0.1617
 8647TIP3    H247433   2.193   0.334   1.492 -1.1458 -0.8435 -0.2999
 8648TIP3   OH247434   3.265   5.128  13.451 -0.2288 -0.0682 -0.9181
 8648TIP3    H147435   3.349   5.171  13.434 -1.3603  3.2961  0.9639
 8648TIP3    H247436   3.209   5.154  13.378 -0.6317  0.8738 -0.2905
 8649TIP3   OH247437   5.198   6.568  12.708 -0.3184  0.7604  0.1425
 8649TIP3    H147438   5.257   6.642  12.690  1.7822 -0.6281  0.9065
 8649TIP3    H247439   5.250   6.509  12.763 -1.5665 -1.7084 -1.1646
 8650TIP3   OH247440   0.836   2.852   2.689  0.0790  0.3403 -1.1432
 8650TIP3    H147441   0.750   2.850   2.648 -0.6244  1.7929  0.1996
 8650TIP3    H247442   0.896   2.871   2.617 -0.9740  1.5123 -1.7443
 8651TIP3   OH247443   0.957   6.731  11.504 -0.2828  0.0701 -0.1544
 8651TIP3    H147444   1.038   6.779  11.523 -0.1814 -0.6983  1.5333
 8651TIP3    H247445   0.888   6.796  11.513  0.1229  0.8211 -1.9511
 8652TIP3   OH247446   4.898   1.880  15.121  0.0797 -0.7695 -0.2975
 8652TIP3    H147447   4.848   1.942  15.069  1.0037  0.1637 -0.1089
 8652TIP3    H247448   4.972   1.857  15.066  1.4465  0.7566  0.7952
 8653TIP3   OH247449   3.331   5.942  16.293  0.3984 -0.0112  0.0929
 8653TIP3    H147450   3.243   5.979  16.286 -0.4803 -1.4662  2.4610
 8653TIP3    H247451   3.375   5.997  16.358  1.5766  1.1458 -1.5768
 8654TIP3   OH247452   3.033   4.904  11.364 -0.1067  0.0729 -0.5619
 8654TIP3    H147453   3.063   4.867  11.447  2.2254 -0.4614 -1.5584
 8654TIP3    H247454   2.952   4.857  11.345  0.6812 -1.6764  0.1572
 8655TIP3   OH247455   3.333   3.101  12.129  0.5463  0.1547  0.1551
 8655TIP3    H147456   3.305   3.174  12.074  0.0560  1.0024  1.4701
 8655TIP3    H247457   3.265   3.034  12.117 -0.8416  1.2559  1.4825
 8656TIP3   OH247458   3.911   2.796   1.049 -0.3204  0.0862  0.1160
 8656TIP3    H147459   3.961   2.828   0.973  0.1372 -0.6478  0.0920
 8656TIP3    H247460   3.973   2.739   1.095 -0.8739 -0.1581  0.5610
 8657TIP3   OH247461   5.285   1.269   3.459  0.0583  0.4353  0.0546
 8657TIP3    H147462   5.298   1.363   3.449 -2.0705  0.8244  0.5522
 8657TIP3    H247463   5.195   1.254   3.430  0.1266 -1.3398  0.6631
 8658TIP3   OH247464   2.323   6.417  12.424  0.2619  0.1482  0.0928
 8658TIP3    H147465   2.235   6.391  12.451  0.6691 -1.2438  0.1813
 8658TIP3    H247466   2.377   6.399  12.501  0.5530  1.5020  0.2240
 8659TIP3   OH247467   2.488   5.128   0.789 -0.3152 -0.6576  0.1472
 8659TIP3    H147468   2.564   5.098   0.740  0.3296 -1.4180  1.5474
 8659TIP3    H247469   2.444   5.189   0.731  2.2303  1.0437 -0.1354
 8660TIP3   OH247470   4.432   2.997  11.156 -0.1994  0.1731 -0.2472
 8660TIP3    H147471   4.341   3.027  11.147 -0.2459 -0.1573 -0.9387
 8660TIP3    H247472   4.452   2.957  11.072 -0.2540 -2.0578  0.7561
 8661TIP3   OH247473   3.075   3.942   0.647  0.0277  0.0134 -0.6670
 8661TIP3    H147474   3.136   3.977   0.711  0.1385  0.8125 -1.1995
 8661TIP3    H247475   3.018   3.883   0.697  1.3315 -0.8740 -0.1946
 8662TIP3   OH247476   1.060   4.132   0.133  0.3147 -0.3259  0.1855
 8662TIP3    H147477   1.013   4.170   0.059  0.6331  0.0691  0.1768
 8662TIP3    H247478   1.018   4.048   0.149 -2.2131  1.1070  1.8926
 8663TIP3   OH247479   4.724   0.536   2.968  0.1060  0.3314 -0.1078
 8663TIP3    H147480   4.700   0.564   2.879  1.9011 -0.8082 -1.0218
 8663TIP3    H247481   4.712   0.441   2.967  1.9395  0.0522  0.2031
 8664TIP3   OH247482   2.786   6.102  12.996  0.1697  1.1165  0.5553
 8664TIP3    H147483   2.784   6.136  13.085 -0.6202  0.8928  0.6321
 8664TIP3    H247484   2.704   6.133  12.957 -1.5513 -2.1557  1.2049
 8665TIP3   OH247485   0.778   5.898   5.549  0.0577  0.0427 -0.0413
 8665TIP3    H147486   0.842   5.851   5.603 -0.2232 -1.6195 -1.0629
 8665TIP3    H247487   0.694   5.880   5.592  0.0783  0.7378  0.3012
 8666TIP3   OH247488   6.664   2.030   5.292 -0.2387  0.1058 -0.2288
 8666TIP3    H147489   6.685   1.938   5.305  0.5424  0.5513  2.0625
 8666TIP3    H247490   6.620   2.057   5.372  1.3771  2.1933  0.0738
 8667TIP3   OH247491   5.403   1.144  11.399 -0.6626  0.5117  0.4321
 8667TIP3    H147492   5.466   1.144  11.326  0.2068  1.2811  1.1517
 8667TIP3    H247493   5.407   1.055  11.433 -0.7295  0.2718 -0.1723
 8668TIP3   OH247494   0.725   4.597  14.896  0.1942 -0.0347  0.0751
 8668TIP3    H147495   0.803   4.544  14.881 -0.5242 -1.2843  0.6417
 8668TIP3    H247496   0.708   4.589  14.990 -1.1892 -0.6229 -0.2060
 8669TIP3   OH247497   0.821   2.997  10.805  0.4350  0.5515 -0.6280
 8669TIP3    H147498   0.832   3.025  10.713  3.2715 -1.0827 -0.9211
 8669TIP3    H247499   0.763   2.921  10.800  0.4947  0.5281 -1.0631
 8670TIP3   OH247500   0.395   1.288  12.604 -0.2986  0.2062  0.0874
 8670TIP3    H147501   0.381   1.243  12.520  0.6317  1.7456 -0.9568
 8670TIP3    H247502   0.313   1.336  12.618 -0.5956 -0.3410  0.2587
 8671TIP3   OH247503   3.053   3.542   5.053 -0.2553 -0.1914 -0.1898
 8671TIP3    H147504   3.113   3.612   5.077 -1.1462  0.6859 -0.4818
 8671TIP3    H247505   2.992   3.536   5.127 -1.1674  0.4647 -0.8672
 8672TIP3   OH247506   5.150   5.284   6.101 -0.0909  0.1651  0.1188
 8672TIP3    H147507   5.213   5.348   6.066 -0.8985  1.0104  0.1801
 8672TIP3    H247508   5.145   5.216   6.034  0.4807  0.3587 -0.1300
 8673TIP3   OH247509   5.923   3.287   5.802 -0.0445  0.5803 -0.3421
 8673TIP3    H147510   5.957   3.271   5.714  1.4755  0.8082  0.1703
 8673TIP3    H247511   5.871   3.209   5.822 -0.9219  0.8037 -1.6624
 8674TIP3   OH247512   6.402   5.313   0.725  0.2779  0.0586  0.3793
 8674TIP3    H147513   6.433   5.402   0.715  1.6159 -0.3071  1.0523
 8674TIP3    H247514   6.364   5.291   0.640  0.8166  0.9303 -0.1011
 8675TIP3   OH247515   6.775   2.443  12.532  0.2529 -0.1984 -0.0417
 8675TIP3    H147516   6.744   2.529  12.502  2.9490  0.8295 -0.1189
 8675TIP3    H247517   6.773   2.389  12.453  2.3265  0.9973 -0.9806
 8676TIP3   OH247518   6.327   5.389   0.046  0.4038 -0.3906 -0.4473
 8676TIP3    H147519   6.390   5.397   0.118 -0.7280 -0.4536  0.5835
 8676TIP3    H247520   6.379   5.357  -0.027  1.8257  0.8143 -0.0101
 8677TIP3   OH247521   4.860   0.390  16.156 -0.2581  0.1872  0.2362
 8677TIP3    H147522   4.874   0.332  16.231  0.8015 -0.0306 -0.1111
 8677TIP3    H247523   4.899   0.344  16.082 -2.5573 -0.2506 -0.7626
 8678TIP3   OH247524   6.378   5.786   1.575 -0.6424 -0.0301 -0.0547
 8678TIP3    H147525   6.311   5.783   1.507 -0.9094 -2.5053  0.2212
 8678TIP3    H247526   6.330   5.774   1.657  0.0226 -1.0731  0.2054
 8679TIP3   OH247527   5.317   1.084  12.649 -0.1580 -0.4401 -0.4764
 8679TIP3    H147528   5.291   1.061  12.560  1.4946  1.2895 -1.4825
 8679TIP3    H247529   5.316   1.180  12.651  2.7740 -0.3344  0.3621
 8680TIP3   OH247530   1.627   0.439   2.257  0.4894 -0.2328 -0.6310
 8680TIP3    H147531   1.617   0.534   2.265  1.2708 -0.1333 -0.7659
 8680TIP3    H247532   1.701   0.427   2.198  1.3955 -0.9152  0.5782
 8681TIP3   OH247533   0.242   5.975  14.234 -0.1079  0.2979 -0.5574
 8681TIP3    H147534   0.162   6.011  14.271  0.0124 -0.4064  0.4265
 8681TIP3    H247535   0.212   5.906  14.175 -0.2428  0.2968 -0.4883
 8682TIP3   OH247536   6.746   4.720   2.253 -0.4332 -0.2588  0.6799
 8682TIP3    H147537   6.839   4.698   2.263  0.1172  0.3429 -2.2653
 8682TIP3    H247538   6.744   4.815   2.257 -0.7205 -0.2084 -0.4938
 8683TIP3   OH247539   1.229   5.589   1.972  0.1921 -0.3474  0.2088
 8683TIP3    H147540   1.193   5.582   2.061 -0.0989  2.5068  0.4196
 8683TIP3    H247541   1.290   5.663   1.977  2.2770 -1.8529 -1.3836
 8684TIP3   OH247542   3.110   0.989   4.984 -0.6042  0.6724  0.0897
 8684TIP3    H147543   3.051   1.017   4.914 -0.6753  1.3037  0.3973
 8684TIP3    H247544   3.128   0.897   4.964 -0.6984  0.8170 -0.6999
 8685TIP3   OH247545   3.583   3.844   3.221  0.1849  0.0863  0.6075
 8685TIP3    H147546   3.614   3.828   3.310  0.5401 -3.0173  0.0491
 8685TIP3    H247547   3.490   3.864   3.231  0.1530 -0.5023  1.6872
 8686TIP3   OH247548   5.444   0.686  15.989  0.2762  0.5053  0.1582
 8686TIP3    H147549   5.496   0.760  15.957  1.0790  0.0087  0.2926
 8686TIP3    H247550   5.473   0.612  15.935  0.1831  0.0902  0.6761
 8687TIP3   OH247551   4.834   6.215  13.228  0.3727  0.1799  0.2875
 8687TIP3    H147552   4.863   6.306  13.228 -1.8217  0.9603  2.2059
 8687TIP3    H247553   4.740   6.219  13.242 -0.0879 -2.3675 -1.3408
 8688TIP3   OH247554   4.972   6.851  11.817 -1.0653  0.0506  0.1887
 8688TIP3    H147555   5.029   6.884  11.747 -0.0012 -1.5931  0.2222
 8688TIP3    H247556   4.979   6.916  11.887  2.3972 -0.9385  0.9820
 8689TIP3   OH247557   0.737   0.979  11.973 -0.4743  0.2588  0.0612
 8689TIP3    H147558   0.778   0.895  11.995 -0.6063  0.2668  0.3453
 8689TIP3    H247559   0.783   1.043  12.029  0.0286  0.4659 -0.5732
 8690TIP3   OH247560   0.989   5.561   4.650 -0.2699  0.0156  0.0522
 8690TIP3    H147561   0.917   5.602   4.602  1.4217  0.2324 -2.4916
 8690TIP3    H247562   1.054   5.631   4.660 -0.1239 -0.3154  1.8201
 8691TIP3   OH247563   2.264   2.080  15.301  0.9351 -0.2041  0.4776
 8691TIP3    H147564   2.176   2.113  15.319  0.4332 -1.8407  1.3272
 8691TIP3    H247565   2.290   2.037  15.383  1.5380 -1.7789 -0.4922
 8692TIP3   OH247566   4.523   3.342   2.635 -0.7690  0.5385 -0.0404
 8692TIP3    H147567   4.549   3.284   2.706 -0.4303  0.6796 -0.0451
 8692TIP3    H247568   4.515   3.429   2.675  0.8656  0.9107 -0.4337
 8693TIP3   OH247569   4.286   6.812  13.940  0.1361  0.1583 -0.1689
 8693TIP3    H147570   4.225   6.880  13.912 -2.2950 -1.4055  0.9816
 8693TIP3    H247571   4.268   6.738  13.882  0.1041 -0.7230  0.9384
 8694TIP3   OH247572   0.580   5.720   4.755  0.5117 -0.0034  0.6283
 8694TIP3    H147573   0.499   5.725   4.705 -0.3672 -0.8246  1.8996
 8694TIP3    H247574   0.644   5.768   4.702 -0.7456  0.5086 -0.4941
 8695TIP3   OH247575   5.181   4.676  11.911 -0.4546  0.6819 -0.3659
 8695TIP3    H147576   5.276   4.670  11.925 -0.4867 -1.0359 -0.6774
 8695TIP3    H247577   5.166   4.625  11.831 -1.7072  0.4677 -0.0061
 8696TIP3   OH247578   1.373   4.873  12.212  0.2076  0.1000  0.3742
 8696TIP3    H147579   1.296   4.867  12.268 -0.3577  0.3192 -0.3574
 8696TIP3    H247580   1.432   4.932  12.259 -0.4657  0.6815  0.5075
 8697TIP3   OH247581   4.076   4.924   5.712 -0.1830  0.1140  0.3000
 8697TIP3    H147582   3.999   4.963   5.670  0.6687  0.1289 -1.3567
 8697TIP3    H247583   4.105   4.989   5.775  0.8732  2.0467 -1.9975
 8698TIP3   OH247584   4.341   2.854   0.239  0.0223 -0.4207 -0.6028
 8698TIP3    H147585   4.344   2.856   0.144 -1.0919 -0.5216 -0.6617
 8698TIP3    H247586   4.362   2.764   0.263  1.8744 -0.0251 -0.6531
 8699TIP3   OH247587   6.369   2.454  13.711 -0.3665 -0.3945  0.0558
 8699TIP3    H147588   6.461   2.466  13.687 -0.4013 -0.5822 -0.1783
 8699TIP3    H247589   6.321   2.507  13.646 -0.4951 -1.3583 -0.6625
 8700TIP3   OH247590   5.318   6.436  16.692  0.3521 -0.0197 -0.3151
 8700TIP3    H147591   5.285   6.482  16.615  0.8577 -0.0142 -0.5331
 8700TIP3    H247592   5.364   6.503  16.743  0.5205 -0.1447 -0.3020
 8701TIP3   OH247593   4.841   3.268   4.674 -0.1025 -0.3773  0.1560
 8701TIP3    H147594   4.912   3.203   4.675 -0.1917 -0.4835 -0.2704
 8701TIP3    H247595   4.877   3.342   4.625 -0.7612 -0.9865 -1.3034
 8702TIP3   OH247596   5.491   3.788  11.613  0.3356  0.0443  0.0588
 8702TIP3    H147597   5.487   3.807  11.519 -0.1155 -1.3937 -0.2302
 8702TIP3    H247598   5.438   3.858  11.653 -0.7611 -0.1922 -0.9066
 8703TIP3   OH247599   2.399   2.123   4.394 -0.4651 -0.1603 -0.0956
 8703TIP3    H147600   2.461   2.173   4.447 -0.9759  1.5499 -1.0345
 8703TIP3    H247601   2.453   2.069   4.337  0.1881  1.0814 -0.6874
 8704TIP3   OH247602   3.079   6.532  13.791  0.6772  0.4689  0.0889
 8704TIP3    H147603   3.171   6.521  13.817  0.5344 -0.2328  0.3311
 8704TIP3    H247604   3.078   6.613  13.740  1.2593  0.9884  0.8765
 8705TIP3   OH247605   0.936   4.012  15.163 -0.1040  0.0733  0.2461
 8705TIP3    H147606   0.928   3.918  15.147 -2.9325  0.0803  1.1138
 8705TIP3    H247607   0.939   4.051  15.076  2.2372 -0.7847 -0.1547
 8706TIP3   OH247608   6.485   5.513   1.973  0.2860 -0.3217  0.3341
 8706TIP3    H147609   6.442   5.487   2.054 -1.5438 -0.1493 -0.5462
 8706TIP3    H247610   6.450   5.600   1.954  0.1183 -0.6719 -1.0294
 8707TIP3   OH247611   2.369   0.077   3.197  0.5097 -0.6128 -0.2877
 8707TIP3    H147612   2.292   0.133   3.181  1.1404  0.1625 -0.6922
 8707TIP3    H247613   2.340  -0.011   3.175 -0.9775 -0.7210  1.7579
 8708TIP3   OH247614   6.577   6.382   4.818  0.5311  0.1790 -0.4401
 8708TIP3    H147615   6.666   6.391   4.851  0.0926  2.7034  0.2510
 8708TIP3    H247616   6.578   6.429   4.734 -0.0754 -0.0755 -0.5969
 8709TIP3   OH247617   2.328   3.339   4.253 -0.2892  0.9538  0.0042
 8709TIP3    H147618   2.375   3.422   4.262 -1.6489  1.5138  3.9306
 8709TIP3    H247619   2.249   3.350   4.307 -2.1455 -1.8469 -1.8659
 8710TIP3   OH247620   1.868   6.344   3.536 -0.1647  0.1703 -0.5266
 8710TIP3    H147621   1.898   6.333   3.446  1.1308 -0.2088 -0.0694
 8710TIP3    H247622   1.886   6.436   3.557 -0.1245  0.1640 -0.5333
 8711TIP3   OH247623   6.781   0.889   4.511  0.4929  0.4351 -0.0246
 8711TIP3    H147624   6.823   0.820   4.561  0.2429  0.7783  0.6742
 8711TIP3    H247625   6.687   0.869   4.514  0.5144  0.1698 -0.8105
 8712TIP3   OH247626   1.316   0.784  10.782  0.6297  0.2099  0.6806
 8712TIP3    H147627   1.287   0.709  10.730  0.7793 -0.7732  1.9914
 8712TIP3    H247628   1.407   0.798  10.756  0.2692  0.6600 -0.3832
 8713TIP3   OH247629   6.507   2.632   2.683 -0.1164 -0.4043  0.3385
 8713TIP3    H147630   6.512   2.577   2.761 -0.5521 -0.2623  0.4671
 8713TIP3    H247631   6.588   2.683   2.685 -0.0640 -0.4955  0.6300
 8714TIP3   OH247632   2.603   5.691   4.316 -0.0158  0.4519 -0.3548
 8714TIP3    H147633   2.583   5.755   4.385  1.0787  0.1477  0.2598
 8714TIP3    H247634   2.655   5.740   4.252 -0.8611  0.6806 -0.8839
 8715TIP3   OH247635   4.932   1.750   1.548 -0.9155 -0.0664  0.4023
 8715TIP3    H147636   4.944   1.806   1.624  0.9209 -0.1863  0.2440
 8715TIP3    H247637   4.955   1.805   1.473  0.6478 -0.8932  0.2287
 8716TIP3   OH247638   2.039   4.317   5.154 -0.6358 -0.1004  0.4230
 8716TIP3    H147639   2.005   4.332   5.242 -1.7452  0.2347 -0.0544
 8716TIP3    H247640   1.977   4.257   5.113  0.7112 -1.5227  0.3720
 8717TIP3   OH247641   6.379   2.238   2.367 -0.3397 -0.3702  0.0823
 8717TIP3    H147642   6.332   2.265   2.446 -0.5266  0.3883 -0.2879
 8717TIP3    H247643   6.465   2.209   2.400 -0.3742  0.0497  0.5496
 8718TIP3   OH247644   1.905   1.840   0.106 -0.0937 -0.5949 -0.0818
 8718TIP3    H147645   1.818   1.833   0.066 -1.0715  0.9969  1.6310
 8718TIP3    H247646   1.918   1.933   0.120  2.0667 -0.7736 -0.5453
 8719TIP3   OH247647   6.397   2.844   5.479 -0.6888 -0.3863 -0.1834
 8719TIP3    H147648   6.375   2.786   5.406  2.5709 -2.6508  0.3976
 8719TIP3    H247649   6.381   2.791   5.557 -0.3240  0.5165  0.5131
 8720TIP3   OH247650   1.166   0.937  16.389 -0.2906 -0.0774 -0.3185
 8720TIP3    H147651   1.166   1.004  16.456 -3.1905 -0.2335 -0.0607
 8720TIP3    H247652   1.200   0.981  16.311 -2.0853  1.7178 -0.1462
 8721TIP3   OH247653   0.184   3.694   5.935  0.0869 -1.1084  0.0943
 8721TIP3    H147654   0.175   3.750   6.013  1.0148 -0.3481 -0.3286
 8721TIP3    H247655   0.270   3.654   5.945  1.7794  1.6127 -2.1443
 8722TIP3   OH247656   6.089   2.934   3.912  0.3832 -0.1712 -0.1390
 8722TIP3    H147657   6.172   2.937   3.960  1.5621  0.0003 -2.0885
 8722TIP3    H247658   6.055   3.023   3.916  2.5941  0.9723 -3.0078
 8723TIP3   OH247659   0.334   6.779   3.291 -0.3525  0.7187  0.3525
 8723TIP3    H147660   0.342   6.703   3.234  1.1041  0.2143  1.2000
 8723TIP3    H247661   0.311   6.744   3.377  0.4079  1.2133  0.7720
 8724TIP3   OH247662   3.615   0.644  11.033  0.6697  0.2030  0.1377
 8724TIP3    H147663   3.589   0.575  10.973 -1.8644  1.5939 -0.5126
 8724TIP3    H247664   3.625   0.600  11.118 -0.1744 -1.0712 -0.3926
 8725TIP3   OH247665   0.207   6.562  14.151  0.0957 -0.0632  0.0521
 8725TIP3    H147666   0.224   6.498  14.220  0.6617 -1.3279 -1.2028
 8725TIP3    H247667   0.231   6.646  14.189 -1.1192 -0.4895  1.9164
 8726TIP3   OH247668   2.787   2.839   6.191 -0.1894 -0.9796  0.9732
 8726TIP3    H147669   2.705   2.888   6.196  1.3286  2.1716 -1.2780
 8726TIP3    H247670   2.789   2.804   6.102  1.6141  0.6649  0.2716
 8727TIP3   OH247671   1.619   0.847  13.894  0.3248  0.7397 -0.6699
 8727TIP3    H147672   1.690   0.801  13.849  1.5399  1.1060  0.8007
 8727TIP3    H247673   1.662   0.896  13.963 -1.4845 -0.0451  1.1199
 8728TIP3   OH247674   2.048   4.946  14.378  0.1434 -0.3254 -0.1185
 8728TIP3    H147675   2.070   4.955  14.471  0.3616  0.7695 -0.2593
 8728TIP3    H247676   2.011   4.858  14.371 -1.6703  0.2413  1.3689
 8729TIP3   OH247677   3.821   6.532   5.782  0.8784 -0.3350  0.5451
 8729TIP3    H147678   3.770   6.468   5.832 -0.1754 -0.1977 -0.3112
 8729TIP3    H247679   3.909   6.495   5.778  0.3103 -1.7073  0.1346
 8730TIP3   OH247680   3.496   1.483   0.726  0.0804 -0.1022 -0.8002
 8730TIP3    H147681   3.553   1.553   0.694 -0.1375 -0.8760 -3.0456
 8730TIP3    H247682   3.408   1.522   0.725  0.1750  0.1327 -0.3111
 8731TIP3   OH247683   0.009   2.244  15.758  0.9681 -0.0340 -0.1002
 8731TIP3    H147684  -0.032   2.162  15.785  2.3400 -0.7624 -0.1369
 8731TIP3    H247685  -0.008   2.305  15.830  0.5398 -0.5534  0.2392
 8732TIP3   OH247686   5.740   0.700   6.053  0.0566  0.2017  0.0332
 8732TIP3    H147687   5.763   0.608   6.067  1.5246  0.3665 -1.0530
 8732TIP3    H247688   5.823   0.743   6.035 -0.8109  1.3768 -1.4381
 8733TIP3   OH247689   1.235   2.154  14.855 -0.4184  0.1861  0.4807
 8733TIP3    H147690   1.252   2.185  14.944  0.5418 -1.5376  0.9625
 8733TIP3    H247691   1.301   2.197  14.801 -0.4676  0.5947  0.7416
 8734TIP3   OH247692   3.835   5.300  11.007 -0.4824  0.4359 -0.2289
 8734TIP3    H147693   3.835   5.213  10.968 -0.9713  1.0339 -1.6012
 8734TIP3    H247694   3.888   5.291  11.087  0.9161 -0.7091 -1.2506
 8735TIP3   OH247695   0.447   5.397   3.687 -0.5477 -0.2862 -0.2772
 8735TIP3    H147696   0.456   5.437   3.774  0.8311  0.5999 -0.7929
 8735TIP3    H247697   0.467   5.468   3.626 -1.6977 -0.8456 -1.3487
 8736TIP3   OH247698   0.975   2.924  15.099 -0.0185  0.0431  0.4834
 8736TIP3    H147699   0.912   2.985  15.061  0.0296  0.2636  0.7540
 8736TIP3    H247700   0.959   2.929  15.193  2.3787  2.3902  0.8863
 8737TIP3   OH247701   6.134   2.043   4.263  0.2341 -0.2776 -0.0259
 8737TIP3    H147702   6.145   1.978   4.194  1.5964 -0.2437  0.1398
 8737TIP3    H247703   6.047   2.025   4.299 -0.2063 -0.7319 -1.2866
 8738TIP3   OH247704   5.907   2.289   0.264  0.7377  0.0085 -0.1520
 8738TIP3    H147705   5.867   2.285   0.177  2.0181 -0.5994 -0.7390
 8738TIP3    H247706   5.834   2.271   0.324 -0.3750  1.3993 -1.0077
 8739TIP3   OH247707   5.389   0.946   1.184 -0.1238 -0.3078 -0.3625
 8739TIP3    H147708   5.399   0.965   1.091 -1.0560 -1.3743 -0.6983
 8739TIP3    H247709   5.357   1.028   1.222  2.0911  0.7328 -0.6078
 8740TIP3   OH247710   4.949   0.049  12.500  0.2259  0.2880  0.2318
 8740TIP3    H147711   4.913   0.135  12.480  0.5389  0.0105 -1.8210
 8740TIP3    H247712   4.958   0.007  12.414  3.1229 -0.5571  0.8182
 8741TIP3   OH247713   4.844   6.074   2.565  0.1194 -0.3442  0.0941
 8741TIP3    H147714   4.760   6.073   2.518  0.0839 -2.1883  0.1359
 8741TIP3    H247715   4.910   6.068   2.497  0.1619 -0.3569  0.1369
 8742TIP3   OH247716   5.012   5.782   1.871 -0.7792  0.4555 -0.0001
 8742TIP3    H147717   4.930   5.733   1.869  0.1850 -1.3386  1.4984
 8742TIP3    H247718   5.038   5.782   1.964  0.8392  1.1303 -0.4135
 8743TIP3   OH247719   0.376   3.575  11.042  0.0353  0.0127 -0.0263
 8743TIP3    H147720   0.307   3.612  11.097 -0.5479  0.5958 -1.1141
 8743TIP3    H247721   0.390   3.641  10.974  0.2927 -0.9674 -0.9441
 8744TIP3   OH247722   1.640   1.569   6.370 -0.0888  0.2539  0.0059
 8744TIP3    H147723   1.700   1.497   6.350  0.4482  0.8443 -0.5709
 8744TIP3    H247724   1.607   1.596   6.284 -0.8175  0.2455  0.2809
 8745TIP3   OH247725   2.316   2.725   4.680  0.4419  0.0918 -0.1741
 8745TIP3    H147726   2.373   2.718   4.604  0.1697  0.9110 -0.4619
 8745TIP3    H247727   2.256   2.796   4.659  0.0570  0.0125  0.6091
 8746TIP3   OH247728   3.609   1.966   6.076  0.2531  0.1713 -0.0610
 8746TIP3    H147729   3.617   1.896   6.141  0.2822  0.4461  0.2375
 8746TIP3    H247730   3.699   1.984   6.050  0.1488 -1.0186 -1.3644
 8747TIP3   OH247731   5.888   6.469  15.755  0.3843 -0.7002  0.1905
 8747TIP3    H147732   5.895   6.564  15.746 -1.5049 -0.5355  0.0672
 8747TIP3    H247733   5.977   6.437  15.740  0.6657  0.8741 -2.0520
 8748TIP3   OH247734   1.994   1.487   5.861 -0.2779 -0.0236 -0.2017
 8748TIP3    H147735   2.061   1.442   5.912 -1.0015 -1.1410 -0.1897
 8748TIP3    H247736   1.982   1.571   5.906  1.1630  0.2406 -0.2763
 8749TIP3   OH247737   2.098   4.848   2.002 -0.1958 -0.1938 -0.1438
 8749TIP3    H147738   2.116   4.783   1.934  0.2039 -1.7552  1.3963
 8749TIP3    H247739   2.003   4.846   2.013 -0.1412 -0.9046  0.2460
 8750TIP3   OH247740   2.359   0.736  14.424  0.7935  0.2248 -0.2093
 8750TIP3    H147741   2.360   0.652  14.378  0.9037  0.2697 -0.2881
 8750TIP3    H247742   2.384   0.715  14.514 -0.5281 -0.0419  0.1274
 8751TIP3   OH247743   0.418   6.343   1.304  0.0231  0.2164 -0.5544
 8751TIP3    H147744   0.367   6.424   1.307  1.3971  1.1539 -1.0882
 8751TIP3    H247745   0.487   6.356   1.369  0.6364 -0.2281 -1.0949
 8752TIP3   OH247746   5.558   6.775   0.546 -0.0240 -0.4022 -0.0380
 8752TIP3    H147747   5.492   6.712   0.516 -0.5733 -0.9296  2.0643
 8752TIP3    H247748   5.507   6.843   0.591  0.7256  0.4528 -0.4617
 8753TIP3   OH247749   1.886   3.989  15.543  0.4291 -0.2653  0.2422
 8753TIP3    H147750   1.804   3.994  15.593  0.1529 -0.2078 -0.2147
 8753TIP3    H247751   1.901   3.896  15.530  0.2538 -0.2636  0.0270
 8754TIP3   OH247752   5.632   6.292   2.419  0.0424 -0.1478 -0.2096
 8754TIP3    H147753   5.586   6.256   2.343  2.7059  0.1304 -2.0661
 8754TIP3    H247754   5.642   6.385   2.400  1.9008 -0.3150 -0.1976
 8755TIP3   OH247755   4.221   3.522   5.297 -0.1758 -0.5034  0.0659
 8755TIP3    H147756   4.227   3.445   5.353 -2.2879 -1.4802 -0.9557
 8755TIP3    H247757   4.135   3.559   5.315 -0.8429 -0.7242 -2.3317
 8756TIP3   OH247758   6.728   4.842  15.397 -0.2079 -0.7949 -0.1684
 8756TIP3    H147759   6.782   4.800  15.330 -1.1921 -1.7094 -0.4151
 8756TIP3    H247760   6.758   4.804  15.480  2.8392  2.2137  0.3537
 8757TIP3   OH247761   1.931   6.059   4.469 -0.3498  0.2026 -0.3141
 8757TIP3    H147762   1.902   6.057   4.378  0.8223 -0.1006 -0.6909
 8757TIP3    H247763   1.962   6.148   4.483 -0.6984  0.3012 -0.1468
 8758TIP3   OH247764   0.520   2.808  12.642 -0.0897 -0.1211  0.1403
 8758TIP3    H147765   0.491   2.798  12.552 -0.6819  2.1585  0.0214
 8758TIP3    H247766   0.614   2.823  12.636 -0.2135  0.5841 -0.1783
 8759TIP3   OH247767   5.785   6.282   0.400  0.1911  0.1647 -0.6207
 8759TIP3    H147768   5.817   6.352   0.343  0.4187  0.7261  0.1757
 8759TIP3    H247769   5.716   6.324   0.452  0.8256 -0.0053  0.3678
 8760TIP3   OH247770   3.785   5.871   1.263  0.0130  0.5915 -0.3942
 8760TIP3    H147771   3.723   5.939   1.236 -0.3243  0.4317 -0.0320
 8760TIP3    H247772   3.827   5.843   1.182  1.3497  2.3850 -0.3986
 8761TIP3   OH247773   4.143   5.334   4.838  0.1581 -0.0439  0.0102
 8761TIP3    H147774   4.177   5.330   4.927 -0.7496 -1.3748  0.3160
 8761TIP3    H247775   4.059   5.379   4.847 -1.3347 -2.7000  0.3324
 8762TIP3   OH247776   1.222   0.887  12.550  0.3143 -0.3575  0.2204
 8762TIP3    H147777   1.260   0.915  12.633  0.4019  1.2192 -0.3062
 8762TIP3    H247778   1.298   0.868  12.494  0.3164  0.8742 -0.2168
 8763TIP3   OH247779   5.776   1.401  13.240 -0.0797  0.0150  0.4312
 8763TIP3    H147780   5.702   1.389  13.180 -2.3043  3.8918  2.0056
 8763TIP3    H247781   5.853   1.392  13.185 -1.9241  1.7452 -2.7389
 8764TIP3   OH247782   5.658   5.036   1.058 -0.4970  0.0543  0.3262
 8764TIP3    H147783   5.739   5.083   1.038 -1.1831  0.9003 -0.5162
 8764TIP3    H247784   5.598   5.103   1.090 -0.9979 -0.5053  0.5819
 8765TIP3   OH247785   2.917   3.728  14.037  0.6182  1.0259  0.6142
 8765TIP3    H147786   2.949   3.657  14.093  0.5227 -0.2988 -0.9396
 8765TIP3    H247787   2.926   3.807  14.091  0.7457 -0.1390  2.3979
 8766TIP3   OH247788   0.941   4.790   2.967 -0.2970  0.0670 -0.0176
 8766TIP3    H147789   0.860   4.758   2.926 -1.1605  0.7829  1.0749
 8766TIP3    H247790   0.927   4.775   3.061  1.9923 -2.3728  0.0546
 8767TIP3   OH247791   6.410   5.686   0.173  0.2394 -0.2170  0.3364
 8767TIP3    H147792   6.354   5.657   0.101  1.2762 -1.0597 -0.1505
 8767TIP3    H247793   6.363   5.659   0.252 -0.9282  0.7525  0.0105
 8768TIP3   OH247794   6.030   3.143   1.673 -0.2697  0.0078 -0.4575
 8768TIP3    H147795   5.955   3.086   1.659 -0.8439  0.0165  2.0482
 8768TIP3    H247796   6.081   3.099   1.742  1.2574  0.7264 -1.0761
 8769TIP3   OH247797   0.050   6.597   1.515 -0.2363  0.0322  0.4562
 8769TIP3    H147798   0.098   6.628   1.592 -0.7387  0.7179  0.5098
 8769TIP3    H247799   0.050   6.672   1.455 -0.8016 -0.1232  0.2521
 8770TIP3   OH247800   0.166   1.996  11.895 -0.3587  0.3881 -0.6455
 8770TIP3    H147801   0.216   2.032  11.967 -1.4136  2.2819 -0.7825
 8770TIP3    H247802   0.188   1.903  11.894  1.0466  0.6582  0.9518
 8771TIP3   OH247803   1.566   1.886  15.942  0.1845  0.0328 -0.2271
 8771TIP3    H147804   1.511   1.855  16.014 -1.1339  1.4326 -0.5965
 8771TIP3    H247805   1.562   1.982  15.948  1.3509  0.1675 -1.2005
 8772TIP3   OH247806   5.499   6.215   4.317  0.1122  0.5524  0.2159
 8772TIP3    H147807   5.578   6.196   4.266  1.0757 -2.0209  2.4638
 8772TIP3    H247808   5.519   6.296   4.364  2.0344 -0.7271  1.7399
 8773TIP3   OH247809   1.252   6.529   1.721  0.2488  0.0218 -0.6718
 8773TIP3    H147810   1.297   6.507   1.640  4.6986  0.4953  1.3649
 8773TIP3    H247811   1.264   6.623   1.731 -0.7068  0.0708  0.3037
 8774TIP3   OH247812   6.767   5.150   5.126 -0.2158 -0.2813  0.0095
 8774TIP3    H147813   6.767   5.137   5.031  1.2929 -0.8412  0.0601
 8774TIP3    H247814   6.788   5.064   5.162  3.4561  0.7287  0.6321
 8775TIP3   OH247815   4.101   6.578  16.452  0.2722 -0.4683  0.6194
 8775TIP3    H147816   4.037   6.642  16.484  0.6060  0.0049  0.3517
 8775TIP3    H247817   4.049   6.517  16.399 -0.4074 -1.6849  2.5888
 8776TIP3   OH247818   5.870   4.354  16.217 -0.0871  0.0260 -0.3110
 8776TIP3    H147819   5.882   4.380  16.126 -1.2123 -1.4479 -0.9352
 8776TIP3    H247820   5.793   4.404  16.245 -0.2974 -0.2020 -0.4744
 8777TIP3   OH247821   6.714   0.025   3.155 -0.7059 -0.2160  0.6070
 8777TIP3    H147822   6.689   0.082   3.082 -0.0052  0.7287  1.0764
 8777TIP3    H247823   6.810   0.027   3.154 -0.6600 -1.8252  0.3181
 8778TIP3   OH247824   3.497   4.930  14.192 -0.0721 -0.1785  0.0115
 8778TIP3    H147825   3.546   5.002  14.152 -0.1901  0.8485  1.5957
 8778TIP3    H247826   3.533   4.851  14.153  2.0991  0.5878  0.3131
 8779TIP3   OH247827   5.945   2.731  12.222 -0.0222 -0.2685 -0.1372
 8779TIP3    H147828   5.903   2.782  12.291  1.5791 -0.0839  0.7365
 8779TIP3    H247829   5.960   2.645  12.262  0.9154 -0.1574 -0.2416
 8780TIP3   OH247830   4.044   4.201   2.803  0.4293  0.2958  0.0374
 8780TIP3    H147831   4.039   4.156   2.887  1.8123  0.3699  0.1724
 8780TIP3    H247832   4.039   4.294   2.825 -0.2690  0.2942 -0.0695
 8781TIP3   OH247833   2.773   6.671  13.395 -0.3665 -0.1324 -0.6235
 8781TIP3    H147834   2.765   6.619  13.315  0.4436 -0.4673 -0.4979
 8781TIP3    H247835   2.775   6.605  13.465 -1.9387  0.1844 -0.2343
 8782TIP3   OH247836   2.919   6.736  16.390 -0.3920 -0.0806 -0.0185
 8782TIP3    H147837   2.983   6.714  16.322 -2.1749 -1.1207 -1.4430
 8782TIP3    H247838   2.971   6.777  16.459  1.2985  2.6798 -2.6837
 8783TIP3   OH247839   5.444   3.386  13.344  0.0485  0.7737  0.4888
 8783TIP3    H147840   5.390   3.464  13.336 -0.8863  0.0410 -0.7309
 8783TIP3    H247841   5.488   3.378  13.259  0.5922  0.2985  0.8077
 8784TIP3   OH247842   5.436   0.556   5.467  0.3630 -0.1917  0.0493
 8784TIP3    H147843   5.411   0.465   5.481 -0.3618  0.2138  1.6861
 8784TIP3    H247844   5.393   0.603   5.539  1.3704  1.3279 -0.3108
 8785TIP3   OH247845   4.876   3.696   2.175  0.5371 -0.2421 -0.5666
 8785TIP3    H147846   4.818   3.637   2.223 -1.0571  1.7897  0.1464
 8785TIP3    H247847   4.938   3.727   2.241 -1.2127  1.9930  0.1769
 8786TIP3   OH247848   0.449   4.232   2.400  0.0879 -0.0008  0.4897
 8786TIP3    H147849   0.375   4.178   2.372 -0.0290  0.3280  0.1578
 8786TIP3    H247850   0.445   4.309   2.344  1.6018 -0.6793 -0.6124
 8787TIP3   OH247851   6.657   0.591  14.441  1.0541 -0.1110  0.7369
 8787TIP3    H147852   6.635   0.682  14.419  0.2131 -0.2068  1.1454
 8787TIP3    H247853   6.584   0.540  14.406  0.9244 -0.5101  1.5796
 8788TIP3   OH247854   1.849   0.481  13.491  0.0347 -0.4354 -0.4767
 8788TIP3    H147855   1.897   0.415  13.541 -0.0439  0.7255  1.2122
 8788TIP3    H247856   1.915   0.545  13.464 -0.1766 -0.1817 -0.4045
 8789TIP3   OH247857   4.341   4.745   2.122 -0.6778  0.5845  0.5785
 8789TIP3    H147858   4.379   4.805   2.058 -2.8714  0.0856 -1.3215
 8789TIP3    H247859   4.403   4.673   2.126 -1.4900 -0.5301 -2.9447
 8790TIP3   OH247860   4.619   2.438  14.558 -0.4154 -0.0538 -0.3065
 8790TIP3    H147861   4.624   2.470  14.468 -1.0109  0.6383 -0.1037
 8790TIP3    H247862   4.590   2.514  14.609  0.9620 -0.1277  0.6446
 8791TIP3   OH247863   5.036   5.991  10.978  0.2948 -0.2170  0.1073
 8791TIP3    H147864   5.088   6.013  10.900 -1.3543  1.3146 -0.6147
 8791TIP3    H247865   4.968   5.932  10.945  1.1946 -1.8072  0.9604
 8792TIP3   OH247866   3.204   4.423   3.998  0.3942  0.9136  0.7942
 8792TIP3    H147867   3.225   4.470   4.079 -0.6849  0.4568  1.3692
 8792TIP3    H247868   3.276   4.362   3.986  0.1349  0.3565  1.9210
 8793TIP3   OH247869   4.518   6.193   3.024 -0.4040 -0.5909  0.5382
 8793TIP3    H147870   4.595   6.155   2.981 -0.2977 -0.2560  0.4294
 8793TIP3    H247871   4.478   6.119   3.070 -0.5857 -0.9847 -0.2288
 8794TIP3   OH247872   3.280   0.501  15.849  0.0855 -0.7167 -0.1039
 8794TIP3    H147873   3.302   0.594  15.856 -1.5213 -0.3431  0.6583
 8794TIP3    H247874   3.360   0.459  15.821  0.8481  0.9096 -0.4798
 8795TIP3   OH247875   0.755   3.507  11.378 -0.2260  0.2872 -0.3454
 8795TIP3    H147876   0.743   3.549  11.464  3.0889  1.0859 -0.1654
 8795TIP3    H247877   0.730   3.574  11.315 -0.6511  0.4400 -0.0198
 8796TIP3   OH247878   4.876   0.143  16.686  0.2941  0.0118  0.2092
 8796TIP3    H147879   4.953   0.182  16.728 -0.1536  1.6860 -0.4493
 8796TIP3    H247880   4.817   0.122  16.758 -0.8336  3.6142  0.5291
 8797TIP3   OH247881   4.891   2.065  14.215  1.1047 -0.3872  0.4254
 8797TIP3    H147882   4.969   2.089  14.264 -0.0943 -1.4403  3.0458
 8797TIP3    H247883   4.831   2.139  14.226  0.0914 -1.4213  2.3887
 8798TIP3   OH247884   4.295   2.466   1.264  0.1286 -0.4014  0.2320
 8798TIP3    H147885   4.382   2.493   1.293 -0.1696  0.1734  0.5946
 8798TIP3    H247886   4.308   2.376   1.233  1.1721  0.2014 -1.1994
 8799TIP3   OH247887   3.757   0.502  15.519  0.0531 -0.0440  0.2786
 8799TIP3    H147888   3.772   0.563  15.446  0.3478 -1.6386 -1.0534
 8799TIP3    H247889   3.758   0.558  15.597  0.0271  1.6879 -0.8917
 8800TIP3   OH247890   0.509   5.623   1.683 -0.0534 -0.7565 -0.3042
 8800TIP3    H147891   0.463   5.550   1.723  0.1589  1.1166  3.8397
 8800TIP3    H247892   0.441   5.683   1.656 -0.1831 -1.8914 -2.7727
 8801TIP3   OH247893   3.936   5.766   1.053 -0.0100 -0.0341  0.2238
 8801TIP3    H147894   3.888   5.772   0.970 -2.1461 -0.4493  1.3757
 8801TIP3    H247895   4.018   5.723   1.029  0.0162  1.0228 -1.8826
 8802TIP3   OH247896   2.578   3.714  11.538 -0.5392  0.0005 -0.2059
 8802TIP3    H147897   2.614   3.626  11.522 -2.2750 -0.8663  0.4127
 8802TIP3    H247898   2.551   3.745  11.451 -2.1349 -1.1298 -0.1629
 8803TIP3   OH247899   1.991   6.615   1.625  0.4189 -0.1480 -0.0005
 8803TIP3    H147900   1.986   6.555   1.699  0.2474  2.9867  2.7665
 8803TIP3    H247901   2.045   6.569   1.561  1.8411 -2.5133  2.6391
 8804TIP3   OH247902   5.255   1.336  13.051 -0.3206 -0.3554  0.0731
 8804TIP3    H147903   5.196   1.293  12.988  0.5860  0.3787 -1.3080
 8804TIP3    H247904   5.196   1.374  13.116 -1.3646 -0.0065 -1.0441
 8805TIP3   OH247905   0.416   6.799  13.555  0.5397  0.0354  0.4385
 8805TIP3    H147906   0.451   6.711  13.542 -1.4924 -0.9144  0.9156
 8805TIP3    H247907   0.329   6.784  13.594 -0.2585  2.2213 -0.3589
 8806TIP3   OH247908   5.196   3.953   4.576 -0.1785 -0.0539 -0.3049
 8806TIP3    H147909   5.119   3.926   4.625 -0.1245 -0.0803 -0.2339
 8806TIP3    H247910   5.161   4.003   4.502 -0.1864  3.1198  1.6610
 8807TIP3   OH247911   5.561   0.031   2.176 -0.1619 -0.2980  0.2167
 8807TIP3    H147912   5.534   0.040   2.268  0.4116 -0.3123  0.3902
 8807TIP3    H247913   5.570   0.121   2.146 -0.3226 -0.2934  0.1787
 8808TIP3   OH247914   5.719   0.361  12.580 -0.2447 -0.1946 -0.6089
 8808TIP3    H147915   5.645   0.312  12.545 -1.3247  0.3848  0.7478
 8808TIP3    H247916   5.679   0.421  12.643  1.3608  0.3737 -0.0979
 8809TIP3   OH247917   5.537   5.277  16.348 -0.7740  0.4426  0.2245
 8809TIP3    H147918   5.454   5.245  16.385 -1.2505  2.1033  0.6926
 8809TIP3    H247919   5.564   5.347  16.408  1.1165 -0.2443  0.2203
 8810TIP3   OH247920   1.969   4.425   2.850 -0.3363  0.5342  0.2674
 8810TIP3    H147921   2.054   4.462   2.871 -0.8111  0.3510  2.8684
 8810TIP3    H247922   1.987   4.358   2.785  1.8334 -0.7384  2.0465
 8811TIP3   OH247923   5.499   6.062   2.792 -0.5601  0.8025  0.5543
 8811TIP3    H147924   5.518   6.154   2.774 -0.3434  0.8359  0.9466
 8811TIP3    H247925   5.525   6.049   2.883  0.9927 -0.0612  0.0309
 8812TIP3   OH247926   6.133   6.491  15.201 -0.4055  0.2671 -0.2525
 8812TIP3    H147927   6.071   6.551  15.241  3.2612  3.4196  1.3413
 8812TIP3    H247928   6.144   6.522  15.111 -0.0632  0.6415 -0.0812
 8813TIP3   OH247929   6.007   2.835  13.607 -0.3208  0.0644 -0.2680
 8813TIP3    H147930   5.939   2.901  13.626  0.4755  1.2176 -1.2528
 8813TIP3    H247931   6.080   2.886  13.573 -0.0017 -1.4406 -1.9408
 8814TIP3   OH247932   6.042   2.239   6.601 -0.4483 -0.0107  0.3309
 8814TIP3    H147933   6.118   2.268   6.651 -0.8338 -0.5578  1.2443
 8814TIP3    H247934   6.003   2.320   6.567 -0.1686  0.3660  0.8950
 8815TIP3   OH247935   1.969   5.312   4.049  0.1474  0.2867  0.0746
 8815TIP3    H147936   1.919   5.255   4.107 -0.2458  0.9701  0.4223
 8815TIP3    H247937   1.986   5.391   4.101  0.3341  0.6526 -0.5265
 8816TIP3   OH247938   5.877   4.005  11.260 -0.1951  0.1044 -0.3599
 8816TIP3    H147939   5.965   4.034  11.235 -0.4701  0.1050 -1.3748
 8816TIP3    H247940   5.852   3.943  11.192  0.3534 -2.6160  1.7307
 8817TIP3   OH247941   5.321   2.852   6.598  0.4129 -0.3138 -0.5339
 8817TIP3    H147942   5.341   2.876   6.508 -1.1248  0.6074 -0.6613
 8817TIP3    H247943   5.395   2.886   6.649  0.0689  1.4248 -1.1550
 8818TIP3   OH247944   1.747   3.246  13.876  0.1377 -0.0687  0.7640
 8818TIP3    H147945   1.737   3.218  13.785 -0.7202 -1.5763  1.2943
 8818TIP3    H247946   1.839   3.227  13.896 -0.1669 -1.6648  0.7972
 8819TIP3   OH247947   6.623   6.016   4.021 -0.6477 -0.2406 -0.0528
 8819TIP3    H147948   6.605   6.098   4.066 -1.6463  0.8452 -2.3038
 8819TIP3    H247949   6.714   6.024   3.992 -1.1997  0.8462 -1.6480
 8820TIP3   OH247950   2.585   0.311   3.858  0.7810 -0.7529  0.5616
 8820TIP3    H147951   2.675   0.339   3.873  1.2841  0.4348 -3.4908
 8820TIP3    H247952   2.594   0.229   3.809 -0.4543 -1.6870  1.8262
 8821TIP3   OH247953   5.017   2.958  11.928 -0.3496  0.7340 -0.3212
 8821TIP3    H147954   4.946   2.981  11.868  1.0593  1.5125 -1.7694
 8821TIP3    H247955   5.082   3.026  11.915  0.5702  0.1876  1.1686
 8822TIP3   OH247956   5.790   6.748  15.455  0.1306  0.2070  0.3323
 8822TIP3    H147957   5.879   6.744  15.489  1.0888 -1.7046 -2.0509
 8822TIP3    H247958   5.769   6.657  15.432 -2.0034  0.7715 -0.2215
 8823TIP3   OH247959   2.802   3.890  14.612  0.3533  0.3837  0.6412
 8823TIP3    H147960   2.732   3.955  14.609  0.9859  1.1800  2.0021
 8823TIP3    H247961   2.883   3.942  14.611  0.9412 -0.5128 -0.8574
 8824TIP3   OH247962   3.792   3.186  15.917 -0.4264  0.9058  0.1743
 8824TIP3    H147963   3.784   3.092  15.903 -0.4938  0.5728  2.1275
 8824TIP3    H247964   3.820   3.221  15.833  3.0529 -1.3147  0.2027
 8825TIP3   OH247965   5.371   6.862   1.271 -0.2632 -0.0251  0.0975
 8825TIP3    H147966   5.426   6.855   1.193  0.5545 -1.4688  0.7540
 8825TIP3    H247967   5.399   6.943   1.314 -0.8394  0.8649 -1.1713
 8826TIP3   OH247968   5.223   0.651  15.473 -0.3670  0.4627  0.2188
 8826TIP3    H147969   5.149   0.679  15.418 -0.5851  1.0166  0.7856
 8826TIP3    H247970   5.235   0.559  15.450 -2.3732 -0.1557  1.3728
 8827TIP3   OH247971   1.577   6.567  11.753  0.0414 -0.4265  0.2687
 8827TIP3    H147972   1.575   6.662  11.760  1.4643 -0.4287  1.3568
 8827TIP3    H247973   1.584   6.549  11.659 -1.0676  0.5022  0.0001
 8828TIP3   OH247974   6.304   2.939  11.370  0.3825 -0.1491  0.2232
 8828TIP3    H147975   6.337   3.028  11.382  0.0489  0.3627 -2.1600
 8828TIP3    H247976   6.335   2.914  11.282 -0.5360 -1.9263  0.3620
 8829TIP3   OH247977   5.009   3.600   4.595  0.1624 -0.7117  0.4677
 8829TIP3    H147978   4.921   3.589   4.557  0.9634 -0.0879 -1.7506
 8829TIP3    H247979   4.995   3.653   4.673 -1.6037 -2.0862  1.1615
 8830TIP3   OH247980   0.831   1.890  13.709 -0.5036  0.6999 -0.0464
 8830TIP3    H147981   0.919   1.913  13.739 -0.2707 -0.0237 -0.1623
 8830TIP3    H247982   0.796   1.972  13.675  0.2292  0.9443 -0.2447
 8831TIP3   OH247983   1.082   3.893   2.790  0.3254  0.1179 -0.0637
 8831TIP3    H147984   1.134   3.971   2.771  2.2300 -0.8266  0.8734
 8831TIP3    H247985   1.132   3.821   2.751 -2.4637 -0.5286 -2.8125
 8832TIP3   OH247986   3.084   1.590  13.741  0.4973  0.1099  0.1345
 8832TIP3    H147987   3.076   1.625  13.829  0.9654  0.0774  0.1927
 8832TIP3    H247988   3.153   1.524  13.748  0.5712  0.1425 -0.2658
 8833TIP3   OH247989   4.359   3.028  15.262 -0.7017  0.6036 -0.5190
 8833TIP3    H147990   4.343   3.080  15.183 -2.3061 -0.5002 -0.9679
 8833TIP3    H247991   4.273   2.991  15.284  0.0436 -0.4235  0.7995
 8834TIP3   OH247992   2.204   2.290  16.872  0.4661 -0.1263 -0.2467
 8834TIP3    H147993   2.297   2.302  16.892  0.0403  2.6423  0.4202
 8834TIP3    H247994   2.160   2.360  16.919 -1.6927  0.3272 -2.7112
 8835TIP3   OH247995   0.280   5.711   4.375  0.3185 -0.1982 -0.2991
 8835TIP3    H147996   0.251   5.726   4.465 -2.8275  1.8426 -1.4775
 8835TIP3    H247997   0.297   5.798   4.340  0.9482 -0.9112 -1.8562
 8836TIP3   OH247998   0.918   3.163  14.678  0.2762  0.0574  0.4529
 8836TIP3    H147999   0.954   3.199  14.596 -0.3866  0.6779  0.4303
 8836TIP3    H248000   0.844   3.109  14.650 -0.4629  0.9246  0.6913
 8837TIP3   OH248001   5.238   2.140   3.457 -0.4462 -0.1951 -0.1887
 8837TIP3    H148002   5.321   2.171   3.494 -1.2689  1.8878  0.0392
 8837TIP3    H248003   5.263   2.070   3.397  1.7487  1.8500 -1.8738
 8838TIP3   OH248004   1.035   6.339   5.321  0.3412 -0.0156 -0.0241
 8838TIP3    H148005   0.965   6.393   5.283  0.3322 -0.1354 -0.1786
 8838TIP3    H248006   0.989   6.277   5.379  0.4212  0.6956  0.8191
 8839TIP3   OH248007   1.847   1.746  11.797 -0.5420 -0.0463 -0.1094
 8839TIP3    H148008   1.768   1.799  11.806 -0.5116  0.3061 -1.6387
 8839TIP3    H248009   1.888   1.777  11.715  0.4653 -1.1389 -0.0475
 8840TIP3   OH248010   6.155   3.371  13.664  0.0408  0.0698 -0.0368
 8840TIP3    H148011   6.098   3.296  13.682  2.2710 -1.5586  0.7655
 8840TIP3    H248012   6.143   3.429  13.739 -0.2570 -0.4535  0.3242
 8841TIP3   OH248013   6.784   0.530   3.229  0.3090  0.1829  0.3449
 8841TIP3    H148014   6.833   0.450   3.242  1.3386  0.8461  0.6359
 8841TIP3    H248015   6.781   0.542   3.134  1.8198  0.7831  0.3477
 8842TIP3   OH248016   3.176   3.007   1.248 -0.1316  0.1668  0.5209
 8842TIP3    H148017   3.237   3.029   1.178  0.7732 -1.4483  0.7611
 8842TIP3    H248018   3.223   3.025   1.329 -0.9474  1.4210  0.7437
 8843TIP3   OH248019   5.339   4.548  13.042  0.1804 -0.0974 -0.5626
 8843TIP3    H148020   5.246   4.552  13.062  0.2355  1.0425 -0.4936
 8843TIP3    H248021   5.343   4.560  12.947  0.1258 -2.4463 -0.9205
 8844TIP3   OH248022   5.321   1.404   2.352 -0.0746 -0.0817  0.4755
 8844TIP3    H148023   5.338   1.446   2.268 -0.2419 -1.2126 -0.1457
 8844TIP3    H248024   5.384   1.331   2.355  0.9997  0.8562  2.0371
 8845TIP3   OH248025   2.574   4.963   2.620  0.2759  0.1157 -1.1641
 8845TIP3    H148026   2.531   4.893   2.669 -1.0109  2.2390  0.9846
 8845TIP3    H248027   2.516   4.982   2.547  0.1658 -0.4478 -1.2236
 8846TIP3   OH248028   6.209   3.567   5.189 -0.2987  0.4324  0.3593
 8846TIP3    H148029   6.269   3.578   5.263 -0.2639  1.5866  0.1769
 8846TIP3    H248030   6.241   3.627   5.123 -0.3211 -0.6068 -0.6312
 8847TIP3   OH248031   1.909   4.838  11.455  0.2028  0.3745  0.2973
 8847TIP3    H148032   1.857   4.912  11.487  0.7717  0.9649 -0.1150
 8847TIP3    H248033   1.858   4.761  11.477  0.9517  0.6505  3.5098
 8848TIP3   OH248034   5.147   6.284  16.855  0.1474  0.1094 -0.2524
 8848TIP3    H148035   5.206   6.324  16.792 -0.4885  0.9061 -0.3640
 8848TIP3    H248036   5.197   6.280  16.937 -0.2815  2.8153  0.2704
 8849TIP3   OH248037   1.494   1.550  12.993 -0.5502  0.0612  0.5233
 8849TIP3    H148038   1.470   1.486  13.060  0.7291 -0.4638  0.5082
 8849TIP3    H248039   1.475   1.507  12.910 -0.7159  0.1283  0.5255
 8850TIP3   OH248040   4.283   2.808   6.534  0.0342  0.5181 -0.0377
 8850TIP3    H148041   4.357   2.800   6.473 -1.3117  0.8024 -1.8140
 8850TIP3    H248042   4.272   2.902   6.546  1.3971  0.4510  2.1529
 8851TIP3   OH248043   5.324   4.667  16.496  0.8039  0.4624  0.7544
 8851TIP3    H148044   5.386   4.725  16.451 -1.0989  1.6221 -0.5366
 8851TIP3    H248045   5.263   4.727  16.539 -1.6519 -0.4494 -1.1974
 8852TIP3   OH248046   2.368   6.092   2.713 -0.0345  0.6243 -0.4778
 8852TIP3    H148047   2.325   6.163   2.761 -0.8041  0.1650 -0.4761
 8852TIP3    H248048   2.380   6.127   2.624 -1.9034  0.2057 -0.9440
 8853TIP3   OH248049   3.963   5.687   3.208  0.8365 -0.0068  0.6408
 8853TIP3    H148050   3.997   5.764   3.254  0.9984 -0.0687  0.6270
 8853TIP3    H248051   4.039   5.652   3.162  0.5420  0.4379 -0.2129
 8854TIP3   OH248052   5.983   3.309   2.449 -0.1346  0.6467 -0.1273
 8854TIP3    H148053   5.904   3.319   2.503 -0.3953  1.1069 -0.5884
 8854TIP3    H248054   6.031   3.390   2.461  0.1912  0.4341  0.0180
 8855TIP3   OH248055   1.270   2.465   3.966 -0.3852 -0.6083 -0.3459
 8855TIP3    H148056   1.225   2.507   3.893  1.4740  1.3337 -0.4767
 8855TIP3    H248057   1.246   2.517   4.043  0.9650  0.0070 -0.3053
 8856TIP3   OH248058   5.641   1.517  15.033 -0.2576 -0.3638  0.1365
 8856TIP3    H148059   5.598   1.599  15.008 -0.5392 -0.4560  0.3107
 8856TIP3    H248060   5.620   1.457  14.962 -0.1291 -0.3091  0.0542
 8857TIP3   OH248061   4.208   0.852  14.992  0.4165 -0.3341  0.3348
 8857TIP3    H148062   4.265   0.827  14.920  2.6512 -0.1539  1.9388
 8857TIP3    H248063   4.229   0.790  15.062 -2.0343 -0.8129  0.7428
 8858TIP3   OH248064   0.951   2.338   5.180 -0.0736  0.4111  0.3924
 8858TIP3    H148065   0.929   2.256   5.136 -0.2294 -0.4122  1.9356
 8858TIP3    H248066   0.983   2.395   5.110  1.3478 -1.4178 -0.5233
 8859TIP3   OH248067   1.503   3.352   6.203 -0.0135  0.0614  0.0047
 8859TIP3    H148068   1.590   3.390   6.206 -0.1802  0.4135  0.3790
 8859TIP3    H248069   1.446   3.417   6.244 -0.3634 -0.4179  0.2895
 8860TIP3   OH248070   0.623   1.572   5.079 -0.4887 -0.0088 -0.4182
 8860TIP3    H148071   0.636   1.533   4.992  0.0611  0.4138 -0.5357
 8860TIP3    H248072   0.662   1.660   5.071 -0.4665  0.0421  0.2463
 8861TIP3   OH248073   6.857   2.495   1.049  0.3316  0.2108 -0.0367
 8861TIP3    H148074   6.863   2.448   0.966  1.3055 -0.6224  0.4751
 8861TIP3    H248075   6.948   2.515   1.071  0.2314 -0.9330  1.5563
 8862TIP3   OH248076   0.551   1.142  11.317 -0.4379 -0.2464 -0.2579
 8862TIP3    H148077   0.536   1.196  11.240 -0.7188 -2.3390 -1.7472
 8862TIP3    H248078   0.475   1.084  11.321  0.9444 -2.1570 -0.1771
 8863TIP3   OH248079   3.073   2.130  16.421  0.0045  0.5086 -0.5926
 8863TIP3    H148080   3.026   2.133  16.505  0.5499 -1.4553 -0.1635
 8863TIP3    H248081   3.004   2.133  16.355 -0.4921  1.1003 -0.0628
 8864TIP3   OH248082   4.668   3.100  12.870 -0.0383  0.2247  0.2066
 8864TIP3    H148083   4.718   3.023  12.840 -1.9129 -1.5756  1.4308
 8864TIP3    H248084   4.655   3.152  12.791  0.5770 -1.1457 -0.8534
 8865TIP3   OH248085   6.174   6.064  14.200 -0.0164  0.1769 -0.2541
 8865TIP3    H148086   6.090   6.094  14.166 -1.0451  0.6085  2.4173
 8865TIP3    H248087   6.194   5.985  14.151 -1.6060  0.4718 -1.4384
 8866TIP3   OH248088   5.228   1.303   2.717  0.3549 -0.3663 -0.1156
 8866TIP3    H148089   5.177   1.380   2.741  0.5429 -1.0211  2.7757
 8866TIP3    H248090   5.198   1.280   2.629 -3.2493  0.1459  0.8231
 8867TIP3   OH248091   3.260   0.704   3.947 -0.5760  0.2793  0.0414
 8867TIP3    H148092   3.281   0.745   3.863  0.7242 -0.1579  0.1423
 8867TIP3    H248093   3.329   0.639   3.961 -0.9660  0.1021  1.2849
 8868TIP3   OH248094   4.564   6.304   3.931 -0.2822 -0.1688 -0.0643
 8868TIP3    H148095   4.476   6.342   3.936 -0.2480 -0.1954  0.8504
 8868TIP3    H248096   4.622   6.378   3.915 -0.4663 -0.1572 -0.7188
 8869TIP3   OH248097   0.673   1.952  13.191  0.6382  0.4046 -0.6553
 8869TIP3    H148098   0.742   1.986  13.248 -0.3866 -0.7966  1.4332
 8869TIP3    H248099   0.592   1.974  13.236 -0.1580 -1.9862 -0.7853
 8870TIP3   OH248100   5.484   1.420  15.223  0.6565  0.3374 -0.3547
 8870TIP3    H148101   5.505   1.474  15.147  0.5935  3.8271  1.8647
 8870TIP3    H248102   5.568   1.404  15.266  0.4142  1.1496  0.4621
 8871TIP3   OH248103   0.002   2.375   2.435 -0.3702 -0.0196 -0.8325
 8871TIP3    H148104   0.075   2.433   2.413 -0.9568  0.6378 -1.0763
 8871TIP3    H248105   0.004   2.307   2.367  0.2341 -0.2136 -0.6268
 8872TIP3   OH248106   2.475   0.177   4.921 -0.4181 -0.5254  0.1782
 8872TIP3    H148107   2.567   0.189   4.943 -0.4784  1.1806 -0.3682
 8872TIP3    H248108   2.436   0.264   4.930 -2.1412 -1.3361  1.0523
 8873TIP3   OH248109   4.594   4.977  10.812  0.6627 -0.2912  0.3094
 8873TIP3    H148110   4.552   5.062  10.798 -0.7622 -0.9341  0.4662
 8873TIP3    H248111   4.688   4.994  10.805  0.4979  1.6117  2.0114
 8874TIP3   OH248112   5.365   0.652  11.569 -0.1733  0.5882 -0.5216
 8874TIP3    H148113   5.275   0.625  11.586 -0.2883  0.8306 -0.7357
 8874TIP3    H248114   5.414   0.623  11.646 -0.7921  2.1886  0.5155
 8875TIP3   OH248115   5.099   2.231  16.639 -0.0696  0.5675 -0.2221
 8875TIP3    H148116   5.118   2.159  16.698 -0.6405 -1.0055 -1.8502
 8875TIP3    H248117   5.185   2.259  16.606  0.0291 -1.0048 -1.3744
 8876TIP3   OH248118   0.956   1.928  15.026  0.4151 -0.2420  0.3388
 8876TIP3    H148119   0.977   2.004  15.081 -0.1387 -0.0446  0.2796
 8876TIP3    H248120   0.966   1.853  15.085  0.3269 -0.0726  0.5704
 8877TIP3   OH248121   5.458   2.689  10.553 -0.4019  0.2634 -0.0863
 8877TIP3    H148122   5.431   2.778  10.574  1.3327  1.0867 -1.1376
 8877TIP3    H248123   5.401   2.663  10.481 -2.2418 -0.2802  1.4831
 8878TIP3   OH248124   6.610   6.064  14.349 -0.2601 -0.0289 -0.3396
 8878TIP3    H148125   6.695   6.092  14.314 -0.3566 -0.8884 -1.3292
 8878TIP3    H248126   6.628   6.038  14.439  0.7678 -1.1900 -0.8438
 8879TIP3   OH248127   5.811   5.955   3.574  0.1932 -0.0703  0.0867
 8879TIP3    H148128   5.845   6.038   3.606  0.6850  0.1897 -1.0561
 8879TIP3    H248129   5.850   5.889   3.633  0.1624  0.4598  0.7129
 8880TIP3   OH248130   2.979   1.263   0.115 -0.3668  0.6050  0.1352
 8880TIP3    H148131   3.055   1.247   0.172 -0.2270  0.1442 -0.1708
 8880TIP3    H248132   2.925   1.184   0.125 -0.7760  0.9058  0.3067
 8881TIP3   OH248133   0.122   3.445  12.852  0.5483  0.0268  0.7466
 8881TIP3    H148134   0.214   3.417  12.850  0.6369  0.3217 -1.3791
 8881TIP3    H248135   0.072   3.366  12.832  0.1392 -0.5481  3.5899
 8882TIP3   OH248136   6.412   0.113  13.158  0.6505 -0.1134  0.1906
 8882TIP3    H148137   6.341   0.177  13.162  1.8419  1.2143  1.0291
 8882TIP3    H248138   6.473   0.149  13.094  1.3627 -0.3831  0.7084
 8883TIP3   OH248139   4.299   1.016  16.246  0.0332 -0.0044  0.2562
 8883TIP3    H148140   4.363   1.053  16.186 -2.0597  0.2243 -1.9858
 8883TIP3    H248141   4.330   0.927  16.263  0.6623 -0.0903 -1.2285
 8884TIP3   OH248142   1.650   5.606   2.216 -0.0614 -0.2299 -0.7378
 8884TIP3    H148143   1.739   5.577   2.236 -0.2453 -0.2081  0.1952
 8884TIP3    H248144   1.594   5.539   2.256 -0.4676  0.1831 -0.6047
 8885TIP3   OH248145   5.732   1.678   4.866  0.3319 -0.7803 -0.2878
 8885TIP3    H148146   5.737   1.710   4.956  1.1149 -0.8643 -0.2943
 8885TIP3    H248147   5.646   1.635   4.861 -0.1742  0.1419  0.0996
 8886TIP3   OH248148   0.551   6.405  16.952  0.1422 -0.4586 -0.0385
 8886TIP3    H148149   0.595   6.339  16.898  0.9395  0.3846 -0.4443
 8886TIP3    H248150   0.609   6.481  16.950 -0.4776  0.0693  0.8938
 8887TIP3   OH248151   2.099   3.266  11.132  0.1627 -0.4404  0.1334
 8887TIP3    H148152   2.138   3.351  11.149  2.2297 -0.9640 -1.4689
 8887TIP3    H248153   2.109   3.218  11.214  5.0289 -1.2060 -0.5600
 8888TIP3   OH248154   5.651   5.688  16.931 -0.0550  0.3349  0.2138
 8888TIP3    H148155   5.639   5.771  16.978 -0.6503  0.8322 -0.7740
 8888TIP3    H248156   5.652   5.713  16.839  1.3279 -0.5932 -0.0430
 8889TIP3   OH248157   4.141   1.526  10.964  0.4130 -0.1349 -0.5227
 8889TIP3    H148158   4.166   1.464  10.896 -2.7842 -2.1309 -0.1058
 8889TIP3    H248159   4.054   1.555  10.939 -0.3366  0.0506  2.0135
 8890TIP3   OH248160   2.790   3.789  11.348 -0.1776 -0.1226  0.1766
 8890TIP3    H148161   2.826   3.700  11.344  0.0665 -0.0155 -0.0833
 8890TIP3    H248162   2.739   3.798  11.267  0.3393  0.1954 -0.1250
 8891TIP3   OH248163   0.627   4.512   5.603 -0.2159 -0.1134 -0.0078
 8891TIP3    H148164   0.718   4.481   5.597  0.2616  1.3317 -0.8152
 8891TIP3    H248165   0.592   4.500   5.515  0.1489  1.9612 -0.5095
 8892TIP3   OH248166   0.966   3.547  16.449  0.0501  0.4687 -0.4961
 8892TIP3    H148167   1.059   3.564  16.431  0.3396 -0.5415 -0.0292
 8892TIP3    H248168   0.950   3.590  16.533  0.1371  0.4926 -0.4919
 8893TIP3   OH248169   2.495   5.809   3.512 -0.4514 -0.8024 -0.1751
 8893TIP3    H148170   2.498   5.902   3.535 -0.4654 -1.2806  2.0594
 8893TIP3    H248171   2.512   5.806   3.418  1.5723  1.3063  0.0473
 8894TIP3   OH248172   5.106   2.127  15.806  0.4377  0.2540  0.1675
 8894TIP3    H148173   5.080   2.060  15.742  1.6334  0.0596 -0.1285
 8894TIP3    H248174   5.121   2.206  15.753 -0.1077  0.5288  0.4118
 8895TIP3   OH248175   2.442   4.390  14.301 -0.0169 -0.0721 -0.5016
 8895TIP3    H148176   2.498   4.462  14.273  0.1119 -0.4435 -1.2073
 8895TIP3    H248177   2.422   4.342  14.221 -0.8440 -0.2987 -0.1686
 8896TIP3   OH248178   4.622   3.251  11.716  0.1545 -0.4279 -0.5024
 8896TIP3    H148179   4.635   3.287  11.628  1.5407  2.3815  0.7233
 8896TIP3    H248180   4.566   3.316  11.760 -2.4456 -2.9016  0.1061
 8897TIP3   OH248181   0.271   0.005   2.120 -0.2669  0.0400  0.4096
 8897TIP3    H148182   0.310  -0.079   2.143 -1.2976  0.0504  2.4395
 8897TIP3    H248183   0.305   0.066   2.185 -1.7690  0.5395  0.7692
 8898TIP3   OH248184   3.322   6.502  13.936  0.1311  0.0799  0.0522
 8898TIP3    H148185   3.385   6.565  13.902 -0.6372 -0.3488 -2.4046
 8898TIP3    H248186   3.367   6.418  13.932 -0.1346 -0.0446 -0.4613
 8899TIP3   OH248187   4.010   4.274   1.130  0.4419 -0.2114 -0.2187
 8899TIP3    H148188   3.943   4.342   1.139 -1.4239 -2.0288  0.6449
 8899TIP3    H248189   4.078   4.298   1.193 -1.2582 -0.2676  1.7385
 8900TIP3   OH248190   2.045   0.165  10.974 -0.4954  0.2102 -0.5133
 8900TIP3    H148191   2.120   0.210  11.013 -0.8946 -0.0852  0.6299
 8900TIP3    H248192   2.051   0.186  10.881  0.4476  0.9978 -0.2984
 8901TIP3   OH248193   1.971   4.359   5.920 -0.3025  0.3915 -0.2039
 8901TIP3    H148194   2.030   4.429   5.892  1.0315 -0.3516  0.6326
 8901TIP3    H248195   1.884   4.396   5.909  0.3123  1.6601 -1.1512
 8902TIP3   OH248196   5.549   5.025  15.230  0.0194  0.3237 -0.2424
 8902TIP3    H148197   5.533   5.041  15.137 -0.4617  0.7328 -0.0942
 8902TIP3    H248198   5.465   5.042  15.272  0.3408  0.5634  0.3213
 8903TIP3   OH248199   4.109   2.408  13.593  0.5054 -0.5467 -0.4240
 8903TIP3    H148200   4.089   2.387  13.684  1.7029  1.1111  0.2795
 8903TIP3    H248201   4.205   2.408  13.589  0.4722  0.0446 -1.5228
 8904TIP3   OH248202   3.405   4.367  11.360  0.4887 -0.2117  0.1785
 8904TIP3    H148203   3.480   4.393  11.414  0.2025  1.1602 -0.0390
 8904TIP3    H248204   3.335   4.427  11.386  0.4146  0.6881 -1.8880
 8905TIP3   OH248205   4.870   0.234  16.377  0.5435  0.4261 -0.2244
 8905TIP3    H148206   4.792   0.179  16.378 -0.2943  1.5617 -0.4924
 8905TIP3    H248207   4.923   0.203  16.450 -0.6294  0.2849  0.5893
 8906TIP3   OH248208   3.910   4.174   3.408 -0.1881 -0.4521 -0.0519
 8906TIP3    H148209   4.002   4.162   3.432  0.2122  1.2984 -0.5357
 8906TIP3    H248210   3.861   4.123   3.473  1.1069 -1.1976  0.3719
 8907TIP3   OH248211   2.682   3.262   3.892 -0.1331 -0.5684  0.0724
 8907TIP3    H148212   2.642   3.313   3.822 -2.3675 -1.4195  0.6424
 8907TIP3    H248213   2.732   3.325   3.943 -0.9188  0.6156 -0.5870
 8908TIP3   OH248214   4.756   5.415   4.975  0.3166 -0.6439 -0.1268
 8908TIP3    H148215   4.796   5.474   4.911  2.7637 -1.6115  0.4037
 8908TIP3    H248216   4.829   5.385   5.028 -1.4320 -1.0361  2.2052
 8909TIP3   OH248217   3.669   1.830  10.558  0.3767 -0.7819  0.0602
 8909TIP3    H148218   3.629   1.743  10.548  0.7609 -1.3905  2.9901
 8909TIP3    H248219   3.604   1.890  10.523 -0.7911 -2.1069 -0.1627
 8910TIP3   OH248220   4.375   1.479   2.888 -0.0339  0.3432  0.6148
 8910TIP3    H148221   4.442   1.482   2.820  0.0977 -0.7089  0.6841
 8910TIP3    H248222   4.421   1.448   2.966  0.1487  2.8865  1.6376
 8911TIP3   OH248223   0.568   6.264  14.719 -0.0510 -0.1717  0.3364
 8911TIP3    H148224   0.606   6.352  14.728  0.2348 -0.2901  0.3084
 8911TIP3    H248225   0.511   6.254  14.795  1.1056 -0.5503  1.1788
 8912TIP3   OH248226   1.584   4.760  14.793  0.5416 -0.1448  0.6826
 8912TIP3    H148227   1.616   4.727  14.709  0.2637  0.2897  0.4044
 8912TIP3    H248228   1.645   4.725  14.857  0.6006 -0.7000  0.3259
 8913TIP3   OH248229   4.432   1.631  13.181  0.1375  0.1674 -0.1766
 8913TIP3    H148230   4.407   1.707  13.234 -2.5806  0.8443 -2.2376
 8913TIP3    H248231   4.507   1.661  13.130 -0.0250  0.9698  0.0486
 8914TIP3   OH248232   5.925   4.419   5.578 -0.2202 -0.1003 -0.7480
 8914TIP3    H148233   5.871   4.368   5.637 -0.1801 -0.2147 -0.8101
 8914TIP3    H248234   5.950   4.497   5.629  1.3394 -1.0562  0.0409
 8915TIP3   OH248235   0.927   0.859  13.861  0.2727 -0.7235  0.3429
 8915TIP3    H148236   0.848   0.913  13.860  0.0315 -0.9908  2.0038
 8915TIP3    H248237   0.992   0.913  13.907  0.9455 -0.6703 -0.6405
 8916TIP3   OH248238   3.237   5.105  10.982 -0.5967 -0.3755 -0.7600
 8916TIP3    H148239   3.210   5.083  11.071 -0.4337 -0.9417 -0.8492
 8916TIP3    H248240   3.249   5.021  10.939 -1.6191 -0.1129 -1.6046
 8917TIP3   OH248241   2.178   1.396  14.198 -0.3304  0.0071 -0.3229
 8917TIP3    H148242   2.087   1.426  14.196  0.0782  1.7891  2.1875
 8917TIP3    H248243   2.224   1.457  14.139 -0.5852 -0.2478 -0.7930
 8918TIP3   OH248244   4.899   1.489  16.221  0.1410 -0.3393  0.0680
 8918TIP3    H148245   4.853   1.417  16.177  1.0346 -1.4345  0.8492
 8918TIP3    H248246   4.830   1.547  16.252 -0.6515 -1.2334  0.0223
 8919TIP3   OH248247   4.779   3.871  10.565  0.6698  0.0116  0.0362
 8919TIP3    H148248   4.863   3.830  10.544  1.4527  0.7789  1.4822
 8919TIP3    H248249   4.753   3.831  10.648 -0.3664 -0.1381 -0.3430
 8920TIP3   OH248250   3.834   1.122  16.097  0.1725  0.3189 -0.2276
 8920TIP3    H148251   3.768   1.085  16.155 -0.2170 -1.1313 -1.5491
 8920TIP3    H248252   3.784   1.170  16.030  0.4202 -0.7929 -1.2418
 8921TIP3   OH248253   2.428   2.662   2.867 -0.4575 -0.0829  0.3239
 8921TIP3    H148254   2.389   2.583   2.828  0.0933  0.1754 -0.7668
 8921TIP3    H248255   2.353   2.721   2.880 -0.5741  0.0841 -0.9759
 8922TIP3   OH248256   0.026   6.100   2.865  0.3452  0.2594  0.5443
 8922TIP3    H148257  -0.038   6.045   2.820  0.8294 -0.0096  0.1672
 8922TIP3    H248258   0.013   6.080   2.958 -1.4746  1.7211  0.6422
 8923TIP3   OH248259   6.324   3.310   3.173 -0.1893  0.1506 -0.0595
 8923TIP3    H148260   6.376   3.232   3.153 -0.8156 -0.6777  1.3541
 8923TIP3    H248261   6.246   3.276   3.217 -0.7821  1.5356 -0.0008
 8924TIP3   OH248262   2.266   1.055   3.327 -0.6932  0.1280  0.3585
 8924TIP3    H148263   2.186   1.055   3.380  0.2713  0.4577  1.8963
 8924TIP3    H248264   2.337   1.055   3.392  0.5546 -0.3259 -0.9596
 8925TIP3   OH248265   1.789   3.160   2.654 -0.0513  0.4465  0.6801
 8925TIP3    H148266   1.801   3.078   2.703  0.4626  1.1031  1.6910
 8925TIP3    H248267   1.782   3.132   2.563  2.4069 -0.6052  0.7149
 8926TIP3   OH248268   4.753   3.592  11.871 -0.4833 -0.2135 -0.0941
 8926TIP3    H148269   4.799   3.651  11.931 -1.2739  0.3014  0.0258
 8926TIP3    H248270   4.720   3.649  11.802 -1.6008 -0.4243  0.2337
 8927TIP3   OH248271   6.466   4.570  13.461 -0.1219 -0.3782  0.0609
 8927TIP3    H148272   6.475   4.577  13.366  0.8909 -1.2563  0.0702
 8927TIP3    H248273   6.488   4.657  13.494  0.3368 -0.2920 -0.4598
 8928TIP3   OH248274   6.809   0.605  13.136  0.4720 -0.4651  0.9429
 8928TIP3    H148275   6.834   0.696  13.150  3.7033 -1.2188  0.8877
 8928TIP3    H248276   6.716   0.609  13.113  0.4537  2.7687  1.1013
 8929TIP3   OH248277   2.778   6.522   2.866  0.5880 -0.0710  0.0410
 8929TIP3    H148278   2.705   6.567   2.824  0.2403  0.9552  1.6753
 8929TIP3    H248279   2.856   6.556   2.822  0.1586 -0.2746 -0.8956
 8930TIP3   OH248280   3.294   1.306   0.928 -0.2980 -0.4507  0.6790
 8930TIP3    H148281   3.234   1.238   0.894  0.8854  0.1517 -3.1454
 8930TIP3    H248282   3.242   1.386   0.927 -0.8091 -0.7334  2.2523
 8931TIP3   OH248283   1.384   4.370   1.046  0.0683  0.4035 -0.6202
 8931TIP3    H148284   1.357   4.404   1.132  1.0777 -0.1897 -0.0590
 8931TIP3    H248285   1.398   4.449   0.993 -0.0532  0.7891 -0.0869
 8932TIP3   OH248286   5.514   3.312   5.255  0.0988  0.4202 -0.8466
 8932TIP3    H148287   5.448   3.378   5.236  0.4744  0.1826 -3.2123
 8932TIP3    H248288   5.469   3.249   5.312 -0.2850  2.5800  1.4089
 8933TIP3   OH248289   6.747   5.030  13.585  0.3053 -0.1879  0.2875
 8933TIP3    H148290   6.699   5.102  13.626  0.7449  0.0183  0.4516
 8933TIP3    H248291   6.723   4.953  13.636  1.1136  0.1249  1.1731
 8934TIP3   OH248292   4.076   5.374  16.101  0.1240 -0.0828 -0.1724
 8934TIP3    H148293   4.028   5.295  16.124  0.2193 -0.0281  0.2220
 8934TIP3    H248294   4.069   5.430  16.178 -0.1287  0.3857 -0.5286
 8935TIP3   OH248295   5.365   3.764  13.559 -0.3485 -0.0559 -0.2447
 8935TIP3    H148296   5.373   3.712  13.639 -0.4224  0.4232  0.0818
 8935TIP3    H248297   5.425   3.837  13.572  0.4730 -0.5562 -1.1110
 8936TIP3   OH248298   5.898   3.907  13.056 -0.0976 -0.0908 -0.0388
 8936TIP3    H148299   5.909   3.827  13.108 -1.4968  0.1886  0.7588
 8936TIP3    H248300   5.929   3.884  12.969 -1.1585 -1.7540 -0.0169
 8937TIP3   OH248301   0.462   2.715   3.221  0.3154  0.6820 -0.4889
 8937TIP3    H148302   0.410   2.714   3.140  2.0089  1.2805 -1.6488
 8937TIP3    H248303   0.521   2.790   3.210  2.1492 -0.5656  0.2568
 8938TIP3   OH248304   6.415   1.694  15.870 -0.3778 -0.4256 -0.0930
 8938TIP3    H148305   6.352   1.623  15.880  0.2091 -1.2104 -1.6284
 8938TIP3    H248306   6.499   1.656  15.893 -0.0183 -0.3374 -1.1789
 8939TIP3   OH248307   1.002   3.515   2.235  0.3410 -0.0246  0.4521
 8939TIP3    H148308   1.047   3.592   2.199  0.5880  0.5124  1.8400
 8939TIP3    H248309   1.072   3.457   2.263  0.3092  1.1809  3.4061
 8940TIP3   OH248310   6.497   4.133  13.033  0.3438 -0.6727  0.1830
 8940TIP3    H148311   6.440   4.145  12.957  1.4435  3.2535 -0.2430
 8940TIP3    H248312   6.437   4.115  13.105 -1.1627  0.1681 -0.8059
 8941TIP3   OH248313   5.920   4.315   0.676 -0.6759  0.6109  0.2988
 8941TIP3    H148314   5.830   4.286   0.690 -0.0778 -0.7385  1.6282
 8941TIP3    H248315   5.967   4.236   0.649 -0.1985  1.6417 -2.0835
 8942TIP3   OH248316   1.540   0.842  16.065 -0.0378 -0.4316 -0.0583
 8942TIP3    H148317   1.574   0.774  16.123  2.0417  0.5250 -0.1009
 8942TIP3    H248318   1.533   0.798  15.979  1.0397 -0.6700 -0.0332
 8943TIP3   OH248319   0.416   3.468  13.662 -0.1820  0.7288 -0.1228
 8943TIP3    H148320   0.404   3.376  13.637  0.1019  0.0889  1.9019
 8943TIP3    H248321   0.496   3.494  13.616 -0.0852 -0.1377 -0.4723
 8944TIP3   OH248322   1.277   2.687   1.885 -0.4804 -0.3249  0.4260
 8944TIP3    H148323   1.255   2.601   1.848  0.1396 -0.6268  0.7482
 8944TIP3    H248324   1.366   2.704   1.855 -1.0627  0.8329 -0.7608
 8945TIP3   OH248325   2.969   0.233   4.354 -0.2216  0.3352  0.2689
 8945TIP3    H148326   2.911   0.173   4.308  0.7805 -0.0309 -0.5488
 8945TIP3    H248327   2.918   0.264   4.429 -0.3407 -2.5288  1.4868
 8946TIP3   OH248328   1.512   1.024  13.661 -0.5298  0.0124 -0.5267
 8946TIP3    H148329   1.485   1.053  13.748 -0.3127 -0.6349 -0.2401
 8946TIP3    H248330   1.515   1.105  13.609  0.1523  0.5183  0.2807
 8947TIP3   OH248331   4.545   5.518   0.797  0.5156 -0.2136 -0.8589
 8947TIP3    H148332   4.531   5.442   0.852 -0.2073  1.5542  1.5515
 8947TIP3    H248333   4.468   5.522   0.741 -0.5893  0.0295  0.6346
 8948TIP3   OH248334   3.325   5.293   2.678 -0.0423  0.2472 -0.2264
 8948TIP3    H148335   3.399   5.241   2.646 -0.8830 -0.6789 -0.7081
 8948TIP3    H248336   3.248   5.251   2.641 -1.1125 -0.8987  2.9502
 8949TIP3   OH248337   6.570   1.513  13.995 -0.4191  0.4918  0.0896
 8949TIP3    H148338   6.517   1.569  14.051  0.2263  0.2917  0.9103
 8949TIP3    H248339   6.632   1.470  14.054 -1.0914 -1.3327 -0.4636
 8950TIP3   OH248340   5.131   3.546  14.322  0.3098 -0.0760 -0.1183
 8950TIP3    H148341   5.178   3.538  14.405  1.7618 -0.9753 -0.9823
 8950TIP3    H248342   5.077   3.467  14.318  1.7056 -1.0214 -0.8817
 8951TIP3   OH248343   3.841   4.896   4.739  0.2955 -0.5588  0.0413
 8951TIP3    H148344   3.870   4.867   4.652 -0.6816 -1.2442 -0.0676
 8951TIP3    H248345   3.841   4.816   4.792  2.3453  0.0778  1.1315
 8952TIP3   OH248346   2.522   0.223   3.484  0.3710  0.4248  0.7373
 8952TIP3    H148347   2.611   0.207   3.514  0.1923 -1.5143  0.3628
 8952TIP3    H248348   2.469   0.158   3.531 -0.1137 -1.7931 -2.5953
 8953TIP3   OH248349   3.114   0.766   0.807  0.0469 -0.2507  0.1613
 8953TIP3    H148350   3.055   0.713   0.754  0.9192 -0.8915 -0.1968
 8953TIP3    H248351   3.089   0.856   0.788 -0.9446 -0.5116  0.1766
 8954TIP3   OH248352   1.637   2.968   4.226 -0.2578 -0.5870  0.0238
 8954TIP3    H148353   1.598   3.014   4.151  1.6498  1.2136  0.0404
 8954TIP3    H248354   1.611   3.020   4.302  1.5716  0.2869  0.0938
 8955TIP3   OH248355   4.692   1.877  15.523  0.6877  0.7289  0.1016
 8955TIP3    H148356   4.700   1.842  15.611  2.3728 -0.1788 -0.3674
 8955TIP3    H248357   4.761   1.833  15.473  0.1791  1.6763 -1.5213
 8956TIP3   OH248358   0.475   5.693  13.620 -0.0547 -0.3880 -0.0163
 8956TIP3    H148359   0.398   5.682  13.565  0.3420  0.1757 -0.7080
 8956TIP3    H248360   0.534   5.748  13.568  0.5241 -0.2292  0.7852
 8957TIP3   OH248361   6.515   1.404  12.009 -0.2524  0.0381  0.5455
 8957TIP3    H148362   6.492   1.462  11.936  2.8143 -2.0559 -2.3496
 8957TIP3    H248363   6.433   1.359  12.030 -1.3300  0.9868 -1.3476
 8958TIP3   OH248364   5.395   2.528  15.722 -0.3740 -0.2031  0.0228
 8958TIP3    H148365   5.490   2.538  15.715 -0.3829  0.6919  1.0018
 8958TIP3    H248366   5.379   2.513  15.815 -1.0779 -1.8299 -0.3242
 8959TIP3   OH248367   6.532   5.952   1.392  0.4555 -0.1772  0.2750
 8959TIP3    H148368   6.490   5.887   1.448  2.4497 -0.5562  1.4073
 8959TIP3    H248369   6.462   5.983   1.335 -1.1089 -1.4787  1.4074
 8960TIP3   OH248370   1.114   3.643  15.703  0.4113  0.1988  0.0336
 8960TIP3    H148371   1.024   3.630  15.733  1.0537 -0.5150  1.7556
 8960TIP3    H248372   1.167   3.587  15.760  1.7211 -1.5156 -2.6673
 8961TIP3   OH248373   3.899   5.273  12.892  0.0858  0.3848  0.5777
 8961TIP3    H148374   3.823   5.220  12.913 -0.6297  1.3965  0.6558
 8961TIP3    H248375   3.862   5.357  12.864  1.1232  0.3947 -0.8778
 8962TIP3   OH248376   4.081   6.389   5.057 -0.5045  0.3654  0.1239
 8962TIP3    H148377   4.044   6.324   5.116 -0.6375 -0.0391 -0.3987
 8962TIP3    H248378   4.022   6.464   5.064 -0.4785  0.3489  0.5547
 8963TIP3   OH248379   3.573   1.779   2.756  0.3029 -0.2297 -0.0023
 8963TIP3    H148380   3.574   1.694   2.713  1.8020  0.6420 -1.8896
 8963TIP3    H248381   3.492   1.821   2.725 -1.8019 -1.7785  2.9284
 8964TIP3   OH248382   5.767   0.921  11.167 -0.3353  0.2602 -0.0046
 8964TIP3    H148383   5.750   0.840  11.118  1.0340  0.9336 -1.7118
 8964TIP3    H248384   5.736   0.990  11.109 -0.1311  1.0330  0.7928
 8965TIP3   OH248385   1.552   4.074  14.105  0.1998 -0.4258  0.6321
 8965TIP3    H148386   1.629   4.018  14.099  0.6523  0.1192  1.1864
 8965TIP3    H248387   1.528   4.073  14.197 -1.0034 -1.2859  0.3270
 8966TIP3   OH248388   1.470   1.769  14.353 -0.0526 -0.0169  0.0624
 8966TIP3    H148389   1.436   1.830  14.419  1.1287 -0.0712  0.7520
 8966TIP3    H248390   1.436   1.684  14.380  0.6169 -0.0766  0.7716
 8967TIP3   OH248391   1.727   2.504   2.600 -0.2606  0.3746 -0.0161
 8967TIP3    H148392   1.739   2.432   2.538 -0.3716 -0.4790  0.9187
 8967TIP3    H248393   1.767   2.580   2.557 -0.0704 -0.2604 -0.9930
 8968TIP3   OH248394   5.756   6.724   4.717  0.1073  0.2260  0.0346
 8968TIP3    H148395   5.761   6.671   4.796  0.2752 -0.1849 -0.2455
 8968TIP3    H248396   5.676   6.775   4.727 -0.4630 -0.6354 -0.0233
 8969TIP3   OH248397   3.517   1.161   5.242  0.1718 -0.1362 -0.0248
 8969TIP3    H148398   3.468   1.241   5.264  2.0883  1.5428 -1.4367
 8969TIP3    H248399   3.508   1.105   5.319 -1.5991  1.2516  0.8569
 8970TIP3   OH248400   6.196   2.807   0.572  0.1767  0.5859 -0.0408
 8970TIP3    H148401   6.126   2.797   0.637  0.4817 -0.8197  0.0949
 8970TIP3    H248402   6.159   2.772   0.491  1.4109 -2.3094  0.5366
 8971TIP3   OH248403   1.735   5.452   0.195 -0.2461  0.2270  0.7715
 8971TIP3    H148404   1.670   5.409   0.251  0.5027  1.9299  3.1205
 8971TIP3    H248405   1.815   5.401   0.208 -0.6931 -1.0392 -1.0410
 8972TIP3   OH248406   2.603   2.542  15.695  0.0188  0.3242  0.1419
 8972TIP3    H148407   2.552   2.618  15.667  0.5473  1.4528  2.0563
 8972TIP3    H248408   2.682   2.580  15.732  1.2404 -1.2997 -0.7178
 8973TIP3   OH248409   1.632   5.218  14.355  0.0689 -0.0318  0.2982
 8973TIP3    H148410   1.546   5.248  14.327  0.8616  0.7935 -1.4773
 8973TIP3    H248411   1.616   5.136  14.401 -1.7662  0.7571  1.1652
 8974TIP3   OH248412   4.253   6.366  17.017 -0.2877  0.1655 -0.4884
 8974TIP3    H148413   4.281   6.303  17.083  0.9199 -0.1846 -1.2954
 8974TIP3    H248414   4.261   6.319  16.934 -0.6810  0.9528 -0.9866
 8975TIP3   OH248415   6.246   3.039   4.459 -0.1845 -0.2605  0.7411
 8975TIP3    H148416   6.196   3.020   4.379 -1.1851  0.7101  1.1153
 8975TIP3    H248417   6.179   3.053   4.526  0.5245  2.1046  1.0415
 8976TIP3   OH248418   4.874   6.245  15.370  0.5260  0.5400  0.1568
 8976TIP3    H148419   4.911   6.326  15.407  1.3143 -0.2942  1.2600
 8976TIP3    H248420   4.931   6.176  15.403 -1.5629 -0.7504  1.2802
 8977TIP3   OH248421   3.791   1.893  13.740 -0.6442  0.1189  0.0925
 8977TIP3    H148422   3.699   1.919  13.751 -0.9948  0.0973 -2.2646
 8977TIP3    H248423   3.826   1.955  13.677  0.9368  0.0051  0.8199
 8978TIP3   OH248424   0.601   6.050   0.826  0.6646  0.4329  0.9720
 8978TIP3    H148425   0.530   6.028   0.887 -0.6287  0.5013 -0.4607
 8978TIP3    H248426   0.671   6.085   0.883  0.6651 -2.1493  2.7203
 8979TIP3   OH248427   5.468   4.171  16.797  0.4384  0.5651  0.4821
 8979TIP3    H148428   5.473   4.091  16.744  2.7774  1.0514 -0.1431
 8979TIP3    H248429   5.452   4.241  16.734  1.1742  0.9001  0.6540
 8980TIP3   OH248430   4.842   3.334  16.733 -0.1036  0.4579 -0.2645
 8980TIP3    H148431   4.900   3.366  16.803  0.8798  0.7805 -1.1932
 8980TIP3    H248432   4.858   3.240  16.730 -0.9830  0.2555  0.6634
 8981TIP3   OH248433   1.590   4.198  14.389 -0.1893  0.0932  0.4313
 8981TIP3    H148434   1.553   4.128  14.442 -0.1325 -0.0455  0.2903
 8981TIP3    H248435   1.680   4.169  14.371  0.6511  1.3073  2.3902
 8982TIP3   OH248436   6.373   4.135  13.277 -1.2638 -0.3137  0.4354
 8982TIP3    H148437   6.301   4.074  13.293 -0.5124 -0.9976  1.3219
 8982TIP3    H248438   6.433   4.122  13.351 -0.0370 -0.0541 -0.4808
 8983TIP3   OH248439   2.431   1.496  13.968 -0.1382 -0.2064 -0.2627
 8983TIP3    H148440   2.504   1.449  13.927 -0.7342 -1.1070 -0.3256
 8983TIP3    H248441   2.423   1.577  13.919 -0.1053 -0.7566 -1.1917
 8984TIP3   OH248442   0.407   6.116   0.641  0.3945 -0.4634  0.0942
 8984TIP3    H148443   0.378   6.207   0.640 -1.2213 -0.8545  2.4000
 8984TIP3    H248444   0.473   6.113   0.709  0.7657 -0.9478 -0.2815
 8985TIP3   OH248445   0.470   6.445   3.869  0.0278 -0.1513  0.0302
 8985TIP3    H148446   0.481   6.522   3.925 -0.2337 -0.0161 -0.1033
 8985TIP3    H248447   0.530   6.380   3.906 -0.1099 -0.0467  0.4423
 8986TIP3   OH248448   0.179   6.064  16.912 -0.0783  0.3053  0.3933
 8986TIP3    H148449   0.228   6.111  16.980  0.5660 -1.4522  1.2203
 8986TIP3    H248450   0.244   6.046  16.844 -0.1994  0.1911  0.3076
 8987TIP3   OH248451   0.200   1.287   0.750  0.7706 -0.4232  0.2880
 8987TIP3    H148452   0.231   1.370   0.787  0.5675  0.5186 -1.5474
 8987TIP3    H248453   0.272   1.259   0.693  0.1601 -0.6359 -0.3830
 8988TIP3   OH248454   4.240   4.354  15.474 -0.1492 -0.0895  0.4293
 8988TIP3    H148455   4.266   4.389  15.559 -0.4386  0.3979  0.3230
 8988TIP3    H248456   4.294   4.276  15.462  0.8777  0.6072  0.4482
 8989TIP3   OH248457   2.918   4.957   5.653 -0.2248 -0.6822 -0.3423
 8989TIP3    H148458   2.836   4.915   5.679  0.1412 -2.0769 -1.3158
 8989TIP3    H248459   2.910   5.047   5.684 -2.7387 -0.3632 -1.7083
 8990TIP3   OH248460   5.384   6.391  15.599 -0.2266  1.0626 -0.0025
 8990TIP3    H148461   5.462   6.443  15.622  0.6797  0.5664 -1.7689
 8990TIP3    H248462   5.419   6.306  15.573 -1.3976  0.7570 -0.6318
 8991TIP3   OH248463   3.418   2.112   2.546 -0.4217  0.0889 -0.0120
 8991TIP3    H148464   3.434   2.018   2.551  0.4965  0.2171 -0.3613
 8991TIP3    H248465   3.483   2.144   2.484 -1.5581  0.7731 -0.8876
 8992TIP3   OH248466   0.634   3.387   5.931  0.5346  0.4742 -0.6246
 8992TIP3    H148467   0.647   3.413   6.022  0.1439  1.4857 -0.8504
 8992TIP3    H248468   0.719   3.401   5.889  1.1313 -1.3231 -0.1355
 8993TIP3   OH248469   1.270   6.768  14.181  0.2482  0.6475 -0.0489
 8993TIP3    H148470   1.354   6.722  14.170  0.2693  1.0919 -2.3129
 8993TIP3    H248471   1.231   6.767  14.093 -1.8209  1.0550  0.8108
 8994TIP3   OH248472   5.414   4.408   0.444 -0.2810  0.1184 -0.4728
 8994TIP3    H148473   5.464   4.395   0.363  0.4911 -0.6579  0.1064
 8994TIP3    H248474   5.379   4.497   0.437  2.4859  1.3112 -0.2331
 8995TIP3   OH248475   2.591   4.979   3.125  0.2037 -0.2257  0.4615
 8995TIP3    H148476   2.568   5.036   3.199  0.7692 -0.3538  0.7486
 8995TIP3    H248477   2.669   5.020   3.087  1.5284 -1.5707  1.5868
 8996TIP3   OH248478   4.548   4.181  14.264 -0.0261  0.2926  0.2995
 8996TIP3    H148479   4.600   4.208  14.188  0.8636  0.3185  0.8933
 8996TIP3    H248480   4.467   4.230  14.257  0.6599  1.4329  0.1651
 8997TIP3   OH248481   3.913   3.647  16.902 -0.0138 -0.5008 -0.5202
 8997TIP3    H148482   3.879   3.610  16.983  1.4442 -0.2684  0.2266
 8997TIP3    H248483   3.837   3.689  16.861 -1.2303 -2.3793 -0.3194
 8998TIP3   OH248484   6.710   2.630  13.422  0.2508  0.1103  0.0530
 8998TIP3    H148485   6.770   2.694  13.460 -0.6999  0.7543  0.5038
 8998TIP3    H248486   6.662   2.595  13.496  0.0674 -0.4083 -0.3020
 8999TIP3   OH248487   1.187   0.750  16.872  0.1167 -0.1455 -0.0561
 8999TIP3    H148488   1.148   0.699  16.943  2.3267 -2.9130 -0.6751
 8999TIP3    H248489   1.275   0.773  16.905  0.5316 -0.0023 -1.2261
 9000TIP3   OH248490   5.771   6.347  13.583  0.2411 -0.4525  0.1245
 9000TIP3    H148491   5.681   6.373  13.602  0.0069 -0.2928 -1.0685
 9000TIP3    H248492   5.793   6.284  13.652  0.1254  1.3551  1.8887
 9001TIP3   OH248493   6.260   2.200  13.840  0.0930 -0.1746 -0.6336
 9001TIP3    H148494   6.291   2.280  13.798 -3.1565  1.4555 -0.2585
 9001TIP3    H248495   6.257   2.135  13.770 -1.0966  1.2588 -1.9655
 9002TIP3   OH248496   3.299   2.429  15.522  0.7539  0.4617  0.2710
 9002TIP3    H148497   3.308   2.524  15.518  0.9634  0.4732  0.8605
 9002TIP3    H248498   3.320   2.407  15.613 -0.4368 -0.0208  0.4491
 9003TIP3   OH248499   1.574   6.189   0.846  0.8201  0.2524  0.2265
 9003TIP3    H148500   1.509   6.223   0.908 -1.4336 -2.8994 -0.1532
 9003TIP3    H248501   1.538   6.209   0.760  1.3738  0.2671 -0.0004
 9004TIP3   OH248502   1.498   0.215   2.648  0.1114  0.6490  0.1042
 9004TIP3    H148503   1.488   0.283   2.582 -0.6647  0.6300  0.1930
 9004TIP3    H248504   1.593   0.204   2.657  0.2315  1.0080 -0.6350
 9005TIP3   OH248505   1.238   1.732  17.035  0.3573  0.2304 -0.0715
 9005TIP3    H148506   1.318   1.719  17.088 -0.9331  0.0397  1.9559
 9005TIP3    H248507   1.189   1.650  17.046 -0.4435  0.6111 -0.7131
 9006TIP3   OH248508   5.972   1.983   1.243  0.3999 -0.8980 -0.3118
 9006TIP3    H148509   5.951   1.924   1.170 -1.8391 -0.5015 -0.0643
 9006TIP3    H248510   6.048   2.033   1.213  1.0383 -2.4127 -1.3713
 9007TIP3   OH248511   5.544   4.265  16.101  0.0239  0.1928  0.0375
 9007TIP3    H148512   5.578   4.184  16.139 -2.3947 -0.3328  1.2453
 9007TIP3    H248513   5.601   4.334  16.136  0.7582 -0.7514  0.7547
 9008TIP3   OH248514   1.739   5.192  15.198 -0.1882  0.0757  0.2015
 9008TIP3    H148515   1.830   5.199  15.227 -0.2858  1.7386  0.2047
 9008TIP3    H248516   1.734   5.108  15.153  1.5194  0.2334 -0.3376
 9009TIP3   OH248517   4.839   5.518  12.283  0.1738 -0.2744  0.5438
 9009TIP3    H148518   4.892   5.475  12.350  0.6280  0.2669  0.5345
 9009TIP3    H248519   4.847   5.612  12.303 -0.5521 -0.1714  0.3747
 9010TIP3   OH248520   3.269   2.979  11.767  0.3035  0.0908 -0.5154
 9010TIP3    H148521   3.184   3.000  11.728  0.3985  0.3294 -0.5931
 9010TIP3    H248522   3.247   2.929  11.845  0.0293  1.2465  0.1778
 9011TIP3   OH248523   0.217   0.862   0.255 -0.1201 -0.3719 -0.0769
 9011TIP3    H148524   0.288   0.885   0.315  0.3173  0.8511 -1.0048
 9011TIP3    H248525   0.254   0.795   0.199 -0.4097 -1.2519  0.7557
 9012TIP3   OH248526   2.002   6.679  11.911 -0.3329  0.2918  0.5804
 9012TIP3    H148527   2.087   6.721  11.900 -0.8938  1.6388  1.2320
 9012TIP3    H248528   2.001   6.611  11.843  1.4661 -0.1328  0.9031
 9013TIP3   OH248529   5.812   6.018  16.912  0.4943 -0.4191 -0.0504
 9013TIP3    H148530   5.782   6.105  16.886  0.4978 -0.7479 -1.2030
 9013TIP3    H248531   5.732   5.974  16.941  0.3653 -0.2931 -0.2108
 9014TIP3   OH248532   0.898   0.513   4.519  0.0536 -0.0479 -0.5367
 9014TIP3    H148533   0.938   0.486   4.602  0.3694  0.1019 -0.6369
 9014TIP3    H248534   0.835   0.580   4.543 -0.8685 -0.9855 -0.2650
 9015TIP3   OH248535   5.704   5.548   3.996 -0.4782 -0.6816  0.0170
 9015TIP3    H148536   5.648   5.522   4.069 -0.7930 -1.3556 -0.4606
 9015TIP3    H248537   5.762   5.614   4.034 -0.8665 -0.7658  0.7895
 9016TIP3   OH248538   5.039   0.568   4.418 -0.0762  0.1918  0.3068
 9016TIP3    H148539   4.991   0.485   4.427 -0.0674  0.2647  1.0664
 9016TIP3    H248540   5.106   0.549   4.352 -0.2753 -0.3151  0.2420
 9017TIP3   OH248541   4.232   4.462   5.909 -0.0282 -0.2607 -0.0345
 9017TIP3    H148542   4.178   4.535   5.937  1.0614  0.4922  0.1506
 9017TIP3    H248543   4.319   4.499   5.898  0.9554 -1.8737  1.7716
 9018TIP3   OH248544   1.058   3.611  14.981  0.7808  0.1520  0.0571
 9018TIP3    H148545   1.062   3.519  14.953  0.7396  0.4805 -1.0745
 9018TIP3    H248546   1.149   3.640  14.978  0.9882 -0.2204  1.7768
 9019TIP3   OH248547   2.009   4.569  10.909 -0.0606  0.3263 -0.5999
 9019TIP3    H148548   2.059   4.495  10.875 -1.4258 -0.7397 -0.3609
 9019TIP3    H248549   2.040   4.581  10.999  1.6071  1.3972 -1.2644
 9020TIP3   OH248550   6.064   0.975  12.417 -0.7304  0.9533  0.1076
 9020TIP3    H148551   5.980   0.973  12.463 -1.0679 -0.0851 -0.5101
 9020TIP3    H248552   6.110   1.052  12.452 -1.0181  0.2748  2.0709
 9021TIP3   OH248553   6.098   0.555   1.232  1.0806  0.3058 -0.4017
 9021TIP3    H148554   6.056   0.641   1.220 -0.0993 -0.0569  0.8030
 9021TIP3    H248555   6.139   0.536   1.148 -0.1328  1.2698 -1.2459
 9022TIP3   OH248556   6.127   2.310  16.961  0.3149 -0.1003  0.6532
 9022TIP3    H148557   6.107   2.294  16.868 -2.5741 -0.6712  1.2611
 9022TIP3    H248558   6.204   2.256  16.979 -0.0608 -1.3014 -1.0415
 9023TIP3   OH248559   1.994   1.614   2.299  0.0641  0.4307 -0.7242
 9023TIP3    H148560   1.996   1.529   2.342 -1.5007  0.5660 -0.3040
 9023TIP3    H248561   2.052   1.605   2.224 -1.6205 -1.6885 -1.8937
 9024TIP3   OH248562   2.614   3.151  16.588 -0.1376  0.6156  0.2034
 9024TIP3    H148563   2.651   3.236  16.564 -0.8453  1.4711  2.0002
 9024TIP3    H248564   2.608   3.104  16.505  3.0566  1.1592 -0.4539
 9025TIP3   OH248565   3.789   1.998  14.153 -0.2864  0.3081  0.1069
 9025TIP3    H148566   3.732   1.956  14.088  0.6307 -0.7104 -0.0657
 9025TIP3    H248567   3.771   1.952  14.235  0.1583  0.0897  0.0871
 9026TIP3   OH248568   5.537   5.371   0.413 -0.0491  0.1919 -0.2373
 9026TIP3    H148569   5.538   5.423   0.332 -1.3210  0.8054  0.1187
 9026TIP3    H248570   5.589   5.293   0.392  1.1742  1.1847 -1.0630
 9027TIP3   OH248571   5.125   4.425  11.418  0.0089 -0.9348 -0.3934
 9027TIP3    H148572   5.044   4.387  11.453 -1.4050  1.8089 -0.4507
 9027TIP3    H248573   5.121   4.408  11.324 -1.8503  1.2743 -0.8077
 9028TIP3   OH248574   0.179   5.704  11.940  0.5081 -0.0628  0.0062
 9028TIP3    H148575   0.148   5.732  11.855  0.0681 -1.0786 -0.1786
 9028TIP3    H248576   0.179   5.608  11.936  2.5785 -0.1448  0.3786
 9029TIP3   OH248577   6.502   0.416  12.775 -0.3266 -0.2024 -0.2923
 9029TIP3    H148578   6.480   0.390  12.686  0.8912 -2.2696 -0.0646
 9029TIP3    H248579   6.578   0.474  12.765 -0.1546 -0.4791 -0.6097
 9030TIP3   OH248580   6.494   5.611  14.161 -0.1696 -0.4181 -0.1120
 9030TIP3    H148581   6.584   5.615  14.128  0.1087 -1.2752  0.5081
 9030TIP3    H248582   6.485   5.523  14.197 -1.7530 -0.8754 -1.5092
 9031TIP3   OH248583   3.869   4.673   4.942 -0.5665  0.1288  0.4244
 9031TIP3    H148584   3.963   4.664   4.957 -0.1464  0.2174 -1.8437
 9031TIP3    H248585   3.829   4.648   5.026  1.4175 -0.6513  1.2033
 9032TIP3   OH248586   1.785   0.943   1.970 -0.4847  0.0061 -0.2950
 9032TIP3    H148587   1.798   0.848   1.966 -0.5949 -0.0636  0.7616
 9032TIP3    H248588   1.692   0.955   1.953 -0.2784  0.0219 -1.5112
 9033TIP3   OH248589   6.112   1.101   0.743 -0.4381  0.4920  0.3284
 9033TIP3    H148590   6.080   1.188   0.766  0.8096  1.6409 -1.9408
 9033TIP3    H248591   6.154   1.113   0.657  1.3816 -1.9684  0.7718
 9034TIP3   OH248592   0.786   1.723   1.347 -0.1335  0.0888  0.0806
 9034TIP3    H148593   0.723   1.743   1.416  0.3253 -0.0477  0.5487
 9034TIP3    H248594   0.794   1.627   1.348 -0.3405  0.0638 -0.3589
 9035TIP3   OH248595   3.564   1.692   6.150 -0.7237  0.6044 -0.0398
 9035TIP3    H148596   3.471   1.697   6.174 -0.8472 -1.3453  0.1029
 9035TIP3    H248597   3.562   1.677   6.055 -0.7099 -1.3722  0.2117
 9036TIP3   OH248598   6.128   0.853  15.823 -0.1556  0.3737 -0.5608
 9036TIP3    H148599   6.085   0.922  15.773 -1.3796  1.4549  1.8091
 9036TIP3    H248600   6.217   0.886  15.837 -0.4662  1.0870 -0.1953
 9037TIP3   OH248601   4.524   2.992  15.485 -0.0182 -0.3479 -0.5621
 9037TIP3    H148602   4.487   3.004  15.397  1.1386 -1.0532 -1.1672
 9037TIP3    H248603   4.539   3.081  15.517 -1.8673 -0.0404 -0.4326
 9038TIP3   OH248604   6.394   5.940   3.256  0.0256 -0.2330 -0.2169
 9038TIP3    H148605   6.418   5.894   3.176 -0.7737 -1.8705  0.4510
 9038TIP3    H248606   6.298   5.932   3.261  0.1227 -0.7123  1.2223
 9039TIP3   OH248607   4.079   2.588  16.193 -0.5087  0.6745  0.6351
 9039TIP3    H148608   3.996   2.622  16.226 -1.0939  0.3912 -0.4845
 9039TIP3    H248609   4.063   2.494  16.182  0.2285  0.4743  1.1586
 9040TIP3   OH248610   5.048   3.495  11.631 -0.0309  0.6297 -0.1670
 9040TIP3    H148611   5.099   3.552  11.573  1.5149 -0.1619  0.3555
 9040TIP3    H248612   5.007   3.555  11.694  1.0277  1.2324 -0.0310
 9041TIP3   OH248613   0.386   1.233  13.461 -0.2867  0.0986  0.6751
 9041TIP3    H148614   0.380   1.229  13.365 -0.6370 -0.8889  0.7310
 9041TIP3    H248615   0.476   1.263  13.478 -0.2817  0.4625  0.0382
 9042TIP3   OH248616   0.878   3.887   6.372  0.4158  0.6777  0.1150
 9042TIP3    H148617   0.782   3.893   6.368  0.4948  1.0973 -1.5841
 9042TIP3    H248618   0.894   3.803   6.414 -0.6882  0.9297  1.1055
 9043TIP3   OH248619   3.224   2.850   2.620  0.7758 -0.2807  0.4633
 9043TIP3    H148620   3.286   2.921   2.640 -1.1837  1.4468  0.7336
 9043TIP3    H248621   3.211   2.805   2.703  0.6531  0.2230  0.7227
 9044TIP3   OH248622   1.920   2.086  11.240 -0.4456  0.6345  0.0054
 9044TIP3    H148623   1.831   2.074  11.208 -0.8115  0.4222  1.0661
 9044TIP3    H248624   1.975   2.049  11.171 -1.1154  1.6365 -1.1091
 9045TIP3   OH248625   1.116   0.483   5.443  0.0113 -0.4807 -0.1937
 9045TIP3    H148626   1.185   0.550   5.440  0.5226 -0.9903 -0.0161
 9045TIP3    H248627   1.035   0.533   5.445  0.2242  0.1342 -2.9308
 9046TIP3   OH248628   3.370   3.238  16.228 -0.3336  0.3024  0.3250
 9046TIP3    H148629   3.353   3.233  16.323  0.5449  0.0787  0.4827
 9046TIP3    H248630   3.371   3.332  16.209 -1.0482  0.3383  0.4279
 9047TIP3   OH248631   6.017   6.325  13.000 -1.3528  0.2990 -0.2956
 9047TIP3    H148632   6.066   6.252  13.037 -0.1101  0.5385 -1.3779
 9047TIP3    H248633   6.067   6.403  13.026 -1.0425  0.5371 -1.5203
 9048TIP3   OH248634   6.597   3.399   5.446  0.1400 -0.1047 -0.0217
 9048TIP3    H148635   6.609   3.305   5.438 -0.1502 -0.3129  1.7118
 9048TIP3    H248636   6.683   3.436   5.425  0.4886 -0.8035  0.1611
 9049TIP3   OH248637   1.498   6.660   4.065  0.1590  0.1504 -0.4682
 9049TIP3    H148638   1.470   6.597   3.998  0.9683 -0.0379 -0.6344
 9049TIP3    H248639   1.544   6.728   4.017  2.7167 -1.0805  0.0479
 9050TIP3   OH248640   5.892   3.703   4.838  0.1849 -0.0220  0.2096
 9050TIP3    H148641   5.810   3.697   4.789 -0.0082  2.4850  0.0760
 9050TIP3    H248642   5.865   3.699   4.930 -0.0847  0.6977  0.1645
 9051TIP3   OH248643   2.091   2.778   2.631  0.0283 -0.0717 -0.3704
 9051TIP3    H148644   2.060   2.846   2.572  2.5056  3.5397  2.1053
 9051TIP3    H248645   2.019   2.764   2.692 -0.9245 -0.6210 -1.5858
 9052TIP3   OH248646   2.214   1.348  16.402  0.2438 -0.3395  0.5768
 9052TIP3    H148647   2.195   1.414  16.335 -0.4319  0.1557  1.2405
 9052TIP3    H248648   2.256   1.396  16.472  1.6758 -0.9975  0.2067
 9053TIP3   OH248649   3.985   4.447   4.158  0.2943  0.2087 -0.0419
 9053TIP3    H148650   4.022   4.535   4.163 -0.0743  0.3277  0.6934
 9053TIP3    H248651   4.026   4.399   4.229  0.8666 -0.3725 -0.7458
 9054TIP3   OH248652   4.303   1.576  16.759 -0.0059  0.5868  0.3686
 9054TIP3    H148653   4.265   1.488  16.765 -0.0149  0.5990  0.5025
 9054TIP3    H248654   4.332   1.583  16.669  0.9327  0.0561  0.6171
 9055TIP3   OH248655   4.828   2.500  14.837 -0.0025  0.2036 -0.3423
 9055TIP3    H148656   4.851   2.545  14.756 -0.4834 -1.4797 -1.4721
 9055TIP3    H248657   4.909   2.456  14.863  0.2891  1.1502  0.3941
 9056TIP3   OH248658   0.145   1.230  15.374 -0.2355  0.7799 -0.2092
 9056TIP3    H148659   0.200   1.158  15.404  0.3377  1.7002  1.0205
 9056TIP3    H248660   0.056   1.199  15.388 -0.0422 -0.2388 -1.0650
 9057TIP3   OH248661   5.231   1.663   4.037  0.2067  0.9716  0.7083
 9057TIP3    H148662   5.320   1.630   4.034 -0.1217  0.1318 -0.1295
 9057TIP3    H248663   5.241   1.755   4.063  1.4022  1.2113 -0.4831
 9058TIP3   OH248664   3.571   3.337  16.040 -0.0487  0.1658 -0.5478
 9058TIP3    H148665   3.522   3.260  16.069  0.6015  0.1495  0.5559
 9058TIP3    H248666   3.637   3.302  15.980 -0.3100 -0.0208 -0.7278
 9059TIP3   OH248667   4.640   0.866  11.898 -0.6485  0.2253  0.3515
 9059TIP3    H148668   4.554   0.883  11.936 -0.7860  1.9021 -0.5920
 9059TIP3    H248669   4.674   0.791  11.946 -1.3055  1.4877  2.9419
 9060TIP3   OH248670   5.721   3.373   3.940  0.2566 -0.3991 -0.5843
 9060TIP3    H148671   5.796   3.405   3.891 -0.4482  0.2629 -1.2425
 9060TIP3    H248672   5.686   3.450   3.985  1.0603 -1.0294  1.2434
 9061TIP3   OH248673   2.839   3.758   0.710 -0.2525 -0.0978 -0.1182
 9061TIP3    H148674   2.771   3.802   0.761 -2.5436 -3.6610  0.2568
 9061TIP3    H248675   2.874   3.691   0.769  1.4982 -0.3333 -1.3189
 9062TIP3   OH248676   2.573   6.478  11.840  0.0183  0.3088 -0.5160
 9062TIP3    H148677   2.570   6.548  11.906 -1.3738 -0.9782  0.8619
 9062TIP3    H248678   2.641   6.507  11.778  2.3936  0.9726  2.1734
 9063TIP3   OH248679   1.290   2.443   1.035 -0.1577  0.1171  0.1818
 9063TIP3    H148680   1.212   2.476   0.991  0.4862  0.8009 -0.4762
 9063TIP3    H248681   1.356   2.512   1.023  0.2049  0.0965  1.7605
 9064TIP3   OH248682   6.025   1.361   0.531 -0.0783  0.6868  0.4299
 9064TIP3    H148683   6.056   1.351   0.621 -0.2132  0.5214  0.4587
 9064TIP3    H248684   5.986   1.276   0.510 -0.4155  0.8574  0.3607
 9065TIP3   OH248685   5.943   3.185   1.094  0.7422  0.3158 -0.2697
 9065TIP3    H148686   5.911   3.275   1.094  1.4410  0.6345  2.0760
 9065TIP3    H248687   5.898   3.144   1.168  1.5251 -0.8374 -0.4147
 9066TIP3   OH248688   2.532   0.846  12.878  0.4547  0.2729 -0.0949
 9066TIP3    H148689   2.438   0.846  12.856  0.1213 -0.7753  1.1539
 9066TIP3    H248690   2.536   0.891  12.962  1.3014  1.6484 -0.8463
 9067TIP3   OH248691   4.554   4.428   5.178  0.3523 -0.0888  0.0002
 9067TIP3    H148692   4.497   4.481   5.121 -1.1588  0.9250  2.3123
 9067TIP3    H248693   4.531   4.338   5.157 -0.7245  0.2716 -0.4752
 9068TIP3   OH248694   4.715   2.709  15.913  0.2760 -1.3025 -0.3109
 9068TIP3    H148695   4.809   2.699  15.900  0.5528  0.1483  0.3478
 9068TIP3    H248696   4.675   2.655  15.845  1.5994  0.2538 -2.4557
 9069TIP3   OH248697   0.256   3.337  15.467  0.0568 -0.4941  0.1346
 9069TIP3    H148698   0.248   3.246  15.495  0.0435 -0.7967 -0.8064
 9069TIP3    H248699   0.166   3.366  15.455 -0.0240  0.2238  2.1491
 9070TIP3   OH248700   5.360   6.659   3.583 -0.6180 -0.2815 -0.0672
 9070TIP3    H148701   5.315   6.741   3.598  1.3223  1.3701 -2.4586
 9070TIP3    H248702   5.355   6.646   3.488  0.7619 -1.9254  0.0329
 9071TIP3   OH248703   2.680   5.223  14.375 -0.3610  1.0823  0.0181
 9071TIP3    H148704   2.770   5.194  14.392  0.1771  2.2558 -0.6810
 9071TIP3    H248705   2.627   5.173  14.437  0.5301 -1.0575 -0.8459
 9072TIP3   OH248706   5.373   5.468  16.737 -0.1519  0.3938  0.0324
 9072TIP3    H148707   5.338   5.379  16.737 -0.7373  0.6228  0.4357
 9072TIP3    H248708   5.441   5.467  16.670  0.9489 -0.8009  1.0991
 9073TIP3   OH248709   1.129   2.004  16.688  0.2723 -0.1850  0.1907
 9073TIP3    H148710   1.221   2.003  16.662  0.2435 -0.6599  0.0836
 9073TIP3    H248711   1.081   2.019  16.606  0.2678  0.4485  0.3041
 9074TIP3   OH248712   2.755   4.033   4.346  0.3154 -0.4120  0.5283
 9074TIP3    H148713   2.740   3.995   4.433  1.2443  0.6157  1.1585
 9074TIP3    H248714   2.688   3.992   4.291 -0.1270 -1.2818  1.6598
 9075TIP3   OH248715   6.096   6.020  15.217  0.1302 -0.0343 -0.4624
 9075TIP3    H148716   6.046   5.974  15.149  1.4567 -0.7275 -1.0057
 9075TIP3    H248717   6.064   5.984  15.299  0.5334 -1.3181 -0.8522
 9076TIP3   OH248718   1.603   5.315   1.007  0.1651 -0.0759  0.3812
 9076TIP3    H148719   1.660   5.311   0.930 -1.3941 -0.9033 -0.7857
 9076TIP3    H248720   1.656   5.280   1.078  1.5313  0.3904 -0.3715
 9077TIP3   OH248721   2.774   1.568   5.174 -0.1171  0.6077  0.5247
 9077TIP3    H148722   2.738   1.522   5.098 -0.5587 -0.4179  1.3335
 9077TIP3    H248723   2.699   1.614   5.212 -0.6425 -1.4071  2.1220
 9078TIP3   OH248724   5.036   4.871  12.063 -0.2030 -0.2282 -0.5005
 9078TIP3    H148725   5.070   4.791  12.022  0.6168  0.0726 -0.4175
 9078TIP3    H248726   5.030   4.934  11.991  1.1180  0.2610 -0.1987
 9079TIP3   OH248727   4.173   3.195  12.995 -0.5190 -0.5793  0.6506
 9079TIP3    H148728   4.249   3.207  13.051 -0.9516 -0.6587  1.2710
 9079TIP3    H248729   4.202   3.221  12.908  0.4912 -1.5401  0.6867
 9080TIP3   OH248730   6.731   4.622  12.141  0.0306 -0.3113 -0.0100
 9080TIP3    H148731   6.704   4.609  12.050 -0.1292 -0.4763  0.0607
 9080TIP3    H248732   6.827   4.628  12.137  0.0361 -0.4995 -0.1670
 9081TIP3   OH248733   1.916   5.965   4.736  0.1627 -0.3697  0.0568
 9081TIP3    H148734   1.898   6.009   4.652  0.3859  1.4712  0.9076
 9081TIP3    H248735   1.830   5.940   4.769 -0.4245  2.5642  1.0982
 9082TIP3   OH248736   1.677   3.748  13.121 -0.3171 -0.6705 -0.3192
 9082TIP3    H148737   1.654   3.658  13.100 -2.4475 -1.4887  4.3418
 9082TIP3    H248738   1.773   3.748  13.122 -0.2554 -3.1029  0.2782
 9083TIP3   OH248739   0.916   3.746   1.936  0.2912 -0.2172  0.4540
 9083TIP3    H148740   0.989   3.698   1.976  0.9967  0.0232 -0.5100
 9083TIP3    H248741   0.841   3.688   1.949  0.5143 -0.2195  1.9574
 9084TIP3   OH248742   0.854   4.872   0.670 -0.5134 -1.0793 -0.6270
 9084TIP3    H148743   0.834   4.806   0.603  0.6207 -2.1635  0.0524
 9084TIP3    H248744   0.860   4.823   0.751 -1.5873  0.1834  0.2449
 9085TIP3   OH248745   0.348   1.532   4.469 -0.2017  0.2998 -0.4086
 9085TIP3    H148746   0.301   1.569   4.394  0.5286  0.0784 -0.9894
 9085TIP3    H248747   0.287   1.542   4.543 -0.3691  1.8541 -0.7203
 9086TIP3   OH248748   6.012   2.470  12.205  0.2752 -0.4558 -0.3050
 9086TIP3    H148749   5.939   2.423  12.245  1.2794 -0.2197  2.0030
 9086TIP3    H248750   6.090   2.437  12.251  1.0887  2.9639  1.1250
 9087TIP3   OH248751   5.255   6.054  14.372  0.8662 -0.4094 -0.1863
 9087TIP3    H148752   5.263   5.997  14.448  0.4273  0.0944  0.2434
 9087TIP3    H248753   5.341   6.095  14.362  1.8801 -2.7137 -1.7887
 9088TIP3   OH248754   6.627   6.598  12.973  0.0856  0.1504 -0.2305
 9088TIP3    H148755   6.699   6.651  12.939  1.2332 -1.0632  0.2400
 9088TIP3    H248756   6.549   6.632  12.929  0.4142  3.6088  1.5221
 9089TIP3   OH248757   0.186   6.207  14.757 -0.4833  0.2632 -0.0981
 9089TIP3    H148758   0.131   6.212  14.835 -0.4260 -0.4583 -0.0084
 9089TIP3    H248759   0.146   6.268  14.695 -0.6418  0.6897  0.4251
 9090TIP3   OH248760   4.425   4.192   3.569  0.5268  0.1801 -0.1414
 9090TIP3    H148761   4.418   4.103   3.604  0.4012  0.4260  0.4881
 9090TIP3    H248762   4.516   4.217   3.588  0.1601  0.7058  1.0125
 9091TIP3   OH248763   6.308   4.422  12.936  0.8008 -0.1869 -0.3973
 9091TIP3    H148764   6.337   4.481  12.867 -0.2896  0.6302 -0.1842
 9091TIP3    H248765   6.292   4.338  12.892  0.4958  0.2177 -1.0739
 9092TIP3   OH248766   5.974   4.893   2.470 -0.0941  0.0706 -1.0110
 9092TIP3    H148767   5.884   4.877   2.443 -0.4635 -0.3390  0.3621
 9092TIP3    H248768   5.979   4.988   2.484 -1.0204 -0.1566  1.1680
 9093TIP3   OH248769   1.055   3.833   0.950  0.3454  0.5322  0.2936
 9093TIP3    H148770   1.077   3.740   0.954 -3.3044 -0.4320  1.1666
 9093TIP3    H248771   1.066   3.856   0.858  1.3303 -0.7254  0.0631
 9094TIP3   OH248772   5.144   2.407   0.907  0.5455 -0.2698  0.1424
 9094TIP3    H148773   5.166   2.327   0.955 -2.2483 -0.9131  0.5120
 9094TIP3    H248774   5.136   2.379   0.816 -0.8614 -0.5795  0.3300
 9095TIP3   OH248775   1.322   5.992   0.901  0.2690 -0.5442 -0.3367
 9095TIP3    H148776   1.261   6.048   0.949  0.3009 -0.7648 -0.0385
 9095TIP3    H248777   1.295   6.001   0.810 -0.1155 -0.5259 -0.2239
 9096TIP3   OH248778   4.123   0.872  11.902 -0.0474 -0.0519  0.0473
 9096TIP3    H148779   4.091   0.798  11.850  1.9007 -0.3054 -0.8836
 9096TIP3    H248780   4.193   0.910  11.848 -0.9774  2.4668  0.5216
 9097TIP3   OH248781   6.746   2.372  16.912  0.2782 -0.0019  0.7308
 9097TIP3    H148782   6.800   2.307  16.866  0.1783  0.1696  0.3717
 9097TIP3    H248783   6.770   2.362  17.004 -0.4897 -1.2867  0.8180
 9098TIP3   OH248784   2.367   0.758  11.409 -0.6982  0.3463  0.2995
 9098TIP3    H148785   2.353   0.821  11.480 -0.8296  0.4799  0.1545
 9098TIP3    H248786   2.423   0.805  11.347  1.2179 -0.4784  1.2997
 9099TIP3   OH248787   6.500   5.530   4.531  0.3339 -0.2386 -0.2419
 9099TIP3    H148788   6.570   5.593   4.511  0.3305  0.2169  1.1311
 9099TIP3    H248789   6.428   5.557   4.475 -0.0149  1.6387  1.0177
 9100TIP3   OH248790   5.756   1.327   4.300  0.1704  0.3449  0.0637
 9100TIP3    H148791   5.777   1.288   4.385 -0.4982 -1.8362 -0.6923
 9100TIP3    H248792   5.662   1.340   4.302  0.4859  3.3708  0.7809
 9101TIP3   OH248793   4.682   0.743  11.038  0.6700 -0.3934  0.3401
 9101TIP3    H148794   4.671   0.826  10.992 -0.5508 -0.7106  0.0353
 9101TIP3    H248795   4.711   0.682  10.971 -0.5518 -0.7187  0.0867
 9102TIP3   OH248796   3.794   4.661   4.205  0.1247 -0.4145 -0.2323
 9102TIP3    H148797   3.836   4.630   4.125  0.2170  2.8414 -1.6426
 9102TIP3    H248798   3.865   4.701   4.255 -0.4810  0.9482 -0.4048
 9103TIP3   OH248799   6.302   4.752  16.722  0.5832  0.4530  0.2348
 9103TIP3    H148800   6.327   4.772  16.812  0.9892  1.9380 -0.1712
 9103TIP3    H248801   6.345   4.820  16.670  0.0012 -0.1186 -1.0347
 9104TIP3   OH248802   4.681   5.403   3.747 -0.4368  0.1086 -0.3152
 9104TIP3    H148803   4.625   5.345   3.799 -1.9318  1.3530 -0.4594
 9104TIP3    H248804   4.635   5.487   3.747  0.2386  0.5557 -2.4141
 9105TIP3   OH248805   4.556   2.811   4.588 -0.2748 -0.2399  0.4659
 9105TIP3    H148806   4.561   2.719   4.565 -0.0126 -0.1316  0.0850
 9105TIP3    H248807   4.486   2.816   4.654 -1.1488 -0.5280 -0.4163
 9106TIP3   OH248808   1.183   1.835   2.134 -0.5258 -0.2486  0.6336
 9106TIP3    H148809   1.157   1.912   2.186 -0.4567 -0.8904  1.6526
 9106TIP3    H248810   1.107   1.777   2.141 -0.4520 -0.4015  0.1263
 9107TIP3   OH248811   5.313   1.976  11.158 -0.0788 -0.5928 -0.5807
 9107TIP3    H148812   5.230   1.941  11.190 -1.6854  2.7793 -0.5952
 9107TIP3    H248813   5.366   1.989  11.237 -0.5725 -0.4331 -0.2752
 9108TIP3   OH248814   4.851   5.372  14.911 -0.1217  0.4674 -0.0586
 9108TIP3    H148815   4.892   5.305  14.856 -2.3504 -1.3281  0.3102
 9108TIP3    H248816   4.833   5.444  14.851  1.4657  0.3905 -0.6772
 9109TIP3   OH248817   5.431   3.596  12.283  0.2961 -0.2025  0.0357
 9109TIP3    H148818   5.504   3.559  12.333  0.8402  0.8984  0.0792
 9109TIP3    H248819   5.448   3.570  12.192 -0.8899 -2.5241  0.3974
 9110TIP3   OH248820   1.640   6.575  15.258  0.7928  0.1817 -0.0288
 9110TIP3    H148821   1.680   6.587  15.172  1.5512 -0.7532  0.1853
 9110TIP3    H248822   1.654   6.483  15.279  1.5015  0.6153  1.5415
 9111TIP3   OH248823   1.936   3.567  10.621 -0.4007  0.7509  0.0429
 9111TIP3    H148824   1.941   3.573  10.717 -1.1513 -1.0408  0.2197
 9111TIP3    H248825   1.850   3.528  10.604  0.2223 -0.0844 -1.2980
 9112TIP3   OH248826   0.090   6.341  16.237  0.0404 -1.0714  0.2226
 9112TIP3    H148827   0.071   6.372  16.149 -1.0915  0.9762  1.1208
 9112TIP3    H248828   0.047   6.404  16.295  1.7661 -1.6422  2.2704
 9113TIP3   OH248829   5.197   5.175   5.514 -0.4967 -0.0181 -0.5341
 9113TIP3    H148830   5.210   5.081   5.528 -1.9747 -0.3356 -1.1685
 9113TIP3    H248831   5.239   5.192   5.430 -0.9892 -0.2878 -0.8352
 9114TIP3   OH248832   5.994   0.644   2.387  0.4021 -0.1505  0.5418
 9114TIP3    H148833   5.968   0.736   2.381  0.7478 -0.0713  0.2596
 9114TIP3    H248834   5.915   0.599   2.420 -0.4908 -0.0742 -1.3514
 9115TIP3   OH248835   3.208   4.154  13.494 -0.2754 -0.4672  0.2385
 9115TIP3    H148836   3.154   4.233  13.484 -1.3438 -1.2697 -0.6259
 9115TIP3    H248837   3.222   4.124  13.404 -0.0803 -1.3871  0.5731
 9116TIP3   OH248838   3.879   5.260   4.598 -0.4164 -0.6586  0.2098
 9116TIP3    H148839   3.853   5.263   4.506 -0.5855 -0.6036  0.2586
 9116TIP3    H248840   3.896   5.167   4.615  1.2808 -0.4886 -0.3265
 9117TIP3   OH248841   2.200   4.681   4.367 -0.2125  0.6977  0.1683
 9117TIP3    H148842   2.221   4.593   4.400  0.1940  0.3640 -0.9133
 9117TIP3    H248843   2.147   4.721   4.436  0.1365 -0.1623  0.9594
 9118TIP3   OH248844   1.679   0.678   4.764  0.1637  0.3115  0.5996
 9118TIP3    H148845   1.670   0.765   4.727  0.7647 -0.1287 -0.6661
 9118TIP3    H248846   1.674   0.619   4.688 -0.0819 -0.7459  1.4032
 9119TIP3   OH248847   3.672   6.844   1.202 -0.2277  0.6460 -0.2980
 9119TIP3    H148848   3.606   6.892   1.152 -0.6658  0.1155 -0.2347
 9119TIP3    H248849   3.738   6.821   1.137 -0.1265  1.1326 -0.3713
 9120TIP3   OH248850   5.764   1.655  13.360 -0.1038  0.0343  0.3127
 9120TIP3    H148851   5.783   1.566  13.332  1.3576 -1.1493  4.4475
 9120TIP3    H248852   5.678   1.649  13.402  0.1978  0.4626  0.9995
 9121TIP3   OH248853   2.538   3.637   2.315 -0.2523 -0.0083 -0.7040
 9121TIP3    H148854   2.458   3.588   2.293 -0.0357 -0.3943 -0.6521
 9121TIP3    H248855   2.605   3.600   2.258 -0.0391  0.0893 -0.5192
 9122TIP3   OH248856   0.151   4.059  11.976  0.3616  0.0912 -0.4708
 9122TIP3    H148857   0.171   3.977  12.022 -1.7833  0.9784  2.2890
 9122TIP3    H248858   0.066   4.042  11.933 -0.2941  0.9447  0.4514
 9123TIP3   OH248859   1.571   2.429  13.099  0.0138  0.1874 -0.3096
 9123TIP3    H148860   1.648   2.485  13.097 -0.7348  1.2159 -1.3044
 9123TIP3    H248861   1.598   2.349  13.053  1.2196 -0.5120  1.5068
 9124TIP3   OH248862   6.168   3.995   5.385  0.1589  0.1864  0.1098
 9124TIP3    H148863   6.228   3.977   5.313  0.4577  1.6183 -0.0297
 9124TIP3    H248864   6.096   4.044   5.345  1.6294  3.4872  1.0964
 9125TIP3   OH248865   1.277   5.287   0.416 -0.0968 -0.3319  0.3831
 9125TIP3    H148866   1.207   5.339   0.454  1.2211  0.6105  1.6486
 9125TIP3    H248867   1.351   5.299   0.476  0.7523 -2.3605 -0.1686
 9126TIP3   OH248868   3.680   5.971   0.318 -1.0255 -0.2166 -0.6879
 9126TIP3    H148869   3.644   6.055   0.292  1.0929  0.9183 -0.1876
 9126TIP3    H248870   3.766   5.992   0.354 -1.0889 -2.4148  0.9764
 9127TIP3   OH248871   3.779   0.004   0.910 -0.5549 -0.2868 -0.2814
 9127TIP3    H148872   3.831   0.085   0.917 -1.8388  0.5002  0.4950
 9127TIP3    H248873   3.819  -0.043   0.836  1.3867  0.1657  0.4036
 9128TIP3   OH248874   6.366   3.832   1.419 -0.2977  0.0998 -0.4098
 9128TIP3    H148875   6.349   3.897   1.487  2.4356  0.9414 -0.4187
 9128TIP3    H248876   6.442   3.783   1.451  0.3928 -0.1805 -2.3501
 9129TIP3   OH248877   5.442   0.521  17.024  0.4278  0.5204  0.5231
 9129TIP3    H148878   5.378   0.588  17.001  0.8893  1.0805  0.8426
 9129TIP3    H248879   5.401   0.473  17.096  0.0009  0.3078  0.1425
 9130TIP3   OH248880   5.063   6.554   2.142 -0.0111  0.1009  0.2161
 9130TIP3    H148881   5.010   6.476   2.124  3.5246 -2.2763 -1.2049
 9130TIP3    H248882   5.041   6.615   2.072 -1.8065 -0.1827  0.4934
 9131TIP3   OH248883   2.223   1.435   0.646  0.4531  0.0918  0.0099
 9131TIP3    H148884   2.133   1.429   0.680  0.2581  1.2114 -0.2650
 9131TIP3    H248885   2.278   1.417   0.722  0.0047  1.4663  0.6858
 9132TIP3   OH248886   4.716   0.303  13.713  0.8825  0.5548  0.3707
 9132TIP3    H148887   4.626   0.268  13.713  1.2610 -0.5173  1.7304
 9132TIP3    H248888   4.770   0.228  13.685  1.3180  1.4275 -1.2741
 9133TIP3   OH248889   3.920   2.033   3.994  0.2526 -0.2191  0.0258
 9133TIP3    H148890   3.901   1.966   3.928  0.3009 -0.0536 -0.1563
 9133TIP3    H248891   3.852   2.099   3.982 -0.5751 -0.8379  1.0546
 9134TIP3   OH248892   6.417   2.881  15.036  0.0571 -0.0684 -0.3483
 9134TIP3    H148893   6.472   2.884  15.114 -1.0674  1.0909  0.4479
 9134TIP3    H248894   6.428   2.967  14.995 -0.3428 -0.2022 -0.7525
 9135TIP3   OH248895   1.130   5.642  13.176 -0.5665 -0.2936 -0.2634
 9135TIP3    H148896   1.103   5.600  13.094 -0.6603  1.3764 -1.1299
 9135TIP3    H248897   1.211   5.688  13.155 -2.4297  3.2152 -0.5401
 9136TIP3   OH248898   3.016   5.317   1.476  0.5910 -0.3658  0.3675
 9136TIP3    H148899   2.975   5.321   1.562  0.7765  0.5235  0.4310
 9136TIP3    H248900   2.959   5.371   1.420 -1.0280 -3.0421 -0.7532
 9137TIP3   OH248901   0.679   0.097  12.435 -0.2958 -0.4497  0.4448
 9137TIP3    H148902   0.711   0.187  12.443  1.1426 -0.8002 -0.9116
 9137TIP3    H248903   0.758   0.045  12.418 -1.4229 -1.4744 -2.1953
 9138TIP3   OH248904   2.434   2.878  15.826 -0.6256  0.4536 -0.4021
 9138TIP3    H148905   2.503   2.894  15.761  0.2966 -1.6321 -0.0441
 9138TIP3    H248906   2.375   2.816  15.782 -1.7943  1.5182 -0.3723
 9139TIP3   OH248907   4.987   5.136   3.263  0.7002 -0.1054 -0.2795
 9139TIP3    H148908   4.980   5.199   3.334  0.1631 -2.1571  1.6159
 9139TIP3    H248909   4.897   5.118   3.237  0.7805 -0.8331 -0.0803
 9140TIP3   OH248910   1.866   3.894   2.246  0.1633 -0.0439 -0.4226
 9140TIP3    H148911   1.899   3.851   2.166 -0.0368 -0.3107 -0.3618
 9140TIP3    H248912   1.816   3.968   2.214 -3.5935 -2.5008 -0.8127
 9141TIP3   OH248913   2.245   0.866  16.342 -0.1809 -0.4893  0.3298
 9141TIP3    H148914   2.307   0.829  16.405  0.6534 -1.2457 -0.8742
 9141TIP3    H248915   2.301   0.897  16.270 -1.0993  0.3741 -0.0269
 9142TIP3   OH248916   5.302   3.518   2.073 -0.2714 -0.3177  0.5290
 9142TIP3    H148917   5.263   3.463   2.005  1.7609  0.3534 -1.3267
 9142TIP3    H248918   5.396   3.507   2.061  0.1680  1.8561  1.5270
 9143TIP3   OH248919   5.338   2.724  10.859  0.7291 -0.6905 -0.3329
 9143TIP3    H148920   5.291   2.755  10.782 -0.0352  0.2909  0.5094
 9143TIP3    H248921   5.426   2.762  10.850  0.4012  0.0936 -0.3357
 9144TIP3   OH248922   4.535   6.857   4.598  0.2421  0.5191 -0.5579
 9144TIP3    H148923   4.549   6.917   4.524 -0.4008 -0.5833 -1.5987
 9144TIP3    H248924   4.440   6.850   4.606  0.2617 -2.0693 -1.9022
 9145TIP3   OH248925   6.496   6.661   0.410  0.1531 -0.0063 -0.3132
 9145TIP3    H148926   6.466   6.749   0.433 -1.6470 -0.4409 -0.8467
 9145TIP3    H248927   6.537   6.628   0.490 -2.2438  0.0708  1.0464
 9146TIP3   OH248928   5.958   2.677   4.567  0.1101  0.5837 -0.2868
 9146TIP3    H148929   5.984   2.769   4.559  0.0498  0.7197  0.8229
 9146TIP3    H248930   5.977   2.655   4.659  0.5135 -0.6322 -0.6372
 9147TIP3   OH248931   5.701   1.866   5.306 -0.1158  0.9443 -0.1200
 9147TIP3    H148932   5.639   1.938   5.295  0.2082  1.0084 -1.8441
 9147TIP3    H248933   5.684   1.832   5.394 -2.1355  1.3578 -0.3193
 9148TIP3   OH248934   0.847   3.310   4.021  0.2439 -0.7338 -0.4560
 9148TIP3    H148935   0.762   3.333   3.983  0.0877 -0.0455  0.2818
 9148TIP3    H248936   0.829   3.236   4.079 -0.1708  0.3835  0.9033
 9149TIP3   OH248937   6.582   4.023   3.571 -0.1544  0.5143  0.0116
 9149TIP3    H148938   6.621   4.018   3.484  1.0790 -1.3728  0.6079
 9149TIP3    H248939   6.628   4.094   3.615  0.8338 -0.0016 -0.1565
 9150TIP3   OH248940   4.002   1.850   3.251 -0.0619  0.2457 -0.3977
 9150TIP3    H148941   3.943   1.798   3.197 -0.6312  1.1830 -0.7150
 9150TIP3    H248942   4.009   1.801   3.333 -2.7175  0.9179  0.3481
 9151TIP3   OH248943   0.797   5.753  14.362  0.3274 -0.0358 -0.5354
 9151TIP3    H148944   0.708   5.767  14.394  0.4732 -2.3006  1.2038
 9151TIP3    H248945   0.847   5.827  14.396 -0.5922  0.4007 -0.0948
 9152TIP3   OH248946   4.478   5.716  13.573 -0.5784 -0.0263 -0.1823
 9152TIP3    H148947   4.525   5.796  13.553  0.6318 -1.0844 -1.8406
 9152TIP3    H248948   4.520   5.681  13.651  0.3727 -0.1680 -0.7516
 9153TIP3   OH248949   4.410   5.751   2.118 -0.0822  0.1471  0.0163
 9153TIP3    H148950   4.500   5.785   2.115  0.2543 -0.7469 -2.3865
 9153TIP3    H248951   4.364   5.812   2.176  1.9839  0.7898  1.0959
 9154TIP3   OH248952   0.905   2.741  14.747 -0.6762 -0.1809 -0.3479
 9154TIP3    H148953   0.827   2.795  14.744 -1.0337 -0.7179 -1.0855
 9154TIP3    H248954   0.893   2.685  14.824  0.5978  2.0584  1.6173
 9155TIP3   OH248955   5.319   6.435  12.905 -0.2645  0.0854  0.5908
 9155TIP3    H148956   5.255   6.364  12.912  1.0438 -1.1751  0.3345
 9155TIP3    H248957   5.401   6.390  12.883  0.6611  1.6668  0.7172
 9156TIP3   OH248958   2.180   5.148  11.652 -0.2949 -0.0239  0.3519
 9156TIP3    H148959   2.214   5.062  11.679  0.5174 -0.2707 -1.3799
 9156TIP3    H248960   2.255   5.207  11.657 -0.2969  0.0767 -0.6715
 9157TIP3   OH248961   0.594   3.537  15.178 -0.3122  0.4121  0.3552
 9157TIP3    H148962   0.623   3.513  15.090 -2.3527  1.3106 -0.6250
 9157TIP3    H248963   0.546   3.460  15.210 -2.6263  1.2757 -0.8142
 9158TIP3   OH248964   6.702   3.655  12.628 -0.4360  0.1214 -0.0984
 9158TIP3    H148965   6.774   3.631  12.570  0.2921  0.2962  0.7161
 9158TIP3    H248966   6.694   3.750  12.619 -0.6589  0.0855 -0.2910
 9159TIP3   OH248967   3.669   3.729   3.913  0.0378 -0.1146  0.0435
 9159TIP3    H148968   3.644   3.649   3.959  0.4740 -0.0409  0.4253
 9159TIP3    H248969   3.743   3.763   3.964  1.6988 -0.9367 -1.6755
 9160TIP3   OH248970   2.544   1.309   2.502  0.0744 -0.4884 -0.2489
 9160TIP3    H148971   2.571   1.382   2.557  0.3678 -0.2809 -0.6649
 9160TIP3    H248972   2.617   1.296   2.441 -0.6405 -0.0753 -1.2275
 9161TIP3   OH248973   2.168   3.456   0.021  0.2579 -0.5908 -0.0365
 9161TIP3    H148974   2.125   3.376   0.050  0.0062 -0.2028  0.6906
 9161TIP3    H248975   2.101   3.505  -0.026  0.1647 -0.4125  0.2801
 9162TIP3   OH248976   2.297   5.947   4.679 -0.3226 -0.2461  0.2583
 9162TIP3    H148977   2.349   6.000   4.618 -0.7578 -0.7221 -0.5510
 9162TIP3    H248978   2.246   6.011   4.728 -0.0511  0.1416  0.0485
 9163TIP3   OH248979   0.030   1.884   6.727  0.4990  0.2803  0.2192
 9163TIP3    H148980  -0.054   1.853   6.693  1.2843 -0.2154 -1.3691
 9163TIP3    H248981   0.096   1.833   6.679  1.7101  0.2261  1.8533
 9164TIP3   OH248982   0.591   3.459   2.467 -0.3123  0.3994  0.0952
 9164TIP3    H148983   0.508   3.425   2.500 -0.7294  0.1200 -1.1838
 9164TIP3    H248984   0.600   3.545   2.507 -0.1744 -0.4089  1.8911
 9165TIP3   OH248985   2.351   0.500  12.657 -0.5244  0.1213 -0.3183
 9165TIP3    H148986   2.436   0.543  12.663  0.4594 -1.7574  0.0628
 9165TIP3    H248987   2.328   0.503  12.564  0.3995 -0.1587 -0.5576
 9166TIP3   OH248988   3.497   6.484  15.280  0.2756  0.0168  0.6351
 9166TIP3    H148989   3.499   6.558  15.341  0.9636 -0.1551  0.8400
 9166TIP3    H248990   3.568   6.502  15.218  0.9042 -0.7901  1.0887
 9167TIP3   OH248991   4.572   5.563   5.321 -0.5772 -0.2986 -0.1948
 9167TIP3    H148992   4.567   5.582   5.415  2.5961 -1.2454  0.3134
 9167TIP3    H248993   4.523   5.482   5.311 -0.4055 -0.5446  0.8021
 9168TIP3   OH248994   1.144   0.124   5.279 -0.6189 -0.1119 -0.3456
 9168TIP3    H148995   1.177   0.049   5.230 -3.8340 -2.2356  0.3906
 9168TIP3    H248996   1.166   0.105   5.370  0.3785  0.9748 -0.3308
 9169TIP3   OH248997   1.671   3.640  15.997  0.0794  0.4018 -0.4147
 9169TIP3    H148998   1.765   3.626  15.996  0.1931  0.5231  2.0954
 9169TIP3    H248999   1.656   3.714  15.939  1.2615 -0.7273 -2.2576
 9170TIP3   OH249000   5.390   6.061   5.754 -0.3259  0.0203  0.1605
 9170TIP3    H149001   5.430   5.980   5.785  1.4255  0.0755 -1.7618
 9170TIP3    H249002   5.463   6.123   5.749 -1.1700  0.9674 -0.7625
 9171TIP3   OH249003   3.483   2.921   3.506  0.0388  0.5226  0.0099
 9171TIP3    H149004   3.432   2.900   3.428 -3.0813 -0.3931  2.1241
 9171TIP3    H249005   3.464   3.013   3.523 -0.3920  0.3539  0.4462
 9172TIP3   OH249006   0.885   5.257  12.919 -0.8360  0.1084  0.1436
 9172TIP3    H149007   0.850   5.233  12.833 -0.6043 -0.0115  0.0799
 9172TIP3    H249008   0.924   5.175  12.952 -0.2859  0.3299  0.0493
 9173TIP3   OH249009   4.785   6.092   2.830  0.2020  0.4148  0.1993
 9173TIP3    H149010   4.743   6.175   2.850 -0.5736  0.1057 -0.1379
 9173TIP3    H249011   4.800   6.094   2.736 -2.4878 -1.0090 -0.3549
 9174TIP3   OH249012   6.245   3.650   4.184 -0.3969 -0.1804 -0.1565
 9174TIP3    H149013   6.246   3.557   4.208 -0.1587 -0.7733 -2.2255
 9174TIP3    H249014   6.326   3.685   4.221 -0.7233 -0.6666  1.0517
 9175TIP3   OH249015   4.443   4.466  17.016  0.0379  0.2088  0.4782
 9175TIP3    H149016   4.381   4.452  16.945 -0.0303 -0.9703  0.7590
 9175TIP3    H249017   4.466   4.559  17.009 -1.4636  0.5831  0.1468
 9176TIP3   OH249018   5.011   3.577  12.443  0.0184  0.2021 -0.3058
 9176TIP3    H149019   5.040   3.668  12.453 -0.4270  0.2129  1.3126
 9176TIP3    H249020   5.026   3.557  12.351  0.2492  1.8700 -0.6756
 9177TIP3   OH249021   1.342   5.375   1.293  0.0401  0.1472  0.2179
 9177TIP3    H149022   1.347   5.297   1.238  0.1635  0.3858 -0.1094
 9177TIP3    H249023   1.403   5.436   1.254  2.4790 -0.7313  2.3507
 9178TIP3   OH249024   3.152   1.849  11.749  0.2102  0.0234 -0.1346
 9178TIP3    H149025   3.077   1.905  11.765 -0.0433 -0.8374  1.9643
 9178TIP3    H249026   3.215   1.871  11.817  0.5121 -1.5123  0.1308
 9179TIP3   OH249027   1.902   0.184  10.631  0.0794 -0.2740 -0.2499
 9179TIP3    H149028   1.898   0.231  10.548 -1.3620  2.6646  1.3169
 9179TIP3    H249029   1.983   0.213  10.672  0.3859 -1.0843 -0.2612
 9180TIP3   OH249030   2.359   4.919  10.356  0.2597  0.4210  0.8305
 9180TIP3    H149031   2.382   4.826  10.358  2.3413  0.8265 -0.8044
 9180TIP3    H249032   2.264   4.920  10.350  0.2434 -1.6421 -0.1003
 9181TIP3   OH249033   6.359   4.257  15.877  0.5930 -0.0162 -0.3753
 9181TIP3    H149034   6.395   4.173  15.905 -0.1232 -0.2258 -0.0542
 9181TIP3    H249035   6.351   4.308  15.958 -1.3284 -0.5647 -0.1636
 9182TIP3   OH249036   3.169   2.242   1.778  0.5645 -0.0383  0.4306
 9182TIP3    H149037   3.250   2.293   1.785 -0.0649  1.2468 -0.9452
 9182TIP3    H249038   3.194   2.165   1.727  0.3561  2.0371 -3.2089
 9183TIP3   OH249039   1.159   3.700   2.091 -0.3575 -0.4410 -0.6246
 9183TIP3    H149040   1.163   3.793   2.069 -1.6235 -0.0186  0.7561
 9183TIP3    H249041   1.251   3.673   2.100  0.0378  0.4776 -1.7672
 9184TIP3   OH249042   0.083   6.562   0.712  0.2959 -0.4699  0.3518
 9184TIP3    H149043   0.121   6.488   0.664 -1.3173 -0.0769 -1.6805
 9184TIP3    H249044   0.062   6.527   0.798  4.0877 -1.0020  1.2603
 9185TIP3   OH249045   0.376   4.134  13.467  0.1072  0.0777  0.2888
 9185TIP3    H149046   0.370   4.061  13.527  0.1088 -0.3245 -0.1932
 9185TIP3    H249047   0.466   4.132  13.435 -0.6802 -1.6506 -2.0964
 9186TIP3   OH249048   6.767   2.314  14.390 -0.7296 -0.4247  0.1355
 9186TIP3    H149049   6.801   2.319  14.301 -0.0741  1.4343  0.4469
 9186TIP3    H249050   6.758   2.220  14.407 -0.4888 -0.8265 -1.7285
 9187TIP3   OH249051   2.342   5.626   2.672 -0.1634 -0.3981 -0.2594
 9187TIP3    H149052   2.360   5.550   2.728  0.5275 -0.8705 -1.1029
 9187TIP3    H249053   2.391   5.609   2.592  0.5639  1.2650 -0.2004
 9188TIP3   OH249054   2.356   0.248  16.461 -0.2281 -0.5539 -0.6865
 9188TIP3    H149055   2.397   0.190  16.526 -1.2795 -0.9866 -0.3792
 9188TIP3    H249056   2.356   0.196  16.380  2.7086  0.6375 -1.5819
 9189TIP3   OH249057   2.969   6.273  13.765  0.3786  0.5966 -0.9434
 9189TIP3    H149058   2.989   6.367  13.763  0.4986  0.7375  2.1765
 9189TIP3    H249059   2.884   6.268  13.809 -0.1586 -0.7253 -2.0862
 9190TIP3   OH249060   1.047   5.220  12.597  0.1069  0.0921 -0.3311
 9190TIP3    H149061   0.998   5.301  12.583 -1.5300 -1.0338 -1.5568
 9190TIP3    H249062   0.991   5.168  12.655  0.9336 -0.3523  0.0863
 9191TIP3   OH249063   6.773   4.224   3.683 -0.1308  0.6058 -0.2303
 9191TIP3    H149064   6.851   4.189   3.726  0.0548 -0.2345 -1.2308
 9191TIP3    H249065   6.710   4.234   3.754 -0.1134 -1.5403  0.1615
 9192TIP3   OH249066   5.195   3.861  11.663  0.2669 -0.0010  0.6885
 9192TIP3    H149067   5.208   3.951  11.635 -0.8109  0.0291  0.2529
 9192TIP3    H249068   5.168   3.814  11.583  2.0700 -1.0068  0.6098
 9193TIP3   OH249069   3.308   3.722   0.665  0.7648  0.0476  0.1442
 9193TIP3    H149070   3.377   3.705   0.729  0.3439  0.5410  0.7340
 9193TIP3    H249071   3.310   3.817   0.652  1.3051 -0.1163 -1.1051
 9194TIP3   OH249072   2.423   6.472  13.905 -0.1376 -0.0707  0.3854
 9194TIP3    H149073   2.478   6.535  13.860 -2.5568  1.0261 -1.2468
 9194TIP3    H249074   2.397   6.515  13.986  0.8766 -0.3505  0.8688
 9195TIP3   OH249075   5.743   1.202  12.015  0.0404 -0.2920 -0.1107
 9195TIP3    H149076   5.737   1.297  12.028  1.4736 -0.2105  0.0884
 9195TIP3    H249077   5.685   1.165  12.080  1.7774  0.3575  1.9110
 9196TIP3   OH249078   1.471   5.706  13.279 -0.1397  0.1266 -0.0211
 9196TIP3    H149079   1.439   5.751  13.356 -0.1244  0.4128 -0.1816
 9196TIP3    H249080   1.534   5.766  13.240  2.6760 -1.4280  1.7447
 9197TIP3   OH249081   5.400   2.578  11.757 -0.6648 -0.1767  0.3712
 9197TIP3    H149082   5.406   2.513  11.828 -0.6932 -0.1990  0.3534
 9197TIP3    H249083   5.486   2.619  11.755 -1.5217  1.9075  2.3934
 9198TIP3   OH249084   0.064   4.119  16.348  0.3125 -0.6886 -0.3100
 9198TIP3    H149085   0.073   4.199  16.296 -1.5780 -0.5476 -0.4603
 9198TIP3    H249086   0.155   4.095  16.369  1.1100 -0.1837 -2.7767
 9199TIP3   OH249087   3.266   0.614   1.725 -0.0145  0.2221  0.0598
 9199TIP3    H149088   3.279   0.657   1.640 -0.9678  1.9127  0.7178
 9199TIP3    H249089   3.355   0.604   1.760  0.4054 -0.6278 -1.1740
 9200TIP3   OH249090   5.092   5.622  13.954  0.1944 -0.8235 -0.1551
 9200TIP3    H149091   5.040   5.544  13.975  0.2684 -0.8795 -0.1792
 9200TIP3    H249092   5.037   5.672  13.894  0.0279 -0.7167  0.0804
 9201TIP3   OH249093   1.022   0.238  15.516 -0.1010 -0.0136  0.2082
 9201TIP3    H149094   1.064   0.299  15.456 -0.4703 -0.0032 -0.0410
 9201TIP3    H249095   0.953   0.289  15.558 -0.7546 -0.3916 -0.3857
 9202TIP3   OH249096   3.668   0.936  10.035  0.0992 -0.1123 -0.6801
 9202TIP3    H149097   3.733   1.004  10.050  1.8822 -1.8646  0.0380
 9202TIP3    H249098   3.614   0.937  10.114  2.6214 -2.0336  1.2779
 9203TIP3   OH249099   5.365   2.643  13.001 -0.4984 -0.1114  0.1942
 9203TIP3    H149100   5.444   2.593  12.982 -1.3210 -1.8187  1.1081
 9203TIP3    H249101   5.301   2.612  12.937 -0.5106  1.2039 -0.4849
 9204TIP3   OH249102   0.135   6.325   0.562 -0.5848  0.1027  0.2388
 9204TIP3    H149103   0.163   6.301   0.473 -2.4762 -0.8726 -0.1672
 9204TIP3    H249104   0.127   6.241   0.607  0.4907  0.6074  1.4001
 9205TIP3   OH249105   3.848   2.687  16.980 -0.5455 -0.9254 -0.5071
 9205TIP3    H149106   3.832   2.679  17.074  4.2512  1.8182  0.8817
 9205TIP3    H249107   3.803   2.767  16.954  0.6140 -0.0045  0.2625
 9206TIP3   OH249108   3.540   2.258  12.862 -0.0932 -0.1758  0.2707
 9206TIP3    H149109   3.478   2.275  12.792 -2.0957 -0.0648  1.9941
 9206TIP3    H249110   3.585   2.177  12.836 -2.5864 -1.5520 -0.0028
 9207TIP3   OH249111   3.141   4.047  16.172  0.8732  0.3449 -0.5329
 9207TIP3    H149112   3.153   4.124  16.115  0.1467  0.5234 -0.4528
 9207TIP3    H249113   3.049   4.024  16.162  0.3091  1.3495  1.7646
 9208TIP3   OH249114   0.899   5.089   3.899 -0.6096 -0.3312  0.5537
 9208TIP3    H149115   0.989   5.062   3.920 -0.0814  1.5280  0.8674
 9208TIP3    H249116   0.901   5.184   3.904 -1.8933 -0.0579 -2.3325
 9209TIP3   OH249117   3.972   5.013   4.364  0.2152  0.3996  0.5163
 9209TIP3    H149118   3.976   4.935   4.420 -0.9103  0.7670  1.1384
 9209TIP3    H249119   4.052   5.062   4.384  0.5388 -0.1971  0.7032
 9210TIP3   OH249120   2.920   4.949   3.838 -0.4430 -0.0803  0.0798
 9210TIP3    H149121   2.884   4.863   3.817 -0.1369 -0.1607 -0.1080
 9210TIP3    H249122   3.013   4.942   3.819 -0.4791  0.4072 -0.2957
 9211TIP3   OH249123   3.351   3.149   5.863 -0.7226  0.6517 -0.0219
 9211TIP3    H149124   3.401   3.218   5.819  1.6989 -0.6205  0.5147
 9211TIP3    H249125   3.388   3.068   5.829 -1.2026 -0.3623  1.7585
 9212TIP3   OH249126   3.411   1.796   0.762 -0.5350  0.1412  0.2674
 9212TIP3    H149127   3.476   1.759   0.702 -0.4120 -0.7002  0.9012
 9212TIP3    H249128   3.331   1.746   0.743 -1.0290  1.1988 -0.5407
 9213TIP3   OH249129   0.082   6.591   0.996  0.3220  0.4698 -0.4681
 9213TIP3    H149130   0.169   6.595   0.957  0.7368  0.1128  0.3930
 9213TIP3    H249131   0.069   6.497   1.014  0.4062  0.6888  0.8052
 9214TIP3   OH249132   2.589   5.590   2.925  0.2261 -0.6463 -0.0658
 9214TIP3    H149133   2.614   5.565   3.014 -2.0169 -1.3248  0.4522
 9214TIP3    H249134   2.497   5.566   2.919  0.2726 -0.4342 -2.5389
 9215TIP3   OH249135   4.735   2.116   0.845  0.0520 -0.1689 -0.1800
 9215TIP3    H149136   4.736   2.206   0.813  0.0151  1.0519  2.9473
 9215TIP3    H249137   4.642   2.093   0.847  0.0050  0.0244 -0.1604
 9216TIP3   OH249138   3.864   3.710   1.478 -0.2467  0.3555 -0.0738
 9216TIP3    H149139   3.853   3.736   1.387 -0.8099  0.6522  0.0725
 9216TIP3    H249140   3.784   3.661   1.499  0.1443 -0.2289  0.0909
 9217TIP3   OH249141   3.383   1.244   3.068  0.1970 -0.1624  0.1535
 9217TIP3    H149142   3.362   1.202   3.152  0.2289  2.8842  1.8422
 9217TIP3    H249143   3.298   1.275   3.036  0.4524  0.5790  0.1909
 9218TIP3   OH249144   5.798   2.717  13.965 -0.6845 -0.1454 -0.1052
 9218TIP3    H149145   5.823   2.679  14.049  0.2658  0.2389 -0.1999
 9218TIP3    H249146   5.854   2.673  13.901 -2.1956 -1.2851 -0.7167
 9219TIP3   OH249147   6.198   3.262   0.181 -0.3003  0.9578 -0.2638
 9219TIP3    H149148   6.176   3.355   0.194  0.6639  1.1665 -0.0693
 9219TIP3    H249149   6.289   3.263   0.153 -0.1726  0.0382  0.1133
 9220TIP3   OH249150   1.802   6.699  16.057  0.4345  0.1363  0.6181
 9220TIP3    H149151   1.807   6.608  16.027 -0.7624  0.0761  0.5627
 9220TIP3    H249152   1.884   6.739  16.026  1.1436 -0.9970  0.9477
 9221TIP3   OH249153   4.038   2.251   2.088 -0.0866 -0.1940  0.0109
 9221TIP3    H149154   3.976   2.260   2.016  0.9960 -2.1467 -1.2788
 9221TIP3    H249155   4.002   2.304   2.159 -1.9073  0.6853 -1.5020
 9222TIP3   OH249156   4.488   0.976   6.193  0.3098 -0.3968 -0.2434
 9222TIP3    H149157   4.449   0.954   6.277 -1.7602  1.4992 -0.6240
 9222TIP3    H249158   4.569   1.022   6.215 -0.6243  0.8230  0.7992
 9223TIP3   OH249159   4.212   2.525  12.285  0.1286 -0.5370  0.5439
 9223TIP3    H149160   4.303   2.532  12.257  0.1507  0.9048  0.8573
 9223TIP3    H249161   4.165   2.494  12.208  0.7089 -0.0520 -0.0184
 9224TIP3   OH249162   2.505   0.053  16.617 -0.1179 -0.0117 -0.4378
 9224TIP3    H149163   2.441  -0.007  16.581 -0.0279  1.0002 -2.4318
 9224TIP3    H249164   2.578  -0.002  16.646 -1.3328 -1.0645  0.7485
 9225TIP3   OH249165   1.460   0.088  10.962  0.2702 -0.0096 -0.3368
 9225TIP3    H149166   1.512   0.113  10.885  1.8891 -1.2258  0.3309
 9225TIP3    H249167   1.414   0.009  10.935 -0.3407  0.4048 -0.5323
 9226TIP3   OH249168   5.784   1.382  15.662 -0.4348  0.3508  0.4245
 9226TIP3    H149169   5.828   1.298  15.645 -0.6133  0.6934 -2.1463
 9226TIP3    H249170   5.738   1.368  15.744 -1.3686 -2.4879 -0.4413
 9227TIP3   OH249171   6.545   4.705   2.627 -0.1685 -0.1941  0.0240
 9227TIP3    H149172   6.465   4.750   2.655 -0.9608 -1.2990 -0.3884
 9227TIP3    H249173   6.609   4.775   2.615 -1.5389  0.9097 -1.2629
 9228TIP3   OH249174   2.142   6.038  15.951  0.6207  0.3559 -0.5548
 9228TIP3    H149175   2.070   6.039  16.014 -0.9346  0.6363 -2.2943
 9228TIP3    H249176   2.166   5.945  15.944  0.1762  0.2191 -0.2748
 9229TIP3   OH249177   4.757   5.520   0.620 -0.1789 -0.0663  0.1855
 9229TIP3    H149178   4.707   5.454   0.572 -1.8403  1.2127  0.0738
 9229TIP3    H249179   4.716   5.523   0.706 -0.8947  1.5979 -0.1787
 9230TIP3   OH249180   3.706   1.370   4.742  0.0317  0.0743 -0.1897
 9230TIP3    H149181   3.685   1.404   4.829 -1.3255 -1.0371 -0.0573
 9230TIP3    H249182   3.793   1.332   4.752 -0.0248  0.1327  0.6280
 9231TIP3   OH249183   1.660   5.276   3.944 -0.1782 -0.5405  0.2233
 9231TIP3    H149184   1.602   5.280   3.868 -0.0924  1.6776  0.2066
 9231TIP3    H249185   1.602   5.267   4.019 -0.5475  0.9755  0.1526
 9232TIP3   OH249186   5.504   3.136  16.666 -0.1801  0.8886  0.0215
 9232TIP3    H149187   5.518   3.051  16.623  1.0494  0.7225  0.7133
 9232TIP3    H249188   5.519   3.119  16.759 -1.2595  1.5905  0.3488
 9233TIP3   OH249189   0.747   3.673  16.292  0.3461  0.3773  0.3043
 9233TIP3    H149190   0.822   3.639  16.243 -0.6284 -1.8068  0.2150
 9233TIP3    H249191   0.727   3.605  16.356 -1.3043  1.0877  0.6024
 9234TIP3   OH249192   2.142   2.421   3.651  0.0736  0.0365  0.0078
 9234TIP3    H149193   2.114   2.376   3.572 -1.0174  0.9574 -0.1556
 9234TIP3    H249194   2.233   2.394   3.664  0.7125  0.9017 -2.3096
 9235TIP3   OH249195   4.223   4.781   2.991 -0.1012  0.3655 -0.6525
 9235TIP3    H149196   4.251   4.689   2.989 -1.7230 -0.1785 -2.7292
 9235TIP3    H249197   4.245   4.811   3.079  0.8072 -1.9017 -0.0248
 9236TIP3   OH249198   0.990   0.133   4.482  0.1519  0.1801 -0.0738
 9236TIP3    H149199   1.072   0.166   4.518 -0.0973  3.7097 -2.3094
 9236TIP3    H249200   0.927   0.140   4.554  0.9888  1.0347  0.6021
 9237TIP3   OH249201   3.834   5.731  12.723  0.2231 -0.6610  0.2454
 9237TIP3    H149202   3.917   5.777  12.714  0.4112 -0.8530  0.9768
 9237TIP3    H249203   3.830   5.674  12.646 -0.8357  1.8208 -1.6713
 9238TIP3   OH249204   5.844   0.933  12.591  0.0102 -0.1995 -0.3141
 9238TIP3    H149205   5.906   0.903  12.657 -0.6393  0.6757  0.7416
 9238TIP3    H249206   5.760   0.936  12.637 -0.4990  0.2399 -1.2369
 9239TIP3   OH249207   0.035   6.118   2.212  0.1041 -0.0201  0.1991
 9239TIP3    H149208  -0.060   6.102   2.212  0.2863 -1.2644  1.0034
 9239TIP3    H249209   0.052   6.155   2.299  0.5029 -0.8980  0.5077
 9240TIP3   OH249210   0.138   0.692  12.765 -0.3624 -0.3730 -0.4080
 9240TIP3    H149211   0.181   0.766  12.723 -2.4340  0.6680 -0.8436
 9240TIP3    H249212   0.168   0.696  12.856  1.4070 -0.4923 -0.9471
 9241TIP3   OH249213   1.046   0.105  16.714 -0.3171 -0.1840  0.1745
 9241TIP3    H149214   1.117   0.049  16.745 -1.7005 -1.1785  1.6521
 9241TIP3    H249215   1.084   0.152  16.640  1.5369 -1.5013  0.2259
 9242TIP3   OH249216   6.338   4.251  11.160  0.2190  0.3431 -0.3592
 9242TIP3    H149217   6.373   4.180  11.215 -1.1843 -0.1066  0.0018
 9242TIP3    H249218   6.323   4.323  11.222 -1.3973 -0.1759 -0.1040
 9243TIP3   OH249219   2.716   0.623  13.130 -0.3125 -0.4089 -0.6994
 9243TIP3    H149220   2.621   0.633  13.134 -0.4324 -1.4660 -0.4185
 9243TIP3    H249221   2.751   0.712  13.131 -1.3121 -0.0076 -1.1413
 9244TIP3   OH249222   6.000   5.245   4.080 -0.3874 -0.4736  0.2631
 9244TIP3    H149223   5.981   5.155   4.108  0.7082 -0.9121 -0.3563
 9244TIP3    H249224   5.936   5.262   4.011  0.7260 -1.5680 -1.0958
 9245TIP3   OH249225   1.517   5.037  12.384 -0.0632 -0.0104 -0.2930
 9245TIP3    H149226   1.496   5.103  12.450  0.2598 -0.2556  0.0602
 9245TIP3    H249227   1.610   5.021  12.396 -0.3072 -1.1268  0.1738
 9246TIP3   OH249228   2.748   0.790  11.108  0.1332 -0.5574  1.3544
 9246TIP3    H149229   2.730   0.744  11.189 -0.2892 -1.0263  1.0017
 9246TIP3    H249230   2.796   0.869  11.135 -0.9255 -0.1665  2.1601
 9247TIP3   OH249231   0.677   5.651  13.800 -0.6952 -0.0315  0.1567
 9247TIP3    H149232   0.603   5.665  13.740 -0.2376 -0.5970 -0.5627
 9247TIP3    H249233   0.662   5.564  13.836  0.8121 -1.1607 -1.7856
 9248TIP3   OH249234   1.993   6.524  10.944  0.4211  0.0658  0.3036
 9248TIP3    H149235   1.958   6.506  10.857 -0.5090  1.3371  0.3983
 9248TIP3    H249236   2.018   6.616  10.941  1.5465 -0.1921  1.0129
 9249TIP3   OH249237   2.648   0.088  10.778 -0.7485  0.0916 -0.0576
 9249TIP3    H149238   2.696   0.042  10.709 -1.3527 -0.8495  0.1234
 9249TIP3    H249239   2.706   0.082  10.855 -0.8727 -0.5065  0.0001
 9250TIP3   OH249240   2.715   3.963   4.932 -0.0873  0.0536 -0.7339
 9250TIP3    H149241   2.752   4.051   4.942 -0.5739  0.4576 -2.1715
 9250TIP3    H249242   2.653   3.954   5.004  0.6721  0.5086 -0.0111
 9251TIP3   OH249243   5.315   2.296  16.226 -0.8105 -0.1532 -0.0043
 9251TIP3    H149244   5.393   2.295  16.281 -0.1594 -1.0798 -0.8982
 9251TIP3    H249245   5.242   2.288  16.287 -0.0774 -2.0233  0.6870
 9252TIP3   OH249246   1.302   1.220   5.949 -0.2129  0.0559  0.6000
 9252TIP3    H149247   1.214   1.253   5.961  0.3018  1.7065  0.1749
 9252TIP3    H249248   1.351   1.253   6.024  0.3033  0.1938  0.2103
 9253TIP3   OH249249   0.770   5.066  13.887  0.2976 -0.2105 -0.1497
 9253TIP3    H149250   0.814   4.984  13.863  0.7922 -0.3755  1.2447
 9253TIP3    H249251   0.796   5.082  13.977  0.2311  1.5171 -0.4061
 9254TIP3   OH249252   2.725   1.981  10.852  0.1399  0.0203 -0.6990
 9254TIP3    H149253   2.802   1.927  10.867  0.5565  0.2760 -1.8238
 9254TIP3    H249254   2.717   1.985  10.757 -1.1589  0.1479 -0.6059
 9255TIP3   OH249255   3.342   6.194   5.198 -0.5382  0.4364 -0.5944
 9255TIP3    H149256   3.332   6.191   5.103 -0.1090 -1.5009 -0.6101
 9255TIP3    H249257   3.436   6.197   5.213 -0.5124 -1.3225 -0.2344
 9256TIP3   OH249258   6.644   5.198  13.949 -0.2934 -0.0433 -0.0259
 9256TIP3    H149259   6.619   5.167  13.862  4.1433  0.5112 -1.7669
 9256TIP3    H249260   6.693   5.126  13.987  0.1379  0.6940  0.8517
 9257TIP3   OH249261   5.629   1.043   5.334  0.4216  0.1774  0.0431
 9257TIP3    H149262   5.605   0.968   5.279  0.1956 -0.8757  1.5173
 9257TIP3    H249263   5.573   1.035   5.412 -0.2716  2.4109 -0.1480
 9258TIP3   OH249264   5.989   2.941   4.570  0.2651  0.3248 -0.1224
 9258TIP3    H149265   6.062   2.922   4.629 -0.8607 -2.2232  0.6046
 9258TIP3    H249266   5.947   3.018   4.608  2.2021  1.4861 -0.2422
 9259TIP3   OH249267   4.529   1.400  15.194  0.5683  0.0625 -0.2318
 9259TIP3    H149268   4.515   1.480  15.144  2.1204  0.6508  0.2167
 9259TIP3    H249269   4.599   1.422  15.255  0.1898 -1.2851  0.7276
 9260TIP3   OH249270   5.282   0.589  12.482 -0.3226  0.0181  0.5769
 9260TIP3    H149271   5.260   0.679  12.459 -0.0270 -0.4479 -1.6786
 9260TIP3    H249272   5.377   0.589  12.493 -0.0029 -0.4186 -1.6834
 9261TIP3   OH249273   0.333   4.590  15.201 -0.9726 -0.0571  0.2504
 9261TIP3    H149274   0.382   4.573  15.281  0.0975 -1.2718 -0.6292
 9261TIP3    H249275   0.273   4.516  15.194 -0.8338 -0.1231 -0.2457
 9262TIP3   OH249276   0.462   2.216  12.734  0.0653  0.4149 -0.1258
 9262TIP3    H149277   0.409   2.201  12.813  1.3760  0.1173  0.7288
 9262TIP3    H249278   0.484   2.128  12.703  3.0306  0.3862  1.6338
 9263TIP3   OH249279   6.027   4.752   2.141  0.6052  0.1841 -0.1167
 9263TIP3    H149280   6.096   4.686   2.154  1.8716  1.0565 -1.9378
 9263TIP3    H249281   5.987   4.761   2.227  0.2481 -3.0391  0.1910
 9264TIP3   OH249282   3.033   1.988   0.757  0.5356  0.0802 -0.1347
 9264TIP3    H149283   3.031   2.080   0.783  0.6135  0.3785 -1.1338
 9264TIP3    H249284   2.980   1.943   0.823  0.7951  0.7821  0.5659
 9265TIP3   OH249285   6.180   2.387   0.197 -0.0872 -0.1199  0.5806
 9265TIP3    H149286   6.262   2.348   0.228  0.1758 -0.6176 -0.6486
 9265TIP3    H249287   6.199   2.412   0.106 -1.2305 -0.0571  0.3440
 9266TIP3   OH249288   0.041   3.490  13.176  0.4250  0.0293  0.0940
 9266TIP3    H149289   0.027   3.495  13.082  0.3542  0.9277  0.1445
 9266TIP3    H249290   0.072   3.400  13.191  1.2222  0.1204 -0.8824
 9267TIP3   OH249291   4.318   3.218   2.439 -0.4542 -0.3379 -0.3713
 9267TIP3    H149292   4.343   3.254   2.355  1.9043 -1.6292 -0.3004
 9267TIP3    H249293   4.363   3.273   2.503  1.8149 -2.2247 -0.2104
 9268TIP3   OH249294   4.832   6.824   5.905 -0.4531  0.2315 -0.0669
 9268TIP3    H149295   4.744   6.787   5.913 -0.6225  0.3407 -1.3328
 9268TIP3    H249296   4.831   6.872   5.822  1.2563 -1.0225 -0.8481
 9269TIP3   OH249297   0.417   4.521   3.999 -0.0899 -0.2469  0.1511
 9269TIP3    H149298   0.449   4.530   3.909 -1.6147 -1.1141 -0.5323
 9269TIP3    H249299   0.480   4.462   4.041  1.2357  1.0110  0.0061
 9270TIP3   OH249300   5.459   4.281  12.760  0.0632 -0.3844  0.1240
 9270TIP3    H149301   5.368   4.303  12.778 -0.4599 -1.5090 -0.9785
 9270TIP3    H249302   5.500   4.363  12.734 -1.3999 -0.3312 -2.2776
 9271TIP3   OH249303   3.556   6.603  12.269  0.0405  0.3324  0.1351
 9271TIP3    H149304   3.515   6.518  12.284 -2.0925  1.1665 -0.5926
 9271TIP3    H249305   3.560   6.644  12.355  0.1161 -0.0873  0.3323
 9272TIP3   OH249306   6.460   5.731  12.650 -0.0480 -0.0381  0.3326
 9272TIP3    H149307   6.431   5.790  12.580  0.1218  1.2250  1.2784
 9272TIP3    H249308   6.395   5.744  12.719  1.3523  0.9453  1.5193
 9273TIP3   OH249309   5.167   3.868   4.983 -0.0439 -0.1971 -0.2496
 9273TIP3    H149310   5.123   3.833   5.061 -0.0567 -0.6487 -0.4565
 9273TIP3    H249311   5.260   3.872   5.008 -0.0747 -0.1593 -0.1424
 9274TIP3   OH249312   5.279   1.205  14.724  0.1514 -0.2401 -0.0722
 9274TIP3    H149313   5.243   1.144  14.659  0.5350 -1.0759  0.4747
 9274TIP3    H249314   5.208   1.267  14.740 -0.7427 -1.3038  0.2898
 9275TIP3   OH249315   5.489   3.936   0.605  0.2328 -0.4561 -0.2287
 9275TIP3    H149316   5.436   3.880   0.662 -0.4424 -1.0754 -1.4276
 9275TIP3    H249317   5.448   4.022   0.610 -0.3959 -0.7366 -0.5074
 9276TIP3   OH249318   4.329   6.765   4.272  0.6723  0.3960  0.0302
 9276TIP3    H149319   4.314   6.826   4.200  1.3418 -0.9133 -1.2823
 9276TIP3    H249320   4.244   6.725   4.288  0.8433 -0.5708 -1.2792
 9277TIP3   OH249321   1.130   2.938   1.398 -0.0935 -0.0228 -0.0132
 9277TIP3    H149322   1.121   2.862   1.340  0.3500 -0.1214  0.0454
 9277TIP3    H249323   1.139   3.012   1.337 -2.0860  0.2071 -0.0954
 9278TIP3   OH249324   5.387   2.784   5.724  0.3896 -0.5799  0.4149
 9278TIP3    H149325   5.412   2.694   5.745  0.9090 -0.5036  0.1295
 9278TIP3    H249326   5.305   2.797   5.772  0.0522 -1.3608  0.0833
 9279TIP3   OH249327   2.747   3.110  15.839  1.0057 -0.0122 -0.0195
 9279TIP3    H149328   2.696   3.109  15.758 -1.1735 -0.6597  1.2881
 9279TIP3    H249329   2.751   3.019  15.866  2.3433  0.1111  0.2609
 9280TIP3   OH249330   6.131   3.571  11.864 -0.1504  0.2370 -0.4867
 9280TIP3    H149331   6.187   3.503  11.902 -1.1253  0.4267  1.4083
 9280TIP3    H249332   6.042   3.542  11.882 -0.6017  1.5339 -0.4986
 9281TIP3   OH249333   3.491   5.332  15.834  0.3075 -0.0032  0.0849
 9281TIP3    H149334   3.536   5.357  15.753 -0.1825 -0.4358 -0.3329
 9281TIP3    H249335   3.513   5.401  15.896  0.2450  0.6359 -0.5845
 9282TIP3   OH249336   2.099   3.373  10.527 -0.4126 -0.0458  0.0087
 9282TIP3    H149337   2.059   3.343  10.445  1.0048  0.1692 -0.8039
 9282TIP3    H249338   2.051   3.453  10.549 -1.3757 -0.5789 -0.1450
 9283TIP3   OH249339   2.897   2.499  12.914  0.1372 -0.3680 -0.2736
 9283TIP3    H149340   2.904   2.572  12.975  1.4995 -0.1760 -0.6200
 9283TIP3    H249341   2.850   2.536  12.839 -0.1139 -0.1502 -0.0129
 9284TIP3   OH249342   6.386   2.586   5.307  0.0904 -0.3162 -0.3180
 9284TIP3    H149343   6.475   2.553   5.290  0.2161 -0.3266  0.3573
 9284TIP3    H249344   6.358   2.541   5.387 -0.4184 -0.1001 -0.3709
 9285TIP3   OH249345   0.988   4.930   1.718 -0.5831 -0.1250 -0.0957
 9285TIP3    H149346   0.966   4.868   1.648 -1.5827  1.5103 -1.3111
 9285TIP3    H249347   1.075   4.963   1.695 -0.3182 -0.6020  0.2091
 9286TIP3   OH249348   1.400   3.601  16.044 -0.3195 -0.0642  0.1500
 9286TIP3    H149349   1.476   3.613  15.988 -0.0666 -0.4357  0.4085
 9286TIP3    H249350   1.437   3.594  16.132 -0.5782 -1.1505  0.1765
 9287TIP3   OH249351   3.068   2.337  12.262  0.1598 -0.3978 -0.0621
 9287TIP3    H149352   2.992   2.351  12.320 -0.6003 -1.2035 -0.8328
 9287TIP3    H249353   3.037   2.275  12.197  1.4399 -0.5792 -0.5234
 9288TIP3   OH249354   0.698   3.277  14.346 -0.2073  0.5453 -0.1904
 9288TIP3    H149355   0.610   3.301  14.317 -0.6107 -2.1936 -1.5781
 9288TIP3    H249356   0.754   3.292  14.270 -0.4848 -2.5335 -1.1368
 9289TIP3   OH249357   0.288   6.134   3.819  0.1648 -0.2732  0.1825
 9289TIP3    H149358   0.250   6.220   3.837  1.4625  0.1343  1.0858
 9289TIP3    H249359   0.266   6.117   3.727 -1.3842  0.3339  0.4116
 9290TIP3   OH249360   2.261   3.832   0.757 -0.4298  0.6143  0.1981
 9290TIP3    H149361   2.279   3.767   0.826  3.1923 -0.0299 -1.1641
 9290TIP3    H249362   2.257   3.915   0.804  2.8053  0.3081  1.2851
 9291TIP3   OH249363   5.573   4.012  16.199 -0.2149  0.5420 -0.1420
 9291TIP3    H149364   5.500   3.950  16.200 -1.2082  1.6746  1.1645
 9291TIP3    H249365   5.624   3.989  16.276  0.7291 -0.1172 -0.9441
 9292TIP3   OH249366   4.738   2.535  13.617 -0.6767 -0.1648 -0.0627
 9292TIP3    H149367   4.746   2.579  13.702 -0.1949 -0.0825 -0.1494
 9292TIP3    H249368   4.825   2.543  13.577 -1.3943  1.5900 -1.4365
 9293TIP3   OH249369   4.478   2.085   5.475  0.6929 -0.1798  0.2725
 9293TIP3    H149370   4.545   2.077   5.544  0.3578  1.3540  0.8085
 9293TIP3    H249371   4.395   2.082   5.523  0.3928 -0.8830 -0.2735
 9294TIP3   OH249372   2.410   3.062   0.712  0.0828  0.0061 -0.0729
 9294TIP3    H149373   2.325   3.105   0.704  0.5858  1.1325  0.4120
 9294TIP3    H249374   2.403   2.984   0.656 -0.4823  1.2973 -1.9102
 9295TIP3   OH249375   2.065   5.608  15.677  0.2398 -0.3948  0.0958
 9295TIP3    H149376   2.036   5.645  15.761  0.7014 -3.3092  1.6757
 9295TIP3    H249377   2.158   5.591  15.689  0.6986  0.6679 -1.6693
 9296TIP3   OH249378   2.241   6.241   1.806  0.4801  0.0546  0.1099
 9296TIP3    H149379   2.285   6.214   1.887 -0.3055 -0.5264  0.3614
 9296TIP3    H249380   2.306   6.230   1.738  0.3870 -1.9620  0.2826
 9297TIP3   OH249381   4.633   0.909  16.714  0.1587 -0.2990  0.1933
 9297TIP3    H149382   4.654   0.828  16.760 -0.5888  0.1136  1.3097
 9297TIP3    H249383   4.709   0.965  16.729 -0.4780  0.1913  1.8323
 9298TIP3   OH249384   6.279   2.527  14.535 -1.0400  0.2808 -0.3143
 9298TIP3    H149385   6.262   2.615  14.568 -1.4511  0.1168 -0.0673
 9298TIP3    H249386   6.332   2.540  14.457 -0.6301  0.7170  0.0307
 9299TIP3   OH249387   0.339   3.625   2.323  0.3500  0.0478 -0.0024
 9299TIP3    H149388   0.351   3.670   2.406 -1.4444  0.9041 -0.1547
 9299TIP3    H249389   0.288   3.547   2.345  0.3370 -0.0063 -0.2211
 9300TIP3   OH249390   3.654   3.981  12.815 -0.7186 -0.2242 -0.3543
 9300TIP3    H149391   3.649   3.997  12.909  0.1473  1.6239 -0.5718
 9300TIP3    H249392   3.670   3.887  12.807 -3.1836 -0.8900  1.2239
 9301TIP3   OH249393   5.285   3.404  16.993 -0.2341 -0.1294 -0.6490
 9301TIP3    H149394   5.325   3.429  17.077 -0.0344  1.6999 -1.2457
 9301TIP3    H249395   5.302   3.310  16.986  2.3360  0.1967  0.0300
 9302TIP3   OH249396   1.182   1.290   3.287  0.3190 -0.0051 -0.1096
 9302TIP3    H149397   1.141   1.243   3.215 -1.0087 -0.2969  0.7937
 9302TIP3    H249398   1.165   1.383   3.268 -1.6189 -0.1537  0.6958
 9303TIP3   OH249399   0.418   1.045   1.449  0.4934  0.4235 -0.0625
 9303TIP3    H149400   0.399   0.961   1.406  2.3438  0.1238 -0.3535
 9303TIP3    H249401   0.434   1.022   1.540 -3.4857  1.0669  0.9773
 9304TIP3   OH249402   2.810   1.758   2.274  0.1818 -0.2259 -0.0057
 9304TIP3    H149403   2.759   1.779   2.352  2.0704  1.6466  0.8205
 9304TIP3    H249404   2.865   1.685   2.300  1.5005  0.9990  0.8262
 9305TIP3   OH249405   4.358   2.749   3.675  0.1067  0.1718 -0.1196
 9305TIP3    H149406   4.408   2.676   3.711 -0.1865 -0.7305 -1.4797
 9305TIP3    H249407   4.276   2.748   3.725 -0.3995 -1.2180 -0.9139
 9306TIP3   OH249408   1.347   2.649   2.252  0.2160 -0.4102 -0.2866
 9306TIP3    H149409   1.391   2.697   2.181  2.0903 -0.5961  0.6909
 9306TIP3    H249410   1.283   2.711   2.286  1.2921  0.7474 -0.2822
 9307TIP3   OH249411   3.144   5.895   2.204 -0.2058 -0.1013  0.1882
 9307TIP3    H149412   3.108   5.821   2.253  0.4158 -1.3773 -1.1576
 9307TIP3    H249413   3.168   5.857   2.119 -0.0285  1.7076 -0.6234
 9308TIP3   OH249414   2.774   3.606   0.075 -0.4704  0.2701  0.2915
 9308TIP3    H149415   2.725   3.684   0.100  1.2770  1.7481 -0.5853
 9308TIP3    H249416   2.796   3.621  -0.017  0.3425 -1.0288  0.2517
 9309TIP3   OH249417   3.727   3.762  14.621 -0.2882 -0.3067 -0.2630
 9309TIP3    H149418   3.804   3.789  14.671 -2.0815 -0.1687  2.7062
 9309TIP3    H249419   3.669   3.838  14.624 -1.5780 -1.2596 -0.1016
 9310TIP3   OH249420   1.873   1.524   1.051  0.4356 -0.0099  0.4738
 9310TIP3    H149421   1.960   1.513   1.088  0.7173 -1.4233 -0.5453
 9310TIP3    H249422   1.834   1.437   1.054 -0.8633  0.5626  0.7212
 9311TIP3   OH249423   2.124   4.114  13.097 -0.0082  0.0614 -0.0623
 9311TIP3    H149424   2.085   4.033  13.064  1.7492 -1.4320  1.2972
 9311TIP3    H249425   2.100   4.181  13.033 -1.1836 -1.6093 -1.4421
 9312TIP3   OH249426   5.197   5.712   3.746 -0.3526 -0.2545 -0.1567
 9312TIP3    H149427   5.225   5.699   3.655  0.0424  0.0362 -0.0776
 9312TIP3    H249428   5.105   5.685   3.746 -0.1577 -0.9383 -0.4844
 9313TIP3   OH249429   0.555   1.906  14.782 -0.0059 -0.4156  0.2915
 9313TIP3    H149430   0.570   1.926  14.875  0.9778  0.7020 -0.0811
 9313TIP3    H249431   0.603   1.824  14.767 -1.2165 -1.2900  1.0411
 9314TIP3   OH249432   6.128   3.317  16.611  0.1467  0.1171 -0.3741
 9314TIP3    H149433   6.186   3.241  16.605  0.1493  0.1391 -0.6457
 9314TIP3    H249434   6.117   3.332  16.705  0.8036  0.2817 -0.3121
 9315TIP3   OH249435   6.315   4.868  13.666  0.2597  0.3105  0.2793
 9315TIP3    H149436   6.256   4.820  13.723 -0.1611  0.6011  0.0961
 9315TIP3    H249437   6.259   4.934  13.624  0.1938 -0.9577 -1.7478
 9316TIP3   OH249438   6.279   5.672   1.306  0.6117  0.1415  0.0960
 9316TIP3    H149439   6.335   5.614   1.358  0.5311 -1.6196 -1.6274
 9316TIP3    H249440   6.196   5.625   1.300 -0.1677  1.4363  0.3251
 9317TIP3   OH249441   6.824   0.394  10.584 -0.3648 -0.2680 -0.9889
 9317TIP3    H149442   6.781   0.473  10.615  1.2699  0.7451 -1.1434
 9317TIP3    H249443   6.908   0.393  10.631 -0.3364 -1.8858 -1.0372
 9318TIP3   OH249444   2.451   2.446  14.087  0.6944  0.0142 -0.5797
 9318TIP3    H149445   2.478   2.389  14.159 -0.4635  0.6718  0.4201
 9318TIP3    H249446   2.457   2.534  14.124 -2.0206  0.2452 -0.5041
 9319TIP3   OH249447   5.475   4.540   0.706  0.3843  0.8484  0.5766
 9319TIP3    H149448   5.425   4.508   0.781 -0.5922  0.0239 -0.3748
 9319TIP3    H249449   5.464   4.471   0.639 -1.3354  2.8668 -1.3828
 9320TIP3   OH249450   3.587   0.550   4.326 -0.4546  0.7747 -0.3442
 9320TIP3    H149451   3.601   0.473   4.271  0.5142  0.8469 -0.2144
 9320TIP3    H249452   3.612   0.522   4.414  3.3408  2.1215 -0.7834
 9321TIP3   OH249453   2.232   6.638  13.063  0.0298  0.4685 -0.1097
 9321TIP3    H149454   2.294   6.711  13.062 -0.1454  0.6165 -0.2253
 9321TIP3    H249455   2.154   6.672  13.020  0.6575 -0.4260 -2.1202
 9322TIP3   OH249456   4.068   3.861  10.837 -0.3532  0.4278 -0.4973
 9322TIP3    H149457   4.082   3.935  10.778  0.2137 -0.3001 -1.3113
 9322TIP3    H249458   4.063   3.785  10.779 -1.4455 -0.1155  0.2854
 9323TIP3   OH249459   6.348   2.544   0.016  0.2878  1.0929  0.0669
 9323TIP3    H149460   6.429   2.545   0.066 -0.1433 -1.8533  0.9906
 9323TIP3    H249461   6.365   2.483  -0.056 -0.3382  2.4077 -1.2547
 9324TIP3   OH249462   4.918   4.452  12.858  0.5456  0.1863  0.2232
 9324TIP3    H149463   4.846   4.513  12.846 -1.0501 -1.6260  0.0444
 9324TIP3    H249464   4.878   4.366  12.846  2.9026 -0.8723 -0.6117
 9325TIP3   OH249465   5.222   2.233   1.331 -0.6123  0.0847  0.7792
 9325TIP3    H149466   5.189   2.321   1.344 -0.2190  0.2910  0.4057
 9325TIP3    H249467   5.203   2.188   1.413 -1.8665  0.1720  0.5659
 9326TIP3   OH249468   5.167   2.466   4.968 -0.1294 -0.1408 -0.3768
 9326TIP3    H149469   5.091   2.416   4.938 -1.2192  0.3903  1.3448
 9326TIP3    H249470   5.199   2.510   4.889 -1.7551 -0.1915 -1.1145
 9327TIP3   OH249471   1.856   1.987   3.430 -0.1699 -1.0115  0.3861
 9327TIP3    H149472   1.870   1.920   3.363  0.8848  0.6749 -1.1571
 9327TIP3    H249473   1.761   2.001   3.430 -0.2400 -1.4081 -0.3844
 9328TIP3   OH249474   6.412   6.327  13.153 -0.4213  0.3855  0.1471
 9328TIP3    H149475   6.488   6.301  13.102 -0.2638 -1.1657  1.0899
 9328TIP3    H249476   6.434   6.303  13.243 -1.8564  0.2333  0.4938
 9329TIP3   OH249477   0.284   6.245   4.103 -0.1513  0.1648  0.1350
 9329TIP3    H149478   0.316   6.303   4.033  0.3312  0.4047  0.5532
 9329TIP3    H249479   0.242   6.304   4.165 -0.4779 -0.0393  0.1123
 9330TIP3   OH249480   4.916   6.374   3.240 -0.0161 -0.1019  0.1585
 9330TIP3    H149481   4.921   6.279   3.250 -0.7440 -0.1379  0.2177
 9330TIP3    H249482   4.879   6.406   3.322  3.4095  0.6131  1.6276
 9331TIP3   OH249483   6.217   1.239   0.161 -0.3839 -0.4599  1.0908
 9331TIP3    H149484   6.307   1.208   0.168  0.4055  1.1378 -0.7868
 9331TIP3    H249485   6.221   1.329   0.193 -0.8155  0.2901 -0.8107
 9332TIP3   OH249486   3.046   1.920  15.951 -0.0532 -0.0137 -0.6524
 9332TIP3    H149487   3.124   1.935  15.898  0.8871  1.5626  1.0346
 9332TIP3    H249488   3.078   1.874  16.028 -0.8461  0.2854 -0.1287
 9333TIP3   OH249489   5.693   2.561  15.729 -0.0754 -0.0104  0.7979
 9333TIP3    H149490   5.779   2.570  15.687  0.1332 -0.6339  1.0792
 9333TIP3    H249491   5.666   2.472  15.710 -2.0839  1.0326 -1.9340
 9334TIP3   OH249492   0.670   5.417  16.508  0.4238 -0.4149  0.0995
 9334TIP3    H149493   0.729   5.490  16.489  0.8630 -0.9032 -0.4713
 9334TIP3    H249494   0.675   5.405  16.603 -2.4237  2.6069  0.7733
 9335TIP3   OH249495   2.471   2.317  15.619 -0.3569  0.1876 -0.1739
 9335TIP3    H149496   2.488   2.308  15.525  2.6679 -1.1027  0.3769
 9335TIP3    H249497   2.502   2.406  15.640  0.4763 -0.0897 -0.1737
 9336TIP3   OH249498   0.611   2.054   5.318 -0.3066  0.3203 -0.5720
 9336TIP3    H149499   0.603   2.089   5.407  0.1318  0.6690 -0.6673
 9336TIP3    H249500   0.524   2.065   5.280 -0.2580  1.0307 -0.4978
 9337TIP3   OH249501   2.415   2.025   2.484 -0.3365  0.3324 -0.0492
 9337TIP3    H149502   2.490   1.967   2.492 -0.9501 -1.0864 -3.0655
 9337TIP3    H249503   2.415   2.051   2.392 -2.8629  1.2424  0.1237
 9338TIP3   OH249504   1.913   1.863   4.424  0.0904  0.0890 -0.1401
 9338TIP3    H149505   1.951   1.789   4.376  0.0836  0.7729 -1.2500
 9338TIP3    H249506   1.984   1.895   4.479 -0.0248 -0.9735  0.6525
 9339TIP3   OH249507   6.860   4.524   4.693  0.3071 -0.0188 -0.0915
 9339TIP3    H149508   6.815   4.600   4.728 -0.7157 -0.6669  0.0272
 9339TIP3    H249509   6.931   4.560   4.641 -2.0323  1.1384 -2.6777
 9340TIP3   OH249510   1.612   3.934  16.877  0.2245 -0.1104  0.1758
 9340TIP3    H149511   1.538   3.995  16.870 -1.4170 -2.0784 -0.6850
 9340TIP3    H249512   1.627   3.925  16.971 -1.8584 -0.9938  0.4875
 9341TIP3   OH249513   2.534   3.248   1.787  0.7403  0.1287  0.2432
 9341TIP3    H149514   2.443   3.251   1.817  1.0070  0.3567  1.0560
 9341TIP3    H249515   2.541   3.319   1.723  0.3419  0.1017  0.1708
 9342TIP3   OH249516   3.444   4.076   4.961 -0.6049 -0.2976  0.0308
 9342TIP3    H149517   3.359   4.092   4.919 -0.3335 -0.2500 -0.5082
 9342TIP3    H249518   3.465   3.985   4.939  0.6439  0.4057 -1.9809
 9343TIP3   OH249519   0.320   1.705  13.887 -0.6518 -0.1772 -0.0464
 9343TIP3    H149520   0.392   1.689  13.947 -0.4412  0.3924 -0.1430
 9343TIP3    H249521   0.335   1.645  13.814 -0.1909  0.0474 -0.1366
 9344TIP3   OH249522   4.547   4.462   5.468 -0.2736  0.6413  0.5862
 9344TIP3    H149523   4.558   4.488   5.377  0.9614 -2.7052 -0.3467
 9344TIP3    H249524   4.470   4.511   5.497 -0.9838  1.4895 -2.3846
 9345TIP3   OH249525   0.081   5.661  11.373 -0.0788 -0.2933  0.2385
 9345TIP3    H149526   0.169   5.641  11.405  0.1717  0.7993  0.2558
 9345TIP3    H249527   0.044   5.720  11.438 -0.3383  0.2959 -0.4287
 9346TIP3   OH249528   6.260   5.384   6.002 -0.4104  0.4552  0.6021
 9346TIP3    H149529   6.217   5.453   5.951  1.5372  0.3181 -1.4243
 9346TIP3    H249530   6.326   5.431   6.053 -0.0193  0.2546  0.2889
 9347TIP3   OH249531   1.737   5.487   5.384  0.4154  0.3830  0.2084
 9347TIP3    H149532   1.695   5.460   5.466 -3.9412  3.0139 -0.7753
 9347TIP3    H249533   1.719   5.416   5.323 -0.8274  0.5054  0.3978
 9348TIP3   OH249534   1.990   0.948  13.579 -0.1697  0.8317 -0.3870
 9348TIP3    H149535   1.958   0.859  13.567 -1.3982  1.1995 -0.0740
 9348TIP3    H249536   2.039   0.967  13.500  1.9351 -0.8346  0.4262
 9349TIP3   OH249537   2.887   0.822   2.415  0.1153  0.1271  0.0970
 9349TIP3    H149538   2.923   0.834   2.327  0.1395 -2.3265 -0.2994
 9349TIP3    H249539   2.954   0.773   2.462 -0.3009  0.5844  1.2089
 9350TIP3   OH249540   6.846   1.660  13.525  0.4011  0.0813 -0.0598
 9350TIP3    H149541   6.750   1.665  13.524  0.3386 -0.4473  1.1473
 9350TIP3    H249542   6.872   1.675  13.434 -0.7175  1.9092 -0.1085
 9351TIP3   OH249543   2.982   0.194  13.765  0.1322  0.3534 -0.0179
 9351TIP3    H149544   2.930   0.228  13.692 -0.6966  0.5346  0.6421
 9351TIP3    H249545   2.974   0.260  13.834  1.5838  0.5828 -0.0253
 9352TIP3   OH249546   6.733   5.663   3.421 -0.4842  0.0280 -0.3316
 9352TIP3    H149547   6.639   5.663   3.436 -0.6797 -1.7358 -1.2491
 9352TIP3    H249548   6.770   5.713   3.494 -2.0674  0.1069  0.4439
 9353TIP3   OH249549   2.916   3.080   1.278 -0.4427  0.1085  0.5874
 9353TIP3    H149550   2.915   3.152   1.340 -0.2237 -0.6353  1.4690
 9353TIP3    H249551   3.004   3.079   1.242 -0.9906  1.5022 -0.9163
 9354TIP3   OH249552   1.012   3.307  11.032 -1.0354 -0.0017 -0.0595
 9354TIP3    H149553   0.933   3.255  11.049 -0.7992 -0.2247  0.4052
 9354TIP3    H249554   1.081   3.261  11.081 -0.6894  0.3831 -0.1823
 9355TIP3   OH249555   6.135   4.967  12.731  0.7407  0.2900 -0.6210
 9355TIP3    H149556   6.181   4.989  12.650  1.9294 -0.3443 -0.1291
 9355TIP3    H249557   6.201   4.927  12.787  0.0633  1.1501  0.8684
 9356TIP3   OH249558   3.777   0.619   2.675 -0.1503  0.5685 -0.1939
 9356TIP3    H149559   3.700   0.676   2.673 -0.4876  0.1520  0.4494
 9356TIP3    H249560   3.837   0.657   2.611  1.0873  3.5950  2.5142
 9357TIP3   OH249561   6.447   1.463   2.805  0.1318 -0.7161  0.4657
 9357TIP3    H149562   6.392   1.447   2.882 -1.3098 -1.3548 -0.6590
 9357TIP3    H249563   6.391   1.511   2.745  0.9846 -0.9025 -0.5023
 9358TIP3   OH249564   5.573   6.166  13.548  0.1001  0.5141 -0.0947
 9358TIP3    H149565   5.629   6.241  13.524  0.3248  0.4325  0.1670
 9358TIP3    H249566   5.626   6.116  13.610  0.8408 -1.0423 -1.8679
 9359TIP3   OH249567   5.074   4.651  12.944 -0.1749  0.6230 -0.1408
 9359TIP3    H149568   5.050   4.710  12.874 -0.5970  0.2973 -0.2768
 9359TIP3    H249569   5.021   4.573  12.929 -0.9277  0.8810  1.0445
 9360TIP3   OH249570   3.130   2.264   2.459 -0.2701  0.5747  0.6800
 9360TIP3    H149571   3.209   2.212   2.475 -1.7576 -3.3261 -2.9021
 9360TIP3    H249572   3.088   2.270   2.545  1.3725 -1.7801  1.7698
 9361TIP3   OH249573   6.756   4.327  14.517 -0.0906 -0.0031 -0.0018
 9361TIP3    H149574   6.836   4.336  14.465  0.0952  1.1493  0.4458
 9361TIP3    H249575   6.692   4.382  14.472 -0.4226 -0.3387  0.0545
 9362TIP3   OH249576   4.739   5.222  15.343  0.0690  0.6700  0.3149
 9362TIP3    H149577   4.798   5.297  15.330  1.0011  0.1264  1.2682
 9362TIP3    H249578   4.757   5.165  15.268 -1.1987  1.7244 -0.8291
 9363TIP3   OH249579   6.526   4.407  13.675  0.5629 -0.1004  0.0156
 9363TIP3    H149580   6.506   4.447  13.591 -0.5288 -0.7475 -0.0388
 9363TIP3    H249581   6.573   4.327  13.654  0.2535 -0.2833  0.0203
 9364TIP3   OH249582   1.884   3.173  14.684 -0.1451 -0.1854  0.3505
 9364TIP3    H149583   1.956   3.216  14.639 -0.5065  0.4074  0.3299
 9364TIP3    H249584   1.805   3.218  14.653 -0.4977 -0.5958  0.6299
 9365TIP3   OH249585   3.444   1.170  14.008 -0.0036  0.0085  0.4751
 9365TIP3    H149586   3.375   1.105  13.995 -1.2878  1.1322  1.4095
 9365TIP3    H249587   3.520   1.119  14.035 -0.7637 -1.1629  0.4654
 9366TIP3   OH249588   4.108   1.132  10.600 -0.2502  0.3119  0.2281
 9366TIP3    H149589   4.022   1.090  10.601 -0.5966  0.8999 -1.2365
 9366TIP3    H249590   4.121   1.156  10.508  2.8615 -2.4861 -0.2132
 9367TIP3   OH249591   4.241   0.830   5.489 -0.1659  1.0658 -0.6858
 9367TIP3    H149592   4.183   0.798   5.420  0.3814  0.9952 -1.1206
 9367TIP3    H249593   4.256   0.922   5.467 -2.4649  1.9479  1.0554
 9368TIP3   OH249594   4.546   0.203  10.457 -0.4299  0.2636 -0.3919
 9368TIP3    H149595   4.535   0.218  10.363  0.8686 -1.2385 -0.8273
 9368TIP3    H249596   4.606   0.272  10.485 -0.2889  0.3108 -0.8006
 9369TIP3   OH249597   2.400   4.187   1.155 -0.7991 -0.2902 -0.4306
 9369TIP3    H149598   2.343   4.112   1.172 -0.0723 -0.6237  0.6568
 9369TIP3    H249599   2.409   4.229   1.241  0.4158 -0.1250 -0.6258
 9370TIP3   OH249600   5.109   3.186   4.096  0.3041 -1.1037 -0.1306
 9370TIP3    H149601   5.074   3.133   4.167  0.6173 -1.1919 -0.0459
 9370TIP3    H249602   5.196   3.212   4.124  0.0338 -0.2604 -0.0169
 9371TIP3   OH249603   2.004   5.798   5.425 -0.0927  0.0966  0.4645
 9371TIP3    H149604   1.963   5.713   5.405 -1.7017  1.0186 -0.4141
 9371TIP3    H249605   2.054   5.819   5.346 -1.4752  0.9295 -0.2285
 9372TIP3   OH249606   1.725   3.241   6.807  0.1325 -0.0067  0.4668
 9372TIP3    H149607   1.653   3.178   6.813 -1.2307  0.9674 -2.9850
 9372TIP3    H249608   1.683   3.323   6.782  2.2366  1.2954  0.9343
 9373TIP3   OH249609   5.601   3.495  11.816  0.3525  0.1291 -0.1661
 9373TIP3    H149610   5.528   3.508  11.755  1.2463  1.0072 -1.0937
 9373TIP3    H249611   5.636   3.583  11.831  1.8744 -0.3671 -0.5898
 9374TIP3   OH249612   2.770   1.200   2.692  0.4128 -0.0291 -0.2417
 9374TIP3    H149613   2.823   1.248   2.755 -1.6060  2.6215 -0.3882
 9374TIP3    H249614   2.832   1.167   2.627  2.2999 -1.0217  1.9485
 9375TIP3   OH249615   3.286   0.748  16.418 -0.5130 -0.0841  0.4050
 9375TIP3    H149616   3.287   0.773  16.510 -0.1678 -2.3731  1.0884
 9375TIP3    H249617   3.340   0.669  16.414  0.3740  0.5517 -1.9721
 9376TIP3   OH249618   3.788   6.451  13.081 -0.1243 -0.1823 -0.5817
 9376TIP3    H149619   3.853   6.425  13.146  0.3591 -0.9007 -1.3383
 9376TIP3    H249620   3.706   6.455  13.130  0.5959  1.6740  0.5995
 9377TIP3   OH249621   0.517   5.595  15.701  0.2415  0.2647 -0.5444
 9377TIP3    H149622   0.523   5.614  15.608  0.1115  1.5479 -0.3042
 9377TIP3    H249623   0.605   5.566  15.726 -0.0694 -1.4989 -1.3307
 9378TIP3   OH249624   3.909   5.316  15.225 -0.0523  0.0879 -0.2787
 9378TIP3    H149625   3.902   5.407  15.254  1.2746 -0.3323  1.5951
 9378TIP3    H249626   3.946   5.321  15.137 -0.8681  1.3658 -0.5769
 9379TIP3   OH249627   0.208   0.843  16.908  0.4946  0.0685 -0.1915
 9379TIP3    H149628   0.260   0.920  16.927  0.2770  0.3311 -0.6578
 9379TIP3    H249629   0.124   0.859  16.952  1.2050 -0.8989  1.6205
 9380TIP3   OH249630   4.069   2.132   4.511  0.0467  0.1671  0.3798
 9380TIP3    H149631   3.978   2.108   4.524  0.2028  0.4324  2.2292
 9380TIP3    H249632   4.117   2.049   4.517  0.0481  0.1991  0.8632
 9381TIP3   OH249633   4.956   2.008   4.650  0.2216 -0.5771 -0.1505
 9381TIP3    H149634   4.932   1.957   4.573  0.0258  2.0944 -1.9767
 9381TIP3    H249635   5.044   1.979   4.672  1.2310  0.1722 -2.8548
 9382TIP3   OH249636   3.715   3.368  15.644 -0.0841 -0.2688 -0.6031
 9382TIP3    H149637   3.778   3.436  15.668 -0.7891  0.6525 -1.2697
 9382TIP3    H249638   3.724   3.361  15.549  1.3447 -2.5145 -0.3635
 9383TIP3   OH249639   0.948   6.148   1.963 -0.7152 -0.3190  0.6145
 9383TIP3    H149640   0.957   6.186   1.875  0.1046 -2.7574 -0.4579
 9383TIP3    H249641   0.867   6.185   1.997 -0.6262  1.3385 -0.7992
 9384TIP3   OH249642   6.570   3.877   0.234  0.2127  0.2028 -0.5734
 9384TIP3    H149643   6.575   3.901   0.326 -0.2742 -0.0344 -0.4873
 9384TIP3    H249644   6.614   3.792   0.229  0.3555  0.2758 -0.5858
 9385TIP3   OH249645   5.422   0.074   2.407 -0.6396 -0.1905 -0.3687
 9385TIP3    H149646   5.337   0.050   2.371 -0.6853 -2.0406  0.8262
 9385TIP3    H249647   5.400   0.127   2.485 -0.8304 -2.3081  1.0872
 9386TIP3   OH249648   0.815   1.056   5.135  0.0347 -0.2529 -0.1978
 9386TIP3    H149649   0.758   1.106   5.077 -1.1260 -0.7556  0.4770
 9386TIP3    H249650   0.900   1.056   5.091 -0.7111 -0.3104 -1.7081
 9387TIP3   OH249651   6.566   6.168   5.419  0.4104 -0.0257  0.4084
 9387TIP3    H149652   6.531   6.211   5.341  2.1262  1.2045  0.2705
 9387TIP3    H249653   6.538   6.224   5.491  0.9848  0.2547  0.4186
 9388TIP3   OH249654   2.164   2.390  14.287  0.5907 -0.3778 -0.1595
 9388TIP3    H149655   2.103   2.443  14.338 -0.4226 -1.1199 -0.5659
 9388TIP3    H249656   2.216   2.343  14.353  0.4250 -0.0728  0.1901
 9389TIP3   OH249657   3.650   3.875  13.091 -0.4076  0.4998 -0.2533
 9389TIP3    H149658   3.600   3.882  13.173  0.9222 -0.0721  0.6262
 9389TIP3    H249659   3.684   3.786  13.091 -0.2588  0.5438 -1.3731
 9390TIP3   OH249660   2.495   2.272  16.807 -0.0410  0.0612  0.0335
 9390TIP3    H149661   2.581   2.311  16.794 -0.1791  0.6679  0.8741
 9390TIP3    H249662   2.511   2.178  16.801  0.7669  0.1462  0.6246
 9391TIP3   OH249663   2.158   4.411   1.105 -0.1130  0.8895 -0.6180
 9391TIP3    H149664   2.222   4.479   1.122  0.9136  0.1753 -1.5116
 9391TIP3    H249665   2.131   4.381   1.192  1.7757  0.2895 -0.1923
 9392TIP3   OH249666   4.393   2.074  11.633 -0.0214 -0.8523  0.3821
 9392TIP3    H149667   4.431   1.990  11.607  0.5881  0.1651 -2.2895
 9392TIP3    H249668   4.321   2.088  11.572  0.2702  0.8282  0.3654
 9393TIP3   OH249669   1.622   6.010  12.098  0.0387 -0.0419  0.0190
 9393TIP3    H149670   1.629   6.058  12.016 -1.1347 -1.3742 -0.9177
 9393TIP3    H249671   1.531   6.024  12.126  0.2734 -0.0552  0.8038
 9394TIP3   OH249672   5.417   3.797   3.055 -0.7649  0.5436 -0.0220
 9394TIP3    H149673   5.332   3.840   3.044  0.1549  2.7751  0.9117
 9394TIP3    H249674   5.424   3.737   2.981 -1.9572  2.3820 -1.7296
 9395TIP3   OH249675   5.242   0.667  16.705  0.2244  0.0459  0.0660
 9395TIP3    H149676   5.236   0.652  16.800  0.0971  0.7690  0.1830
 9395TIP3    H249677   5.154   0.698  16.680 -0.2219 -1.6636 -0.5891
 9396TIP3   OH249678   4.310   4.407   3.433 -0.2373 -0.1438 -0.0652
 9396TIP3    H149679   4.351   4.327   3.465  0.7060 -0.5891 -2.2784
 9396TIP3    H249680   4.233   4.418   3.490  0.0641 -2.1486  0.8183
 9397TIP3   OH249681   0.360   6.478   0.200 -0.0765  0.2040 -0.4284
 9397TIP3    H149682   0.416   6.401   0.190  1.3029  1.0318  0.5865
 9397TIP3    H249683   0.409   6.536   0.259 -1.4913  1.4683 -0.4383
 9398TIP3   OH249684   4.670   5.544   4.008  0.2991 -0.4850  0.6397
 9398TIP3    H149685   4.632   5.457   4.002 -0.3075 -0.1443 -0.9286
 9398TIP3    H249686   4.613   5.599   3.955  1.2601  0.6630  0.7444
 9399TIP3   OH249687   3.599   4.213  14.321  0.0157  0.4357  0.3338
 9399TIP3    H149688   3.595   4.170  14.236  1.1727 -2.0722  1.4421
 9399TIP3    H249689   3.554   4.152  14.381  0.4480  1.4470  1.7416
 9400TIP3   OH249690   0.163   6.513  11.473 -0.5252 -0.0300  0.0060
 9400TIP3    H149691   0.149   6.559  11.556  0.9859  0.0936  0.2288
 9400TIP3    H249692   0.160   6.581  11.407  1.3180  0.3747  0.2955
 9401TIP3   OH249693   3.507   5.960   4.314 -0.0647 -0.0899  0.6344
 9401TIP3    H149694   3.490   5.871   4.283  0.4725  0.0347 -0.0656
 9401TIP3    H249695   3.521   5.951   4.408 -0.7511 -0.6324  0.6911
 9402TIP3   OH249696   6.008   6.772  15.843 -0.1393 -0.4193 -0.6213
 9402TIP3    H149697   6.095   6.764  15.804  0.4677 -0.2507  0.6502
 9402TIP3    H249698   6.001   6.699  15.904 -0.4037  0.2289  0.1524
 9403TIP3   OH249699   2.544   2.672   5.211  0.3205  0.3358  0.0067
 9403TIP3    H149700   2.631   2.702   5.186  0.5025 -0.7941 -0.8019
 9403TIP3    H249701   2.533   2.704   5.301  1.3039  1.0308 -0.1008
 9404TIP3   OH249702   5.996   3.798   1.515 -0.2491 -0.7962 -0.7777
 9404TIP3    H149703   5.972   3.706   1.527 -3.2311 -0.0550 -0.3477
 9404TIP3    H249704   5.977   3.839   1.599  4.1413 -0.2307  0.1528
 9405TIP3   OH249705   1.237   4.592   6.753  0.2197 -0.1635  0.0384
 9405TIP3    H149706   1.258   4.499   6.750 -2.1452 -0.7289 -1.2769
 9405TIP3    H249707   1.260   4.625   6.666 -1.9258 -0.3258 -0.6653
 9406TIP3   OH249708   2.899   4.950  15.131  0.4918  0.2828  0.1849
 9406TIP3    H149709   2.926   4.887  15.063 -0.3531  0.5248 -0.3931
 9406TIP3    H249710   2.954   5.026  15.116 -0.1799  0.6184 -0.7256
 9407TIP3   OH249711   2.600   6.165  15.006 -0.5871  0.1400 -0.1970
 9407TIP3    H149712   2.666   6.098  15.022 -0.8801  0.0473  0.6889
 9407TIP3    H249713   2.535   6.122  14.951 -0.0965  0.1224 -0.7721
 9408TIP3   OH249714   1.808   1.504  13.219  0.4276 -0.1469  0.1757
 9408TIP3    H149715   1.897   1.512  13.185 -0.2602 -0.9591 -2.0029
 9408TIP3    H249716   1.786   1.592  13.249  2.0768 -0.0218  1.1585
 9409TIP3   OH249717   5.010   5.672   0.228  0.8298  0.5783 -0.0956
 9409TIP3    H149718   5.022   5.599   0.290 -1.2629  1.7184  1.8239
 9409TIP3    H249719   4.949   5.638   0.163  0.4248  0.3865  0.3794
 9410TIP3   OH249720   5.722   4.042   3.540 -0.4913  0.2339  0.6043
 9410TIP3    H149721   5.801   4.096   3.539 -1.1292  1.2246  1.2088
 9410TIP3    H249722   5.655   4.097   3.499 -1.0404 -0.2925  0.7793
 9411TIP3   OH249723   3.821   0.969  14.461  0.1503  0.3511  0.0361
 9411TIP3    H149724   3.758   0.907  14.425 -0.4325  1.5110 -1.0039
 9411TIP3    H249725   3.840   0.935  14.549 -1.5842 -0.2867  0.2181
 9412TIP3   OH249726   2.706   2.277  13.539  0.7891  0.3480 -0.3000
 9412TIP3    H149727   2.753   2.304  13.460  2.3239 -1.3884 -0.0425
 9412TIP3    H249728   2.613   2.287  13.517  1.1966  0.0807 -2.2520
 9413TIP3   OH249729   2.298   6.314  16.757 -0.1985 -0.3165 -0.1315
 9413TIP3    H149730   2.340   6.259  16.690  2.0565  0.1385  0.8223
 9413TIP3    H249731   2.244   6.253  16.808 -0.5061 -0.9805 -1.2120
 9414TIP3   OH249732   5.078   2.114   3.185  0.1536 -0.0903  0.5516
 9414TIP3    H149733   5.060   2.022   3.203  2.5208 -0.2924  2.4148
 9414TIP3    H249734   5.126   2.145   3.262  0.4963  2.3823 -0.5429
 9415TIP3   OH249735   6.001   2.492  14.424  0.1282 -0.2456 -0.5517
 9415TIP3    H149736   6.054   2.508  14.502  0.4083  2.0046 -1.1264
 9415TIP3    H249737   6.064   2.460  14.359  0.2741 -0.1796 -0.4437
 9416TIP3   OH249738   4.140   4.044   3.461  0.1751 -0.0532  0.1549
 9416TIP3    H149739   4.211   4.004   3.411  1.4600  0.9469  1.1176
 9416TIP3    H249740   4.142   3.999   3.546 -1.5474 -1.2680 -0.3907
 9417TIP3   OH249741   6.752   4.433  16.080  0.2505 -0.1178  0.3663
 9417TIP3    H149742   6.694   4.414  16.006  2.7704 -0.4499 -1.6601
 9417TIP3    H249743   6.739   4.526  16.098 -2.2246 -0.5740  1.2487
 9418TIP3   OH249744   4.452   1.677   3.689  0.0244  0.0933  0.3463
 9418TIP3    H149745   4.460   1.768   3.719  0.5842 -0.0262  0.5665
 9418TIP3    H249746   4.438   1.684   3.595  2.5207  0.3550 -0.0677
 9419TIP3   OH249747   5.823   3.693  10.486 -0.0580  0.5507  0.5362
 9419TIP3    H149748   5.786   3.781  10.493 -0.5105  0.5578 -1.2859
 9419TIP3    H249749   5.891   3.690  10.553  0.4723  2.5382  0.1598
 9420TIP3   OH249750   1.078   6.702  13.540 -0.0767 -0.2574 -0.0241
 9420TIP3    H149751   1.151   6.762  13.552 -0.5903  0.2967  0.3508
 9420TIP3    H249752   1.118   6.615  13.544  0.5419  0.0367  0.3402
 9421TIP3   OH249753   1.656   4.819   4.475  0.4010 -0.0302 -0.1405
 9421TIP3    H149754   1.664   4.797   4.383  0.4381 -0.7480  0.0217
 9421TIP3    H249755   1.561   4.822   4.491  0.2408  3.5418 -0.9510
 9422TIP3   OH249756   6.502   0.321  13.537  0.1354 -1.3788 -0.4072
 9422TIP3    H149757   6.539   0.305  13.451 -1.4113 -0.9052 -1.2023
 9422TIP3    H249758   6.574   0.307  13.598  2.2578  1.6514 -1.9792
 9423TIP3   OH249759   6.677   6.093  16.475 -0.1225 -0.3196  0.5769
 9423TIP3    H149760   6.678   6.147  16.396  3.5023 -1.0122 -0.0232
 9423TIP3    H249761   6.689   6.156  16.547 -0.1835  0.0561  0.2584
 9424TIP3   OH249762   6.370   5.585  12.995 -0.0383  0.3327 -0.5373
 9424TIP3    H149763   6.285   5.560  13.031 -0.1809 -0.4234 -1.3654
 9424TIP3    H249764   6.397   5.661  13.046 -1.1685  0.5167 -0.2022
 9425TIP3   OH249765   0.001   3.361   1.799  0.2371  0.2390  0.0565
 9425TIP3    H149766   0.085   3.319   1.782  1.1231  1.4429  1.1964
 9425TIP3    H249767  -0.060   3.289   1.814  1.4985 -0.6512  1.0509
 9426TIP3   OH249768   5.280   4.167  16.110 -0.1922  0.1951  0.1575
 9426TIP3    H149769   5.373   4.186  16.109  0.2855 -1.7618 -1.5973
 9426TIP3    H249770   5.266   4.117  16.191  0.6364 -0.8283 -0.3082
 9427TIP3   OH249771   6.707   0.731   4.035  0.0781  0.2193 -0.0614
 9427TIP3    H149772   6.624   0.728   3.988  0.4220  2.7647 -1.0340
 9427TIP3    H249773   6.771   0.753   3.967  1.8560 -2.9848  0.3971
 9428TIP3   OH249774   6.865   3.032   4.464 -0.5154  0.1508 -0.1192
 9428TIP3    H149775   6.944   3.007   4.417 -0.5159  2.0945 -1.2686
 9428TIP3    H249776   6.859   2.970   4.536  2.3967  0.2963  0.3578
 9429TIP3   OH249777   1.223   4.773   5.594 -0.2335 -0.0679 -0.5668
 9429TIP3    H149778   1.143   4.822   5.614  0.8123  0.7503  2.0304
 9429TIP3    H249779   1.261   4.820   5.520 -2.3752 -0.8300 -2.2578
 9430TIP3   OH249780   0.300   3.687  11.830  0.7809  0.1875  0.4869
 9430TIP3    H149781   0.361   3.726  11.768  0.8489 -0.2879  0.2502
 9430TIP3    H249782   0.289   3.753  11.898  1.4693  0.3235  0.4701
 9431TIP3   OH249783   0.229   6.127  15.553 -0.3852 -0.1092 -0.3024
 9431TIP3    H149784   0.207   6.054  15.611 -0.8906  0.0328 -0.3112
 9431TIP3    H249785   0.273   6.085  15.479 -0.5740 -0.3939 -0.2571
 9432TIP3   OH249786   4.325   0.761   4.665  0.3694 -0.9235  0.0222
 9432TIP3    H149787   4.307   0.669   4.644  0.6237 -1.8427  3.2151
 9432TIP3    H249788   4.244   0.793   4.704  0.7646 -0.3138  0.3611
 9433TIP3   OH249789   4.089   0.602   4.253 -0.3516  0.0744  0.4684
 9433TIP3    H149790   4.133   0.587   4.169 -0.4649  0.9878  0.2404
 9433TIP3    H249791   3.999   0.626   4.228 -0.2636  0.7998  0.8263
 9434TIP3   OH249792   2.071   0.593   1.066 -0.3813  0.5855  0.2107
 9434TIP3    H149793   2.158   0.554   1.055 -0.1498  1.2695 -0.4747
 9434TIP3    H249794   2.075   0.637   1.151 -0.2946  0.0247  0.4998
 9435TIP3   OH249795   6.191   3.301  16.086 -0.1958  0.0191 -0.1394
 9435TIP3    H149796   6.213   3.211  16.065  1.5434 -0.3012  2.5105
 9435TIP3    H249797   6.275   3.346  16.090 -0.7405  0.9926  1.5196
 9436TIP3   OH249798   6.007   4.368   4.565 -0.6051  1.0368  0.0126
 9436TIP3    H149799   5.959   4.448   4.544 -1.1978  0.2230 -1.9190
 9436TIP3    H249800   5.951   4.298   4.534 -0.4014 -0.2227  2.2568
 9437TIP3   OH249801   1.169   5.603  10.990  0.0105  0.1184  0.1204
 9437TIP3    H149802   1.245   5.607  10.931  0.6971  0.2656  0.9929
 9437TIP3    H249803   1.115   5.532  10.955  0.0066  0.7250 -1.1405
 9438TIP3   OH249804   3.623   4.385   1.898  0.0015 -0.6517  0.4850
 9438TIP3    H149805   3.706   4.339   1.910 -0.0102 -0.9112 -0.3544
 9438TIP3    H249806   3.561   4.317   1.872 -0.8325 -0.6946  2.4410
 9439TIP3   OH249807   5.100   4.509   3.977  0.0805  0.5200 -0.3098
 9439TIP3    H149808   5.055   4.555   3.907 -0.2328  0.4186 -0.1772
 9439TIP3    H249809   5.065   4.547   4.057  0.7095  0.8961 -0.2100
 9440TIP3   OH249810   5.842   1.507  11.826  0.1928 -0.1135  0.0601
 9440TIP3    H149811   5.779   1.563  11.870  0.8357 -0.0134  0.8842
 9440TIP3    H249812   5.921   1.514  11.879  1.1488  0.3620 -1.3636
 9441TIP3   OH249813   0.576   3.084  11.745 -0.1746 -0.4740  0.0920
 9441TIP3    H149814   0.599   3.147  11.813 -0.6555 -1.9816  1.7397
 9441TIP3    H249815   0.652   3.027  11.738 -0.4095 -0.7665 -0.1156
 9442TIP3   OH249816   1.471   1.584   5.592 -0.1786 -0.3679 -0.3293
 9442TIP3    H149817   1.444   1.492   5.592  0.6123 -0.6369 -2.2884
 9442TIP3    H249818   1.415   1.625   5.527 -1.4313  0.8855  1.4402
 9443TIP3   OH249819   4.759   2.864   1.627  0.2607  0.1723  0.9791
 9443TIP3    H149820   4.820   2.917   1.677  1.4275 -0.2715  0.0821
 9443TIP3    H249821   4.781   2.774   1.649 -0.1133  0.0057  0.6960
 9444TIP3   OH249822   1.010   4.577  12.463 -0.2243 -0.1612  0.1708
 9444TIP3    H149823   1.070   4.533  12.404  0.9978 -0.6630  1.7270
 9444TIP3    H249824   0.948   4.622  12.405  2.0156  0.9418 -1.5257
 9445TIP3   OH249825   1.305   4.573   5.431  0.6792  0.3212  0.2481
 9445TIP3    H149826   1.389   4.612   5.408  0.8122  0.8170  1.5380
 9445TIP3    H249827   1.251   4.646   5.461  0.1531 -0.1490  0.4822
 9446TIP3   OH249828   1.755   1.692  15.592  0.1695 -0.6679  0.1254
 9446TIP3    H149829   1.829   1.750  15.576 -1.2930  1.0573 -0.7558
 9446TIP3    H249830   1.776   1.650  15.676  1.8912  0.1413  0.1603
 9447TIP3   OH249831   3.497   3.686   2.162 -0.9544  0.7441 -0.0275
 9447TIP3    H149832   3.495   3.716   2.071 -1.3766 -0.5027 -0.4513
 9447TIP3    H249833   3.551   3.750   2.207  2.8116 -0.7196 -1.9867
 9448TIP3   OH249834   6.719   2.639  16.823  0.4826  0.0925  0.2804
 9448TIP3    H149835   6.732   2.548  16.850  0.3279  0.1343  0.5041
 9448TIP3    H249836   6.673   2.634  16.739 -0.1807 -0.0328  0.6389
 9449TIP3   OH249837   5.714   3.847   5.475  1.0149  0.1632  0.3829
 9449TIP3    H149838   5.802   3.811   5.484  0.4426 -1.2242  0.5822
 9449TIP3    H249839   5.728   3.942   5.469  2.7792 -0.1350 -2.8607
 9450TIP3   OH249840   3.960   5.606  15.185  0.7920  0.1718 -0.5694
 9450TIP3    H149841   3.889   5.663  15.156  0.3466 -0.6161 -1.0618
 9450TIP3    H249842   3.953   5.605  15.280 -1.0026 -1.2934 -0.6689
 9451TIP3   OH249843   0.944   5.111   5.427  0.2195  0.0963 -0.6076
 9451TIP3    H149844   0.894   5.191   5.414 -3.1233 -1.7707 -0.3718
 9451TIP3    H249845   0.971   5.084   5.340 -3.5938 -1.3278 -1.5249
 9452TIP3   OH249846   4.725   6.354   5.001  0.0624 -0.2249  0.3431
 9452TIP3    H149847   4.771   6.270   5.008 -0.5649 -0.5859  0.2358
 9452TIP3    H249848   4.726   6.374   4.907 -1.0866 -0.8704  0.1718
 9453TIP3   OH249849   0.174   1.116   4.192 -0.7171 -0.0450  0.3041
 9453TIP3    H149850   0.201   1.026   4.176  2.6058  0.5384  1.8187
 9453TIP3    H249851   0.113   1.111   4.266 -1.7003 -1.1037 -0.5418
 9454TIP3   OH249852   1.711   3.615   3.598  0.4260 -0.1905  0.0844
 9454TIP3    H149853   1.737   3.596   3.508 -0.0734 -0.8065  0.0686
 9454TIP3    H249854   1.725   3.533   3.645  2.0383  0.4959  0.9049
 9455TIP3   OH249855   1.737   3.521   6.671  0.4077  0.4314  0.7384
 9455TIP3    H149856   1.730   3.612   6.641  2.5974  0.4041  0.0125
 9455TIP3    H249857   1.775   3.527   6.758  0.3576  0.2129  0.7765
 9456TIP3   OH249858   2.089   0.253  12.038 -0.0270 -0.4647  0.1826
 9456TIP3    H149859   2.057   0.225  11.953 -0.2664 -0.4113  0.2537
 9456TIP3    H249860   2.041   0.334  12.056 -0.6141 -0.9373  0.7596
 9457TIP3   OH249861   4.625   5.471  11.230  0.7334  0.4918 -0.0045
 9457TIP3    H149862   4.587   5.531  11.294  1.1822  1.0870 -0.2847
 9457TIP3    H249863   4.654   5.527  11.158  1.2137 -0.0523 -0.2501
 9458TIP3   OH249864   1.184   1.070  13.667 -0.5157 -0.1681  0.1061
 9458TIP3    H149865   1.108   1.127  13.661  0.3681  1.0244 -0.1855
 9458TIP3    H249866   1.240   1.112  13.732  0.7117  0.0107 -1.0171
 9459TIP3   OH249867   4.745   3.063   6.064  0.4411 -0.1087  0.2454
 9459TIP3    H149868   4.721   2.990   6.122  0.7858 -2.0035 -1.8970
 9459TIP3    H249869   4.836   3.048   6.041 -0.0992 -0.3057 -1.9943
 9460TIP3   OH249870   1.819   5.414   3.425 -0.0619 -0.6364 -0.0457
 9460TIP3    H149871   1.911   5.438   3.436 -0.4735 -0.0548  3.0273
 9460TIP3    H249872   1.787   5.401   3.514 -2.8999 -1.1365 -1.0373
 9461TIP3   OH249873   2.320   5.932  12.164 -0.3798 -0.0805 -0.1597
 9461TIP3    H149874   2.248   5.874  12.189  1.0945 -0.8882  2.6268
 9461TIP3    H249875   2.282   6.020  12.166 -1.4340 -0.5296  0.7005
 9462TIP3   OH249876   6.779   0.201   0.879  0.3462  0.3543  0.0880
 9462TIP3    H149877   6.728   0.275   0.845  0.4893  0.1996 -0.4715
 9462TIP3    H249878   6.750   0.126   0.826 -0.4189 -0.1645  1.2142
 9463TIP3   OH249879   3.480   5.241  17.027 -0.1427  0.3921  0.3126
 9463TIP3    H149880   3.450   5.277  17.110 -0.9518 -0.4326  0.3925
 9463TIP3    H249881   3.456   5.148  17.031 -1.5406  0.6310 -1.4340
 9464TIP3   OH249882   2.047   4.619   5.143 -0.3576  0.2033 -0.4735
 9464TIP3    H149883   2.096   4.541   5.167 -0.5786 -0.3522 -1.7969
 9464TIP3    H249884   1.964   4.586   5.110 -0.3962  0.9918 -1.1894
 9465TIP3   OH249885   5.787   5.612  16.156 -0.1033 -0.2105 -0.5967
 9465TIP3    H149886   5.876   5.626  16.186 -0.9119 -0.2422  2.0561
 9465TIP3    H249887   5.776   5.517  16.158 -0.2707 -0.1936 -0.6921
 9466TIP3   OH249888   3.310   1.461  13.405  0.2938 -0.0416 -0.2491
 9466TIP3    H149889   3.396   1.419  13.396 -0.4134 -1.9113  1.1364
 9466TIP3    H249890   3.250   1.403  13.357 -0.4631  0.2380  0.3376
 9467TIP3   OH249891   6.730   2.690   5.010 -0.3106 -0.6833 -0.5481
 9467TIP3    H149892   6.809   2.656   4.968  1.3482 -0.4489  2.1954
 9467TIP3    H249893   6.670   2.615   5.011  0.8956 -1.6661 -0.2532
 9468TIP3   OH249894   3.426   5.821   5.405 -0.1988  0.0730  0.0248
 9468TIP3    H149895   3.347   5.771   5.425 -1.1784  1.3322 -0.5283
 9468TIP3    H249896   3.468   5.835   5.490 -0.7159 -0.3673  0.3578
 9469TIP3   OH249897   1.168   4.330  12.699 -0.4856  0.2950 -0.8070
 9469TIP3    H149898   1.254   4.370  12.712  1.7571 -3.9487 -0.8241
 9469TIP3    H249899   1.151   4.283  12.781 -1.8086 -0.5977 -1.5642
 9470TIP3   OH249900   4.664   3.491  12.778  0.6519  0.0729 -0.2372
 9470TIP3    H149901   4.625   3.570  12.740  1.0126 -0.1613 -1.1164
 9470TIP3    H249902   4.745   3.479  12.729  0.5205 -0.9376 -0.2327
 9471TIP3   OH249903   3.822   1.371  12.525  0.2289 -0.2515  0.0836
 9471TIP3    H149904   3.866   1.295  12.564 -0.8769 -1.0899 -0.2337
 9471TIP3    H249905   3.775   1.334  12.450 -1.3235  0.5379  0.6482
 9472TIP3   OH249906   4.997   5.579   0.512 -0.2946 -0.0723 -0.9978
 9472TIP3    H149907   4.960   5.666   0.497  0.3031  0.4193  0.2392
 9472TIP3    H249908   4.925   5.528   0.550 -0.6019 -0.0858 -1.5863
 9473TIP3   OH249909   1.892   2.571   0.416 -0.4001 -0.3540 -0.0142
 9473TIP3    H149910   1.836   2.547   0.489 -0.3169  0.6667  0.3915
 9473TIP3    H249911   1.980   2.575   0.453 -0.4405  0.8009 -0.0138
 9474TIP3   OH249912   2.132   6.133   3.518 -0.0577 -0.3393  0.8512
 9474TIP3    H149913   2.197   6.115   3.587 -1.7472 -1.1422  2.3100
 9474TIP3    H249914   2.148   6.224   3.493  1.1215 -0.2778  1.7355
 9475TIP3   OH249915   1.524   2.255   3.645 -0.7572  0.4380  0.3730
 9475TIP3    H149916   1.510   2.235   3.737 -2.5661  0.5389  0.1569
 9475TIP3    H249917   1.444   2.301   3.618  0.0106  0.9806 -1.0818
 9476TIP3   OH249918   5.426   1.446   5.329 -0.4932  0.4028 -0.2792
 9476TIP3    H149919   5.507   1.440   5.380 -1.4164 -0.8996  1.1425
 9476TIP3    H249920   5.441   1.518   5.268  2.0878 -0.4099 -0.7437
 9477TIP3   OH249921   6.786   3.461  11.322 -0.5161 -0.0506  0.0610
 9477TIP3    H149922   6.713   3.481  11.263 -1.2738  0.0012  0.9975
 9477TIP3    H249923   6.822   3.378  11.288 -0.2341  0.5328 -1.1163
 9478TIP3   OH249924   1.576   3.278   4.466  0.2342  0.7215 -0.3487
 9478TIP3    H149925   1.658   3.289   4.416 -0.3432  1.4860 -1.1584
 9478TIP3    H249926   1.529   3.209   4.419  1.4883 -1.5965  1.5999
 9479TIP3   OH249927   1.267   5.565   5.580 -0.1987  0.2825  0.6504
 9479TIP3    H149928   1.226   5.629   5.638  1.1610  2.1917 -0.3853
 9479TIP3    H249929   1.360   5.567   5.602 -0.0615 -1.1099  0.3335
 9480TIP3   OH249930   0.244   3.381   5.811  0.2546 -1.1271  0.2474
 9480TIP3    H149931   0.185   3.414   5.743  0.1316 -3.5442 -0.9283
 9480TIP3    H249932   0.271   3.459   5.860  1.3181  0.9263 -3.3091
 9481TIP3   OH249933   4.540   3.149  12.063 -0.9242  0.4086 -0.1946
 9481TIP3    H149934   4.461   3.142  12.117 -0.5158  0.1878  0.3887
 9481TIP3    H249935   4.544   3.065  12.017 -0.0203 -0.3745  1.2188
 9482TIP3   OH249936   3.177   6.697  15.209  0.2437  0.2007 -0.5780
 9482TIP3    H149937   3.222   6.690  15.125  2.2216 -0.0073  0.4203
 9482TIP3    H249938   3.227   6.763  15.257  1.4378 -2.1667  1.6963
 9483TIP3   OH249939   3.521   1.182  15.212 -0.5134 -0.3882 -0.5733
 9483TIP3    H149940   3.445   1.125  15.225 -1.3859  0.5520 -1.3382
 9483TIP3    H249941   3.589   1.146  15.269 -1.7256 -0.8916  0.5903
 9484TIP3   OH249942   1.521   4.751   5.440  0.1209  0.2084 -0.0624
 9484TIP3    H149943   1.589   4.759   5.373 -0.3399  0.4053 -0.5201
 9484TIP3    H249944   1.560   4.786   5.520  0.4694  0.5601 -0.3857
 9485TIP3   OH249945   6.437   0.002  16.966 -0.1840  0.1385 -0.2354
 9485TIP3    H149946   6.529  -0.017  16.985 -0.0763  0.4712 -0.4045
 9485TIP3    H249947   6.440   0.081  16.912 -0.6302  0.8878  0.7997
 9486TIP3   OH249948   3.809   1.599  11.985  1.1352  0.6709  0.3543
 9486TIP3    H149949   3.797   1.623  11.893  0.8258 -0.5929  0.0484
 9486TIP3    H249950   3.904   1.586  11.994  1.1865  0.9776  0.2597
 9487TIP3   OH249951   4.426   4.841   0.168 -0.1792 -0.8433  0.1995
 9487TIP3    H149952   4.473   4.803   0.093 -0.5315 -0.1043 -0.4053
 9487TIP3    H249953   4.370   4.909   0.130  0.0622 -0.0552  1.2040
 9488TIP3   OH249954   4.778   6.784  13.449 -0.1543 -0.4535  0.1049
 9488TIP3    H149955   4.683   6.782  13.434  0.0267 -2.0881 -1.0192
 9488TIP3    H249956   4.811   6.849  13.387 -0.4356 -0.6062 -0.2052
 9489TIP3   OH249957   0.741   4.731  11.419 -0.0771 -0.2640 -0.5316
 9489TIP3    H149958   0.834   4.710  11.413  0.2164  0.5879  0.6146
 9489TIP3    H249959   0.702   4.655  11.463  0.5324  0.3870  1.2414
 9490TIP3   OH249960   6.815   1.855   0.444 -0.3460 -0.2235 -0.1225
 9490TIP3    H149961   6.880   1.916   0.410 -0.3684  1.1539  2.1278
 9490TIP3    H249962   6.867   1.780   0.474 -0.1593 -0.6090 -1.3401
 9491TIP3   OH249963   6.430   2.156   4.091  0.3992  0.7549  0.1768
 9491TIP3    H149964   6.449   2.216   4.164 -0.4886  0.4418  0.6690
 9491TIP3    H249965   6.427   2.069   4.131  0.8943  0.4651 -0.4061
 9492TIP3   OH249966   6.219   0.604  15.801  0.3953 -0.0465  0.6011
 9492TIP3    H149967   6.216   0.699  15.808 -0.5191  0.1384 -1.4251
 9492TIP3    H249968   6.132   0.575  15.828  0.3919 -0.2216  0.4096
 9493TIP3   OH249969   4.078   4.378   3.223  0.0727 -0.7779  0.3132
 9493TIP3    H149970   4.111   4.291   3.203  0.4434 -0.8644  1.2523
 9493TIP3    H249971   4.073   4.381   3.318 -0.6169 -0.0183  0.2667
 9494TIP3   OH249972   2.593   0.826   2.387 -0.7236 -0.1264  0.2409
 9494TIP3    H149973   2.619   0.745   2.431 -0.8947  1.1357  2.8678
 9494TIP3    H249974   2.517   0.802   2.334  0.2470 -1.9845 -0.4098
 9495TIP3   OH249975   0.685   0.956   4.837  0.6504  0.1469 -0.2023
 9495TIP3    H149976   0.607   0.917   4.878  1.2364 -0.4509  0.3711
 9495TIP3    H249977   0.690   1.044   4.875 -0.2037  0.5011 -0.8676
 9496TIP3   OH249978   3.569   2.170   5.072 -0.0017 -0.3350 -0.0774
 9496TIP3    H149979   3.557   2.109   5.144  0.7839  0.6286  0.8841
 9496TIP3    H249980   3.504   2.143   5.007  0.5537 -2.3860  0.1702
 9497TIP3   OH249981   6.706   5.392   0.858  0.4478 -0.2496  0.4284
 9497TIP3    H149982   6.715   5.314   0.912  1.6670 -0.7336 -0.4321
 9497TIP3    H249983   6.737   5.464   0.914  1.8895 -0.7707  0.3395
 9498TIP3   OH249984   3.702   2.559   0.247 -0.3769  0.4726 -0.2293
 9498TIP3    H149985   3.699   2.593   0.337  0.7548  1.1384 -0.4143
 9498TIP3    H249986   3.777   2.500   0.246 -0.2717  0.6064 -0.7695
 9499TIP3   OH249987   1.987   1.603   3.776 -0.0485 -0.1488 -0.2839
 9499TIP3    H149988   2.014   1.694   3.789 -0.7704 -0.0033  0.2166
 9499TIP3    H249989   1.895   1.608   3.750  0.1664 -0.6881 -1.1794
 9500TIP3   OH249990   4.045   6.554   1.481 -0.0272 -0.5434 -0.3597
 9500TIP3    H149991   4.039   6.563   1.386  0.2565  1.4746 -0.2399
 9500TIP3    H249992   4.113   6.489   1.495  0.5131 -0.2555 -1.5433
 9501TIP3   OH249993   3.940   4.654  12.706  0.1668  0.4404 -0.2312
 9501TIP3    H149994   4.027   4.672  12.670 -0.7541 -0.8800 -3.5269
 9501TIP3    H249995   3.894   4.738  12.701  1.2628  1.2190  1.8196
 9502TIP3   OH249996   5.881   5.667   4.855 -0.1899 -0.4989  0.4634
 9502TIP3    H149997   5.845   5.580   4.840 -0.8222 -0.2677  0.6265
 9502TIP3    H249998   5.962   5.651   4.903  0.2803 -1.0606 -0.4910
 9503TIP3   OH249999   5.190   6.791   4.303 -0.7110  0.0698  0.0338
 9503TIP3    H150000   5.227   6.720   4.251 -0.7635 -0.3478  0.5628
 9503TIP3    H250001   5.257   6.859   4.302 -0.9576  0.3326 -1.0941
 9504TIP3   OH250002   1.751   5.570  14.361 -0.2097 -0.6135 -0.2233
 9504TIP3    H150003   1.660   5.550  14.336 -0.7342 -1.1288  1.8728
 9504TIP3    H250004   1.747   5.660  14.392 -0.5876 -1.3762  2.1313
 9505TIP3   OH250005   1.486   1.220  10.532 -0.3542 -0.2654 -0.0758
 9505TIP3    H150006   1.494   1.312  10.556  1.4524 -0.3135 -0.2959
 9505TIP3    H250007   1.515   1.173  10.610 -3.0014 -0.7600  0.6882
 9506TIP3   OH250008   4.196   6.557   2.280 -0.7219  0.4178 -0.1094
 9506TIP3    H150009   4.276   6.548   2.331 -1.2710  0.4387  0.7820
 9506TIP3    H250010   4.222   6.539   2.190  0.2542  0.3065  0.1886
 9507TIP3   OH250011   3.848   2.620  15.781 -0.1035 -0.1211  1.0811
 9507TIP3    H150012   3.903   2.698  15.786  1.0119 -0.7779 -0.2672
 9507TIP3    H250013   3.836   2.593  15.872  1.8380  0.0318  1.4171
 9508TIP3   OH250014   5.448   4.777   4.555  0.1353 -0.1929  0.3833
 9508TIP3    H150015   5.536   4.813   4.549 -0.0615  0.0829 -1.0619
 9508TIP3    H250016   5.430   4.742   4.468 -0.8309 -1.1102  0.9191
 9509TIP3   OH250017   2.782   2.476  11.983  0.4368 -0.6144 -0.4783
 9509TIP3    H150018   2.723   2.442  12.050  1.5396  0.6646  1.2166
 9509TIP3    H250019   2.805   2.399  11.931 -1.3173 -1.4400 -0.1111
 9510TIP3   OH250020   3.246   2.690  11.830  0.9219 -0.5927  0.2608
 9510TIP3    H150021   3.312   2.622  11.820 -0.1948 -1.5638 -0.8779
 9510TIP3    H250022   3.201   2.693  11.745  0.2530  0.8455  0.6262
 9511TIP3   OH250023   1.595   5.604  16.721 -0.0360  0.6988  0.5975
 9511TIP3    H150024   1.570   5.689  16.756  0.7939  0.5849  1.5184
 9511TIP3    H250025   1.629   5.556  16.797  1.2381  0.2150 -0.2377
 9512TIP3   OH250026   6.577   4.660   1.398  0.0096  0.6776 -0.3769
 9512TIP3    H150027   6.561   4.637   1.489  0.9243 -0.9141 -0.5755
 9512TIP3    H250028   6.505   4.619   1.349 -0.0951  0.9295 -0.4340
 9513TIP3   OH250029   6.317   0.573   0.295 -0.2846 -0.6830 -0.5552
 9513TIP3    H150030   6.295   0.652   0.245  1.1132  0.1865  0.1533
 9513TIP3    H250031   6.331   0.604   0.384 -0.4511 -1.8592 -0.1067
 9514TIP3   OH250032   4.527   3.017   5.359  0.3633  0.2088  0.1549
 9514TIP3    H150033   4.564   3.105   5.369  0.0369  0.5418 -1.3553
 9514TIP3    H250034   4.437   3.025   5.390  0.5981  0.1705  0.8678
 9515TIP3   OH250035   0.631   0.476   3.799  0.0444  0.3011  0.5834
 9515TIP3    H150036   0.550   0.486   3.849 -0.9662 -1.5713 -0.5796
 9515TIP3    H250037   0.610   0.413   3.731  2.0881  0.8838 -0.6846
 9516TIP3   OH250038   6.283   6.255  16.138  0.2265  0.4273 -0.2539
 9516TIP3    H150039   6.210   6.215  16.185  0.2418  0.9217  0.2063
 9516TIP3    H250040   6.333   6.301  16.206  2.1809 -1.6323 -0.2205
 9517TIP3   OH250041   2.822   5.312   0.176 -0.3179  0.3161  0.4539
 9517TIP3    H150042   2.771   5.233   0.191 -1.4090  0.8672 -0.2237
 9517TIP3    H250043   2.809   5.332   0.083  1.7063  0.0985  0.0849
 9518TIP3   OH250044   4.123   5.842  10.274 -0.3467  0.4236  0.3977
 9518TIP3    H150045   4.099   5.749  10.270  4.2200 -1.1506  2.6189
 9518TIP3    H250046   4.170   5.858  10.193  2.0445 -0.4530  1.5173
 9519TIP3   OH250047   0.697   2.998  14.388 -0.7381 -0.3423  0.0957
 9519TIP3    H150048   0.789   3.008  14.414 -0.4976 -0.7217 -0.5894
 9519TIP3    H250049   0.669   3.086  14.364 -1.2203  0.2082  2.3694
 9520TIP3   OH250050   1.997   0.166   3.413  0.0391  0.3324 -0.6530
 9520TIP3    H150051   2.050   0.244   3.431  0.9758 -0.3520 -0.3925
 9520TIP3    H250052   2.019   0.142   3.323  4.3047 -2.9843  0.9711
 9521TIP3   OH250053   6.616   1.380  11.150  0.2775 -0.1832  0.6896
 9521TIP3    H150054   6.666   1.431  11.215  0.0457  1.3367 -0.2691
 9521TIP3    H250055   6.568   1.446  11.100  1.4200 -1.1537 -1.8718
 9522TIP3   OH250056   2.312   0.221  12.961 -0.2120 -0.5371 -0.4243
 9522TIP3    H150057   2.243   0.203  12.897  0.8494 -3.0748 -0.9930
 9522TIP3    H250058   2.388   0.245  12.909 -0.4564  1.8776  0.1849
 9523TIP3   OH250059   0.737   0.449   2.204 -0.3288  0.7526  0.2691
 9523TIP3    H150060   0.688   0.366   2.209  0.2601  0.4909  2.0380
 9523TIP3    H250061   0.690   0.499   2.137 -1.0960 -0.7399 -0.3726
 9524TIP3   OH250062   2.826   4.631   1.523 -0.0916  0.5080 -0.0863
 9524TIP3    H150063   2.829   4.691   1.448 -0.0343 -0.3775 -0.8069
 9524TIP3    H250064   2.918   4.613   1.542 -0.0905  1.0605  0.4875
 9525TIP3   OH250065   0.379   3.010  14.353 -0.6755 -0.1135 -0.7284
 9525TIP3    H150066   0.298   2.977  14.314 -0.9137 -1.0327  0.5007
 9525TIP3    H250067   0.430   2.931  14.374 -1.4173  0.1689  2.6101
 9526TIP3   OH250068   0.477   3.756  14.264  0.1639 -0.1454  0.3915
 9526TIP3    H150069   0.503   3.726  14.177  1.9250  1.1518  0.4190
 9526TIP3    H250070   0.451   3.677  14.311  0.0050 -0.9650 -1.0383
 9527TIP3   OH250071   4.030   5.485  13.438  0.0871  0.0708 -0.7920
 9527TIP3    H150072   4.107   5.512  13.487  0.1430 -0.2505 -0.6960
 9527TIP3    H250073   3.956   5.517  13.490  0.0906 -1.9250  0.5637
 9528TIP3   OH250074   2.059   3.595  13.474 -0.0450 -0.0440  0.2043
 9528TIP3    H150075   1.988   3.590  13.538 -0.1301 -0.6119  0.0745
 9528TIP3    H250076   2.103   3.510  13.481 -0.2100 -0.2110 -0.6645
 9529TIP3   OH250077   6.334   3.546   2.723  0.4260  0.2922 -0.1776
 9529TIP3    H150078   6.323   3.620   2.663  0.1701  1.3388  1.1163
 9529TIP3    H250079   6.299   3.578   2.807  0.1260 -1.3687  0.3600
 9530TIP3   OH250080   6.194   5.080  13.041  0.3140  0.4980  0.6479
 9530TIP3    H150081   6.130   5.061  12.972  0.0324  0.5760  0.8861
 9530TIP3    H250082   6.143   5.079  13.121  0.9731 -1.6820  1.1245
 9531TIP3   OH250083   0.932   2.425   5.792 -0.6377 -0.0247  0.2240
 9531TIP3    H150084   1.004   2.395   5.736 -0.2367  0.8545  0.2536
 9531TIP3    H250085   0.975   2.477   5.861 -1.2715  0.2759  0.4004
 9532TIP3   OH250086   3.465   3.769   4.330 -0.0173 -0.3449 -0.1946
 9532TIP3    H150087   3.397   3.819   4.284 -0.6655  1.0987  2.1386
 9532TIP3    H250088   3.417   3.703   4.379  0.4990 -0.8144 -0.3168
 9533TIP3   OH250089   0.711   1.835   0.026 -0.1981 -0.1602  0.1609
 9533TIP3    H150090   0.752   1.911   0.067 -1.2339  0.2507  0.4590
 9533TIP3    H250091   0.619   1.840   0.052 -0.4778 -0.9750 -0.6170
 9534TIP3   OH250092   5.288   4.110  11.578  0.1492  0.5621  0.2356
 9534TIP3    H150093   5.269   4.200  11.606  0.8523  0.8298 -0.1145
 9534TIP3    H250094   5.383   4.105  11.578  0.1139 -0.2135  0.3209
 9535TIP3   OH250095   0.165   1.263   0.329  0.3024  0.0240  0.1772
 9535TIP3    H150096   0.207   1.335   0.377 -0.0460  0.4323 -0.1155
 9535TIP3    H250097   0.237   1.203   0.308  0.2485 -0.9533  2.5298
 9536TIP3   OH250098   4.450   3.355  12.897 -0.8010 -0.3205  0.6949
 9536TIP3    H150099   4.518   3.289  12.906 -0.0751  0.3040 -0.0739
 9536TIP3    H250100   4.497   3.436  12.876 -1.8255 -0.1795 -1.3420
 9537TIP3   OH250101   2.417   0.065   1.489  0.1193  0.3493 -0.0380
 9537TIP3    H150102   2.332   0.108   1.482  0.2524  0.8235  1.0674
 9537TIP3    H250103   2.453   0.095   1.572  0.3364 -1.6658  0.6584
 9538TIP3   OH250104   3.447   0.776  12.650 -0.1119  0.2787  0.5036
 9538TIP3    H150105   3.449   0.831  12.729  0.2741 -0.5332  1.0786
 9538TIP3    H250106   3.447   0.838  12.577 -0.9110  1.0614  1.1411
 9539TIP3   OH250107   0.731   1.260  14.370 -0.4668  0.1770 -0.2396
 9539TIP3    H150108   0.697   1.343  14.405 -2.2260 -0.6210  0.0661
 9539TIP3    H250109   0.804   1.286  14.314 -1.2834  1.9755 -0.5496
 9540TIP3   OH250110   1.758   4.980  15.631  0.0311 -0.1701 -0.1435
 9540TIP3    H150111   1.842   5.011  15.597  0.0463 -0.1373 -0.0776
 9540TIP3    H250112   1.728   4.915  15.568  1.1057 -1.7169  0.8553
 9541TIP3   OH250113   1.969   0.464   1.645 -0.4332 -0.0108 -0.2394
 9541TIP3    H150114   1.946   0.414   1.724 -0.4922 -0.3826 -0.4877
 9541TIP3    H250115   1.884   0.494   1.611 -0.4363 -0.1283 -0.3383
 9542TIP3   OH250116   2.265   6.870   4.386 -0.4099 -0.2685  0.0293
 9542TIP3    H150117   2.319   6.926   4.442  0.2887  1.7146 -2.3869
 9542TIP3    H250118   2.328   6.810   4.346 -0.5134 -0.1745 -0.2801
 9543TIP3   OH250119   5.994   4.508  15.689 -0.2914  0.7840 -0.0053
 9543TIP3    H150120   6.084   4.496  15.659 -0.6314 -1.4862 -0.3088
 9543TIP3    H250121   5.959   4.578  15.634  1.3132  1.8465  0.2538
 9544TIP3   OH250122   4.887   6.311   4.126  0.0878  0.3322 -0.2061
 9544TIP3    H150123   4.938   6.233   4.149 -0.2323 -0.2690 -1.4594
 9544TIP3    H250124   4.935   6.384   4.166  0.6372 -0.4557  0.6086
 9545TIP3   OH250125   0.011   6.167   4.095 -0.4949 -0.4771  0.1871
 9545TIP3    H150126  -0.002   6.256   4.062  0.4528  0.3121  1.7815
 9545TIP3    H250127   0.106   6.155   4.091 -0.6455 -1.5479 -0.3064
 9546TIP3   OH250128   5.460   4.208   5.561  0.2560 -0.5770 -0.0956
 9546TIP3    H150129   5.394   4.146   5.531  1.3399 -1.4135 -0.8485
 9546TIP3    H250130   5.492   4.249   5.481  0.3478  0.1273  0.2986
 9547TIP3   OH250131   5.786   6.482  13.046 -0.8502 -0.2023 -0.1070
 9547TIP3    H150132   5.797   6.506  13.138 -1.8115  0.5232 -0.1578
 9547TIP3    H250133   5.832   6.399  13.037 -0.4531 -0.1143  0.9493
 9548TIP3   OH250134   1.713   1.350  16.532 -0.0745  0.4423 -0.2245
 9548TIP3    H150135   1.652   1.286  16.497  0.5329 -0.7496  0.8179
 9548TIP3    H250136   1.773   1.368  16.460 -0.4033  0.0336 -0.6023
 9549TIP3   OH250137   0.217   0.825  14.292 -0.7221 -0.0045 -0.0236
 9549TIP3    H150138   0.206   0.861  14.203 -0.4519 -3.4095 -1.5785
 9549TIP3    H250139   0.128   0.808  14.322 -0.7502 -1.2661 -0.7728
 9550TIP3   OH250140   6.133   0.910   3.784  0.4577 -0.0474  0.3181
 9550TIP3    H150141   6.170   0.998   3.796  1.6014 -0.4775  0.0721
 9550TIP3    H250142   6.040   0.921   3.802  0.8098  0.9274  1.7237
 9551TIP3   OH250143   0.645   5.756   2.062  0.5861  0.7284 -0.2593
 9551TIP3    H150144   0.563   5.782   2.104  0.1936 -1.9096  0.8281
 9551TIP3    H250145   0.714   5.795   2.117  0.0496  0.1084  0.8852
 9552TIP3   OH250146   5.966   5.931   5.045  0.3230 -0.6071  0.4623
 9552TIP3    H150147   5.998   5.975   4.966  1.8427  0.5569  1.6494
 9552TIP3    H250148   6.042   5.882   5.078 -0.2981 -1.1106  1.1751
 9553TIP3   OH250149   6.810   3.293  16.138 -0.0856  0.1944  0.0159
 9553TIP3    H150150   6.724   3.273  16.174 -0.6954 -1.3379 -2.1026
 9553TIP3    H250151   6.794   3.365  16.077  0.0972 -0.1835 -0.4840
 9554TIP3   OH250152   1.259   0.581  15.008  0.1305  0.1628  0.3036
 9554TIP3    H150153   1.323   0.512  14.992 -0.3183 -0.1351 -0.2421
 9554TIP3    H250154   1.255   0.588  15.104 -0.2006 -0.9312  0.3834
 9555TIP3   OH250155   4.309   5.981   5.605  0.5822  0.0305  0.1355
 9555TIP3    H150156   4.370   5.950   5.672  0.8772  2.2280  0.9886
 9555TIP3    H250157   4.338   6.070   5.586  0.8816 -0.6824 -3.4330
 9556TIP3   OH250158   3.365   1.213  11.269 -0.0193  1.0943  0.4248
 9556TIP3    H150159   3.371   1.194  11.363 -0.7530  0.6275  0.3919
 9556TIP3    H250160   3.420   1.146  11.228 -0.9484  0.2977  0.4374
 9557TIP3   OH250161   0.242   1.225  15.742  0.2027 -0.5379 -0.0193
 9557TIP3    H150162   0.155   1.238  15.703  0.5060 -0.0003 -0.5224
 9557TIP3    H250163   0.235   1.141  15.787 -0.5941 -0.4837 -0.0200
 9558TIP3   OH250164   1.811   3.042  12.200  0.8703 -0.1310  0.4922
 9558TIP3    H150165   1.884   2.997  12.242  0.2852 -1.2252  0.3842
 9558TIP3    H250166   1.820   3.133  12.227  2.2807 -0.2421  0.4506
 9559TIP3   OH250167   6.351   2.135  11.588 -0.1590  1.0900 -0.4188
 9559TIP3    H150168   6.418   2.080  11.549 -0.8158  0.2215 -0.3394
 9559TIP3    H250169   6.319   2.189  11.516  1.0665  1.9866 -0.3233
 9560TIP3   OH250170   2.642   0.948  15.823 -0.3448  0.2148 -0.0446
 9560TIP3    H150171   2.704   0.947  15.750 -0.3340 -1.4973 -0.0576
 9560TIP3    H250172   2.570   0.892  15.794 -0.3179 -0.5327  1.2486
 9561TIP3   OH250173   4.695   3.657   2.624 -0.4164 -0.2850 -0.5713
 9561TIP3    H150174   4.711   3.575   2.670 -0.3680 -1.0506 -1.8910
 9561TIP3    H250175   4.606   3.648   2.589 -1.0236  0.9030  0.5927
 9562TIP3   OH250176   1.486   0.055  16.842  0.2813  0.1859 -0.1973
 9562TIP3    H150177   1.460   0.061  16.750  0.6549 -1.1759 -0.4234
 9562TIP3    H250178   1.515   0.143  16.866  1.4810  0.2637 -1.7949
 9563TIP3   OH250179   2.992   2.623   5.063  0.1396 -0.0435  0.3539
 9563TIP3    H150180   2.927   2.668   5.118  0.7976 -0.9411  1.9345
 9563TIP3    H250181   3.045   2.694   5.026 -0.6345  0.6079  0.4569
 9564TIP3   OH250182   0.253   0.502  10.410  0.2436 -0.3724 -0.1684
 9564TIP3    H150183   0.340   0.542  10.401 -0.3248  0.9413 -0.1142
 9564TIP3    H250184   0.236   0.503  10.504 -0.6404  1.2673 -0.3076
 9565TIP3   OH250185   1.858   0.023  14.100  0.3111  0.7850 -0.0875
 9565TIP3    H150186   1.947   0.056  14.089 -0.2590  2.4078 -0.1360
 9565TIP3    H250187   1.823   0.019  14.011  0.6928 -1.0229 -0.1943
 9566TIP3   OH250188   2.450   2.676   6.185  0.0431  0.1671  0.3317
 9566TIP3    H150189   2.482   2.764   6.166 -0.4031 -0.1937 -2.6620
 9566TIP3    H250190   2.529   2.621   6.182  0.0295  0.1703 -0.1405
 9567TIP3   OH250191   4.999   2.630  11.773 -0.0101  0.1242  0.0639
 9567TIP3    H150192   5.057   2.621  11.848 -0.0823  0.7630  0.2000
 9567TIP3    H250193   4.921   2.674  11.808 -0.2124  0.0603 -0.3010
 9568TIP3   OH250194   2.203   6.595   3.640 -0.1987  0.6648 -0.1892
 9568TIP3    H150195   2.211   6.677   3.590 -1.4382  0.7396 -0.2911
 9568TIP3    H250196   2.115   6.598   3.678 -0.6091 -1.0283 -0.9196
 9569TIP3   OH250197   5.797   3.575  15.584  0.4138  0.2518 -0.1974
 9569TIP3    H150198   5.861   3.592  15.514 -0.7208 -1.7653 -1.8685
 9569TIP3    H250199   5.734   3.647  15.577  0.7911  0.5453 -0.6616
 9570TIP3   OH250200   0.391   4.427  14.576  0.2586 -0.0767  0.4217
 9570TIP3    H150201   0.412   4.382  14.658  1.0537 -0.4884  0.0002
 9570TIP3    H250202   0.430   4.514  14.585  0.9670 -0.3651  0.2018
 9571TIP3   OH250203   4.828   5.673  16.477  0.0992  0.0465 -0.1554
 9571TIP3    H150204   4.865   5.760  16.463 -2.0584  1.0828  0.1241
 9571TIP3    H250205   4.746   5.673  16.428  0.9607 -2.5902 -1.7997
 9572TIP3   OH250206   3.844   2.177   5.262  0.1237  0.4371  0.3949
 9572TIP3    H150207   3.762   2.226   5.273 -0.0176  1.5361 -3.7191
 9572TIP3    H250208   3.827   2.092   5.305 -1.9023  1.7516  2.4371
 9573TIP3   OH250209   6.584   5.622  16.205 -0.1167 -0.0445 -0.2820
 9573TIP3    H150210   6.512   5.562  16.225  0.2751 -1.1189 -1.9071
 9573TIP3    H250211   6.655   5.596  16.264 -0.4770 -0.1313  0.1150
 9574TIP3   OH250212   2.226   2.542  12.277  0.1413  0.1408 -0.4190
 9574TIP3    H150213   2.257   2.605  12.212  1.3094  0.8714  0.7896
 9574TIP3    H250214   2.131   2.549  12.275  0.2505  2.4257  0.1142
 9575TIP3   OH250215   1.294   6.314   2.928 -0.6695 -0.1445  0.4164
 9575TIP3    H150216   1.296   6.392   2.984  1.0636  0.9692 -1.0615
 9575TIP3    H250217   1.269   6.348   2.842 -1.1680 -1.4565  0.0214
 9576TIP3   OH250218   0.525   6.271   3.259 -0.1389  0.2398  0.2104
 9576TIP3    H150219   0.563   6.358   3.268  2.6795 -0.8798  0.1006
 9576TIP3    H250220   0.443   6.275   3.309  0.5342  2.5782  1.2389
 9577TIP3   OH250221   0.769   1.289  11.889  0.1043 -0.0690 -0.4356
 9577TIP3    H150222   0.840   1.327  11.837  0.3499  0.2248  0.1157
 9577TIP3    H250223   0.707   1.257  11.823 -0.3123  1.6408 -0.9343
 9578TIP3   OH250224   2.136   2.023  13.601  0.0024 -0.1986  0.2418
 9578TIP3    H150225   2.049   1.991  13.580  0.0760 -1.2920  1.4509
 9578TIP3    H250226   2.126   2.066  13.686  0.4677  0.5168 -0.0554
 9579TIP3   OH250227   4.920   2.987   2.436 -0.7208 -0.3757 -0.2412
 9579TIP3    H150228   4.877   3.011   2.354  1.1831  0.5498 -1.0500
 9579TIP3    H250229   4.919   2.891   2.436 -1.2260 -0.3868 -1.0750
 9580TIP3   OH250230   0.502   6.802  10.827 -0.5663 -0.2404 -0.1531
 9580TIP3    H150231   0.451   6.738  10.778  0.9656 -0.1914 -1.9582
 9580TIP3    H250232   0.589   6.797  10.789 -0.2059  2.4096  0.1090
 9581TIP3   OH250233   4.344   2.434   6.440  0.2946  0.3199 -0.2783
 9581TIP3    H150234   4.306   2.356   6.400  0.4489  1.7000 -3.3875
 9581TIP3    H250235   4.401   2.471   6.372  1.1930  2.4748  1.5224
 9582TIP3   OH250236   0.924   2.529   3.441 -0.0970  0.5152 -0.3844
 9582TIP3    H150237   0.876   2.448   3.427 -0.9324  0.6457  1.4550
 9582TIP3    H250238   0.862   2.598   3.421  0.5143  0.7506 -1.6207
 9583TIP3   OH250239   5.186   5.179   1.564 -0.3185 -0.2311  0.5586
 9583TIP3    H150240   5.094   5.203   1.558 -0.1456  1.3764  2.9166
 9583TIP3    H250241   5.228   5.227   1.492 -1.1474  0.1534  0.3207
 9584TIP3   OH250242   6.761   2.202   1.400 -0.4221  0.4566  0.0930
 9584TIP3    H150243   6.795   2.115   1.418  1.8341  0.8370 -1.7923
 9584TIP3    H250244   6.680   2.187   1.352 -0.5858 -0.5670  0.6587
 9585TIP3   OH250245   4.339   5.178   1.529 -0.2087 -0.3270 -0.3611
 9585TIP3    H150246   4.300   5.262   1.553  0.9501 -0.5600  2.8505
 9585TIP3    H250247   4.266   5.117   1.531 -1.0153  0.4764 -2.4623
 9586TIP3   OH250248   6.025   3.719  13.538 -0.1341 -0.3571  0.0246
 9586TIP3    H150249   6.078   3.643  13.562 -1.4402 -1.3760 -0.2005
 9586TIP3    H250250   5.998   3.756  13.622  2.7790  1.6261  0.2491
 9587TIP3   OH250251   2.271   2.699   3.931 -0.0387  0.3390 -0.4131
 9587TIP3    H150252   2.211   2.709   3.857 -1.4288  0.2950  0.6925
 9587TIP3    H250253   2.324   2.779   3.930  0.9601 -0.2711 -2.2883
 9588TIP3   OH250254   0.516   1.990   2.320  0.3430  0.0195  0.3977
 9588TIP3    H150255   0.611   1.993   2.327  0.2763  1.8090  1.0349
 9588TIP3    H250256   0.499   1.953   2.234  1.5759 -1.5438  0.7832
 9589TIP3   OH250257   6.641   4.613   4.403 -0.3652  0.5153 -0.1639
 9589TIP3    H150258   6.583   4.606   4.478  0.9046  0.4608  0.8531
 9589TIP3    H250259   6.587   4.650   4.333 -1.6964  0.1123  0.6196
 9590TIP3   OH250260   1.347   4.378   1.761  0.2873  0.1062 -0.3357
 9590TIP3    H150261   1.408   4.321   1.808  2.1794  1.7140 -0.6740
 9590TIP3    H250262   1.312   4.323   1.691 -0.0498 -1.3764  0.9392
 9591TIP3   OH250263   0.368   6.058   2.790 -0.3901 -0.0207  0.4044
 9591TIP3    H150264   0.414   6.074   2.872  0.2028 -2.7489  0.6913
 9591TIP3    H250265   0.282   6.027   2.816 -0.4712 -0.1674 -0.0273
 9592TIP3   OH250266   6.484   1.969   4.848  0.4459  0.2538 -0.7064
 9592TIP3    H150267   6.559   1.918   4.879 -1.0859 -2.8944 -1.8293
 9592TIP3    H250268   6.523   2.039   4.796  2.6297 -0.4144 -0.0913
 9593TIP3   OH250269   5.345   5.805   3.521 -0.3436  1.0398 -0.5120
 9593TIP3    H150270   5.420   5.864   3.525  1.3058 -0.9758  2.6741
 9593TIP3    H250271   5.382   5.721   3.494 -1.2623 -0.1070  1.5586
 9594TIP3   OH250272   2.731   6.113  13.472  0.6548  0.1729 -0.5608
 9594TIP3    H150273   2.816   6.072  13.488  1.4321  2.2985  1.3999
 9594TIP3    H250274   2.677   6.085  13.546 -0.0437 -0.3017 -1.2307
 9595TIP3   OH250275   5.533   5.616  16.300  0.3352 -0.4230  0.2628
 9595TIP3    H150276   5.628   5.627  16.292  0.5805 -1.8625  0.9549
 9595TIP3    H250277   5.503   5.605  16.210  0.4436  2.5165 -0.2322
 9596TIP3   OH250278   2.253   3.692   3.993 -0.4486  0.1577 -0.1574
 9596TIP3    H150279   2.234   3.725   4.080  2.3496  1.4677  0.0438
 9596TIP3    H250280   2.286   3.767   3.945 -0.0674 -0.9632 -1.7504
 9597TIP3   OH250281   2.465   6.767  15.446 -0.7323  0.3824  0.0975
 9597TIP3    H150282   2.543   6.771  15.391 -1.1387  0.1084 -0.5198
 9597TIP3    H250283   2.435   6.676  15.437  0.5253 -0.3845  2.6774
 9598TIP3   OH250284   1.825   5.874  11.775  0.2465 -0.1656  0.2379
 9598TIP3    H150285   1.787   5.947  11.727 -0.2502  0.6523  1.8109
 9598TIP3    H250286   1.789   5.796  11.732 -0.3674  0.5375 -0.5579
 9599TIP3   OH250287   1.823   2.950  15.028 -0.0854 -0.5572  0.3360
 9599TIP3    H150288   1.764   3.009  14.981 -0.4977 -2.9243 -2.3162
 9599TIP3    H250289   1.764   2.891  15.076  0.1907 -1.3385 -0.2819
 9600TIP3   OH250290   1.236   4.152  16.814  0.2739 -0.4403 -0.3883
 9600TIP3    H150291   1.149   4.191  16.818  1.0835  1.5355 -0.7069
 9600TIP3    H250292   1.268   4.155  16.904  0.0695 -1.0505 -0.2919
 9601TIP3   OH250293   1.949   5.078  12.783  0.1620  0.3517  0.4026
 9601TIP3    H150294   1.900   4.996  12.789  0.2170  0.3755  1.1927
 9601TIP3    H250295   1.892   5.144  12.822  0.3309  0.5997  0.2334
 9602TIP3   OH250296   3.205   5.394   2.320 -0.5622 -0.3951  0.3173
 9602TIP3    H150297   3.132   5.346   2.359  1.1050 -1.8966  1.7696
 9602TIP3    H250298   3.282   5.339   2.337  0.8759  0.9084 -1.5175
 9603TIP3   OH250299   5.388   5.725  14.765 -0.4157 -0.5005 -0.3543
 9603TIP3    H150300   5.306   5.676  14.757 -1.3110  0.9748 -0.5716
 9603TIP3    H250301   5.408   5.722  14.858 -1.7616  0.7142  0.0143
 9604TIP3   OH250302   3.203   5.188  15.246 -0.4218  0.4842 -0.0668
 9604TIP3    H150303   3.160   5.143  15.319 -0.9545  0.2005 -0.5453
 9604TIP3    H250304   3.293   5.156  15.246 -0.3425  0.7010  0.6418
 9605TIP3   OH250305   2.066   2.679   1.977  0.8191  0.0465 -0.1675
 9605TIP3    H150306   2.056   2.726   1.894 -0.9257 -0.6634 -0.4040
 9605TIP3    H250307   2.029   2.593   1.961 -1.4140  0.4986  1.8421
 9606TIP3   OH250308   5.468   2.686  16.166 -0.4656 -0.2016  0.3008
 9606TIP3    H150309   5.410   2.677  16.090 -0.3134 -0.0489  0.1672
 9606TIP3    H250310   5.553   2.656  16.134  0.1972  2.1918 -0.3234
 9607TIP3   OH250311   2.729   1.673  16.460  0.7185  0.0595  0.3594
 9607TIP3    H150312   2.642   1.678  16.499  0.3875 -1.2461 -0.1719
 9607TIP3    H250313   2.765   1.761  16.471 -1.0368  0.9116 -0.2584
 9608TIP3   OH250314   6.758   1.884  13.247 -0.1313  0.3032  0.1304
 9608TIP3    H150315   6.822   1.813  13.255  0.8352  0.9797 -1.2200
 9608TIP3    H250316   6.704   1.859  13.171  0.0963  0.9226 -0.2357
 9609TIP3   OH250317   2.651   4.015   3.839 -0.1219 -0.3655 -0.1452
 9609TIP3    H150318   2.587   4.082   3.816 -0.3455 -0.6150 -0.2449
 9609TIP3    H250319   2.728   4.036   3.787  1.5670  2.6282  3.1018
 9610TIP3   OH250320   4.304   3.336  16.303 -0.2405  0.1693 -0.3372
 9610TIP3    H150321   4.232   3.294  16.349  2.2899 -4.0638  0.3754
 9610TIP3    H250322   4.370   3.351  16.370  0.3134  2.1344 -1.2589
 9611TIP3   OH250323   6.074   4.767   2.738 -0.2407 -0.4444  0.3791
 9611TIP3    H150324   6.049   4.856   2.763 -0.4291 -0.4349  0.1668
 9611TIP3    H250325   6.062   4.765   2.643  1.2962 -0.2137  0.1586
 9612TIP3   OH250326   3.761   6.007  12.298 -0.0828 -0.0717 -0.1303
 9612TIP3    H150327   3.726   6.062  12.368 -1.5120 -1.3610  0.2131
 9612TIP3    H250328   3.781   6.068  12.227 -0.7676  0.9894  0.5736
 9613TIP3   OH250329   4.029   3.204   2.928  0.0035 -0.6136 -0.0463
 9613TIP3    H150330   3.994   3.140   2.990  1.4124 -0.2317  1.2152
 9613TIP3    H250331   3.968   3.204   2.855 -0.8292 -2.2857  0.6191
 9614TIP3   OH250332   4.959   2.726  15.714  0.1891 -0.0338  0.3557
 9614TIP3    H150333   4.986   2.694  15.627  0.0743 -0.5829  0.5202
 9614TIP3    H250334   5.027   2.790  15.737 -0.2028  0.7261 -0.4800
 9615TIP3   OH250335   1.163   6.335   0.188 -0.2563  0.9550 -0.3326
 9615TIP3    H150336   1.108   6.304   0.116 -3.0042  2.1919  1.0369
 9615TIP3    H250337   1.147   6.430   0.190 -1.6244  0.7935  2.7752
 9616TIP3   OH250338   2.233   4.899  13.938 -0.4512  0.6560  0.1107
 9616TIP3    H150339   2.292   4.890  13.864 -0.5420  2.7430 -0.2713
 9616TIP3    H250340   2.290   4.922  14.012 -0.4764 -0.3603  0.4579
 9617TIP3   OH250341   2.427   2.085  11.345  0.4959  0.0092  0.6532
 9617TIP3    H150342   2.411   2.109  11.254  1.5565  0.0355  0.4604
 9617TIP3    H250343   2.395   2.160  11.395 -4.2935 -1.6992  0.7024
 9618TIP3   OH250344   4.437   0.915  15.468  0.0555  0.3792  0.5064
 9618TIP3    H150345   4.409   1.006  15.476  0.2335  0.5434 -0.5235
 9618TIP3    H250346   4.519   0.909  15.517 -0.0096  0.7512  0.6568
 9619TIP3   OH250347   0.429   2.432  16.151 -0.4583 -0.3787 -0.5045
 9619TIP3    H150348   0.452   2.346  16.117 -0.3297 -0.4549 -0.2328
 9619TIP3    H250349   0.447   2.425  16.245 -2.1548 -0.6406 -0.1630
 9620TIP3   OH250350   3.529   4.386   4.753  0.2957  0.0122  0.1754
 9620TIP3    H150351   3.590   4.374   4.826  1.4920  0.1822 -0.7678
 9620TIP3    H250352   3.518   4.299   4.716  0.1974  0.0345  0.1503
 9621TIP3   OH250353   6.636   6.334   0.317 -0.5228 -0.2303 -0.3723
 9621TIP3    H150354   6.570   6.403   0.319  0.6119  0.9370 -1.3469
 9621TIP3    H250355   6.634   6.301   0.227  2.0389  1.7562 -1.2939
 9622TIP3   OH250356   3.679   3.949   5.110 -0.4463 -0.3348 -0.2135
 9622TIP3    H150357   3.626   3.936   5.189 -1.6073  0.8925 -0.7468
 9622TIP3    H250358   3.675   4.043   5.093  3.1957  0.0971  0.5333
 9623TIP3   OH250359   5.884   0.434   4.522  0.4525 -0.1592 -0.2981
 9623TIP3    H150360   5.823   0.388   4.580  0.4319 -0.4602 -0.5579
 9623TIP3    H250361   5.834   0.508   4.489  0.3810 -0.1329 -0.1349
 9624TIP3   OH250362   1.766   1.022  11.890 -0.0057 -0.1186 -0.4801
 9624TIP3    H150363   1.840   0.963  11.875 -1.0760 -1.5773 -0.2434
 9624TIP3    H250364   1.730   1.036  11.803 -0.0519 -0.2367 -0.4812
 9625TIP3   OH250365   4.756   0.305   6.374 -0.4804  0.9796 -0.6129
 9625TIP3    H150366   4.685   0.300   6.437  0.0272  2.5332  0.1330
 9625TIP3    H250367   4.751   0.393   6.338 -0.1402  0.4516 -2.0344
 9626TIP3   OH250368   5.100   0.721  16.211 -0.4354 -0.4014  0.1492
 9626TIP3    H150369   5.188   0.691  16.231 -0.4674 -0.8298 -0.3492
 9626TIP3    H250370   5.045   0.683  16.280 -0.4501 -1.3653 -0.3722
 9627TIP3   OH250371   0.742   1.679   0.457 -0.0284 -0.3169  0.1671
 9627TIP3    H150372   0.651   1.671   0.429  0.3824  1.5758 -1.9462
 9627TIP3    H250373   0.786   1.721   0.384  2.7434 -1.8294  0.8528
 9628TIP3   OH250374   6.571   5.150  11.463 -0.1858  0.8477 -0.0523
 9628TIP3    H150375   6.555   5.087  11.534  3.8412 -0.4214  0.0174
 9628TIP3    H250376   6.535   5.233  11.495 -0.2100 -0.1108  2.6344
 9629TIP3   OH250377   4.947   0.831   4.491  0.2252 -0.3662 -0.2376
 9629TIP3    H150378   4.960   0.737   4.478 -0.9738 -0.4628 -0.8371
 9629TIP3    H250379   4.984   0.870   4.411  1.9072 -0.1965  0.5702
 9630TIP3   OH250380   3.550   2.138   3.138  0.2825  0.1523 -0.2754
 9630TIP3    H150381   3.455   2.124   3.136  0.0573  1.3886  0.8694
 9630TIP3    H250382   3.581   2.100   3.056 -1.0964 -0.9494 -0.3290
 9631TIP3   OH250383   4.979   4.608  16.032 -0.4361  0.4419  0.3150
 9631TIP3    H150384   5.054   4.654  16.070 -0.2387 -0.1336  0.6417
 9631TIP3    H250385   5.000   4.515  16.043 -0.0957  0.2219 -1.7223
 9632TIP3   OH250386   1.213   0.538   3.910 -0.7513  0.2806  0.0829
 9632TIP3    H150387   1.257   0.515   3.992  0.6959 -0.0764 -0.7542
 9632TIP3    H250388   1.167   0.458   3.884  0.4111 -0.2464 -0.4293
 9633TIP3   OH250389   4.074   2.205   3.307 -0.1918 -0.0212 -0.1530
 9633TIP3    H150390   4.134   2.280   3.301  1.2534 -1.1288 -0.0205
 9633TIP3    H250391   4.046   2.205   3.399 -0.7224  0.7122 -0.2987
 9634TIP3   OH250392   3.893   3.255  12.680 -0.3222 -0.1505 -0.0235
 9634TIP3    H150393   3.981   3.268  12.718 -0.8298  1.0251  0.8030
 9634TIP3    H250394   3.872   3.338  12.639 -0.4282 -0.9355 -1.6104
 9635TIP3   OH250395   1.499   2.390  17.005  0.1739 -0.5313  0.3427
 9635TIP3    H150396   1.536   2.473  16.975  2.5179 -0.8579  2.0175
 9635TIP3    H250397   1.436   2.366  16.937  3.1633  0.0188 -2.9305
 9636TIP3   OH250398   0.142   3.852  14.572 -0.5053  0.1555  0.4519
 9636TIP3    H150399   0.072   3.788  14.566 -1.4258  1.0785  0.9864
 9636TIP3    H250400   0.187   3.848  14.488  0.7200 -2.5573  1.1199
 9637TIP3   OH250401   3.805   0.802  15.999  0.2123  0.4718  0.1381
 9637TIP3    H150402   3.856   0.883  16.008  1.1061  0.3521 -2.8432
 9637TIP3    H250403   3.853   0.737  16.051  0.4249  1.4328  1.1803
 9638TIP3   OH250404   0.455   1.204  16.104  0.1755  0.4185  0.0987
 9638TIP3    H150405   0.532   1.241  16.061  0.5959 -1.0466 -0.4984
 9638TIP3    H250406   0.388   1.203  16.035 -0.4777  1.9131  0.6854
 9639TIP3   OH250407   0.216   5.508   1.558  0.4146  0.0265  0.8746
 9639TIP3    H150408   0.181   5.454   1.628  0.4636  0.2407  1.0632
 9639TIP3    H250409   0.285   5.454   1.518 -2.9882 -2.3436 -2.4451
 9640TIP3   OH250410   3.982   3.850   5.210  0.0849  0.0069 -0.2784
 9640TIP3    H150411   3.910   3.868   5.149 -1.6658  0.6876  1.8446
 9640TIP3    H250412   4.014   3.936   5.236 -1.8464 -0.0262  2.6304
 9641TIP3   OH250413   2.938   4.833   5.122 -0.2734  0.3151 -0.1727
 9641TIP3    H150414   2.925   4.780   5.044  1.5227 -0.7643  0.2044
 9641TIP3    H250415   2.985   4.776   5.183 -0.7601  1.4480  1.3278
 9642TIP3   OH250416   1.859   2.384   5.934 -0.1075 -0.1770 -0.1551
 9642TIP3    H150417   1.860   2.465   5.882  3.3236  0.2769  0.3802
 9642TIP3    H250418   1.874   2.315   5.869 -0.2032 -0.0715 -0.2920
 9643TIP3   OH250419   6.196   0.874   4.433 -0.3061  0.3980  0.4715
 9643TIP3    H150420   6.154   0.793   4.403  0.9375  0.0417 -0.4464
 9643TIP3    H250421   6.125   0.928   4.466 -1.2575 -0.7910  0.4345
 9644TIP3   OH250422   5.639   2.329  10.079 -0.0148  0.0753 -0.0446
 9644TIP3    H150423   5.562   2.275  10.063 -0.0553  0.3898 -0.9853
 9644TIP3    H250424   5.649   2.329  10.174 -1.4814  0.4651  0.1250
 9645TIP3   OH250425   6.374   1.785  16.607  0.0607  0.0120 -0.2342
 9645TIP3    H150426   6.438   1.715  16.618 -0.9190 -0.9672 -0.5406
 9645TIP3    H250427   6.304   1.763  16.668  0.3740  1.5307  0.7212
 9646TIP3   OH250428   6.366   0.139  13.795  0.1827 -0.0185  0.0003
 9646TIP3    H150429   6.295   0.188  13.838 -0.7266  1.1144 -2.5461
 9646TIP3    H250430   6.418   0.207  13.752  0.2301 -1.0973 -1.7494
 9647TIP3   OH250431   0.319   0.701   6.369 -0.2217  0.3053  0.0638
 9647TIP3    H150432   0.394   0.751   6.336  1.2934 -2.2188 -0.6150
 9647TIP3    H250433   0.277   0.666   6.290 -0.3422 -0.6841  0.5457
 9648TIP3   OH250434   3.713   0.790   1.750 -0.2939 -0.7564 -0.5320
 9648TIP3    H150435   3.676   0.718   1.800 -0.7643  0.6491  1.2617
 9648TIP3    H250436   3.808   0.781   1.760 -0.2372 -2.3049 -2.1206
 9649TIP3   OH250437   0.281   4.999  10.902  0.3371  0.3981 -0.5840
 9649TIP3    H150438   0.213   5.062  10.881  0.0574 -0.1521 -1.3790
 9649TIP3    H250439   0.350   5.050  10.945  0.1188  1.2326 -1.2195
 9650TIP3   OH250440   2.156   2.662   2.233 -0.2087  0.0423 -0.7078
 9650TIP3    H150441   2.126   2.667   2.142  0.5600  0.6548 -0.9387
 9650TIP3    H250442   2.242   2.621   2.228 -0.6763 -1.0689 -0.1155
 9651TIP3   OH250443   4.362   3.974  16.969 -0.3441 -0.0069  0.0345
 9651TIP3    H150444   4.322   4.060  16.960 -2.5928 -0.8085  1.6689
 9651TIP3    H250445   4.289   3.913  16.966  1.2830 -2.0525 -2.3697
 9652TIP3   OH250446   3.711   2.932  16.951 -0.3881 -0.5009 -0.2421
 9652TIP3    H150447   3.638   2.980  16.990 -0.2759 -1.3232  1.0225
 9652TIP3    H250448   3.740   2.988  16.879 -0.9509  0.8167  0.5149
 9653TIP3   OH250449   4.161   1.804   0.067 -0.0584 -0.3106 -0.7793
 9653TIP3    H150450   4.221   1.731   0.080  2.0652  1.2837 -1.0293
 9653TIP3    H250451   4.103   1.801   0.143  1.1000 -1.2405  0.1207
 9654TIP3   OH250452   6.326   3.046  12.461 -0.1199  0.0818  0.9822
 9654TIP3    H150453   6.239   3.067  12.427 -0.4590  1.4361  2.5198
 9654TIP3    H250454   6.316   2.963  12.506 -0.4685 -0.0513  0.6574
 9655TIP3   OH250455   2.976   5.793  13.808 -0.1393 -1.0115  0.1759
 9655TIP3    H150456   2.973   5.862  13.742 -1.7029  0.4970  1.7493
 9655TIP3    H250457   2.936   5.717  13.764 -3.1660  0.5473 -0.0578
 9656TIP3   OH250458   4.718   2.633   2.902  0.7900 -0.4936 -0.3560
 9656TIP3    H150459   4.800   2.634   2.852  1.2740 -2.2229  0.3336
 9656TIP3    H250460   4.746   2.638   2.993  0.0658 -0.3262 -0.1369
 9657TIP3   OH250461   6.069   2.615  14.913 -0.7476  0.4195 -0.3701
 9657TIP3    H150462   6.072   2.697  14.864 -1.1371  0.6303 -0.0405
 9657TIP3    H250463   5.997   2.565  14.874 -0.8578  0.4577 -0.2153
 9658TIP3   OH250464   2.387   3.043   4.682  0.7593 -0.2172 -0.0892
 9658TIP3    H150465   2.354   3.131   4.700 -1.4853 -1.3122  1.7037
 9658TIP3    H250466   2.310   2.993   4.655  0.9926 -2.6256  3.0945
 9659TIP3   OH250467   1.397   3.830   3.507 -0.2226 -0.2742 -0.1402
 9659TIP3    H150468   1.465   3.873   3.456 -0.9975  0.1379 -0.8457
 9659TIP3    H250469   1.339   3.900   3.535  0.3301 -0.4594  1.5639
 9660TIP3   OH250470   0.316   5.844   1.024 -0.0562 -0.2479 -0.0985
 9660TIP3    H150471   0.222   5.858   1.010  0.1492  0.3314 -0.9419
 9660TIP3    H250472   0.342   5.914   1.083  0.0669  0.2554 -0.7473
 9661TIP3   OH250473   5.696   2.656   5.427  0.3498  1.0085  0.1283
 9661TIP3    H150474   5.607   2.670   5.397 -0.1399 -0.5437  0.7686
 9661TIP3    H250475   5.751   2.698   5.361 -0.8275  1.8536 -0.3481
 9662TIP3   OH250476   4.266   0.702   0.876  0.2437 -0.1395 -0.4622
 9662TIP3    H150477   4.201   0.765   0.844  0.2415 -0.9072 -2.0735
 9662TIP3    H250478   4.216   0.622   0.891  0.6018 -0.3603 -0.4472
 9663TIP3   OH250479   5.063   2.557   3.193  0.0025 -0.5974 -0.1794
 9663TIP3    H150480   4.995   2.489   3.186 -0.2000 -0.3388 -0.7831
 9663TIP3    H250481   5.139   2.511   3.230 -1.2535 -0.3537  2.9960
 9664TIP3   OH250482   0.385   2.782   2.647  0.2674 -0.3613  0.2397
 9664TIP3    H150483   0.369   2.700   2.600 -1.7442  0.2741 -0.2640
 9664TIP3    H250484   0.480   2.795   2.640  0.8036 -3.0842  1.1357
 9665TIP3   OH250485   0.897   6.770   3.516 -0.1097 -0.2480  0.0279
 9665TIP3    H150486   0.973   6.761   3.457 -0.7545 -2.2428 -0.5936
 9665TIP3    H250487   0.823   6.784   3.457 -0.0909  3.7439  0.7040
 9666TIP3   OH250488   2.739   6.716   0.026  0.2236  0.3215  0.2616
 9666TIP3    H150489   2.785   6.632   0.031 -0.9006 -0.3740 -0.4992
 9666TIP3    H250490   2.805   6.778  -0.004  0.4359 -0.8630 -1.9356
 9667TIP3   OH250491   1.644   2.812   5.296 -0.2314 -0.6037  0.7429
 9667TIP3    H150492   1.590   2.885   5.266  0.9650  0.4588  1.0975
 9667TIP3    H250493   1.700   2.791   5.221  0.9378  0.3185  1.3264
 9668TIP3   OH250494   2.488   4.580   5.825  0.0998  0.3726 -0.0524
 9668TIP3    H150495   2.568   4.527   5.833  0.1731  0.4732 -0.1300
 9668TIP3    H250496   2.479   4.622   5.911  0.1692  0.4192 -0.0686
 9669TIP3   OH250497   3.534   0.403  15.125 -0.1903 -0.1645  0.8833
 9669TIP3    H150498   3.469   0.413  15.055  1.0058  0.5155 -0.1754
 9669TIP3    H250499   3.508   0.468  15.191 -1.2191 -0.6762  1.0010
 9670TIP3   OH250500   5.985   0.363   0.407  0.6813 -0.1371  0.2611
 9670TIP3    H150501   5.996   0.453   0.439  1.9072 -0.1947  0.0309
 9670TIP3    H250502   5.905   0.366   0.356  1.2825  1.0992 -0.6655
 9671TIP3   OH250503   1.107   4.500   3.946 -0.3238 -0.2142 -0.2478
 9671TIP3    H150504   1.143   4.413   3.962 -0.0991 -0.2428 -0.8705
 9671TIP3    H250505   1.181   4.551   3.912 -0.5214  0.1388 -0.1533
 9672TIP3   OH250506   2.944   3.423   4.739  0.2145  0.5130 -0.2646
 9672TIP3    H150507   2.965   3.329   4.742  0.3651  0.5579  0.4174
 9672TIP3    H250508   2.941   3.444   4.646  0.4086 -0.1207 -0.4229
 9673TIP3   OH250509   2.842   2.312   2.836  0.3010  0.0232 -0.0627
 9673TIP3    H150510   2.883   2.264   2.908  0.4983  1.1727  0.6196
 9673TIP3    H250511   2.791   2.380   2.879 -0.0899  0.3368 -0.9983
 9674TIP3   OH250512   1.312   2.291  14.032 -0.3995  0.0237 -0.2825
 9674TIP3    H150513   1.235   2.248  13.995 -1.2384 -0.8021  2.2738
 9674TIP3    H250514   1.379   2.222  14.034 -0.3072  0.1097 -0.3722
 9675TIP3   OH250515   4.296   0.733   0.223  0.3769  0.6313  0.3660
 9675TIP3    H150516   4.303   0.797   0.295 -1.4590  0.8606  0.4015
 9675TIP3    H250517   4.275   0.786   0.146  0.5720  0.2295  0.0366
 9676TIP3   OH250518   4.865   4.460   5.277  0.8398  0.2829 -0.1525
 9676TIP3    H150519   4.918   4.536   5.250  2.0395 -0.3598  0.2989
 9676TIP3    H250520   4.799   4.452   5.209  3.4937 -1.0189 -2.8346
 9677TIP3   OH250521   5.137   1.368  14.173  0.1275  0.1021 -0.0810
 9677TIP3    H150522   5.184   1.360  14.090  0.4284  0.2947  0.0694
 9677TIP3    H250523   5.114   1.278  14.196 -1.1949  0.1547 -1.0699
 9678TIP3   OH250524   5.647   2.596   4.653 -0.3131  0.5256  0.2766
 9678TIP3    H150525   5.607   2.514   4.683  1.4241 -0.2348  0.6549
 9678TIP3    H250526   5.705   2.621   4.725 -0.0031  1.4983 -0.2992
 9679TIP3   OH250527   0.217   0.506  14.808  0.3445  0.3410  0.0239
 9679TIP3    H150528   0.247   0.543  14.724  1.4603 -0.9141 -0.1546
 9679TIP3    H250529   0.122   0.498  14.797  0.4651  0.2547 -1.1044
 9680TIP3   OH250530   3.760   2.391   0.767 -0.0332 -0.0501  0.0227
 9680TIP3    H150531   3.788   2.348   0.687 -1.6045  0.2154 -0.7058
 9680TIP3    H250532   3.775   2.484   0.752  1.1156 -0.1169  0.6609
 9681TIP3   OH250533   4.689   2.827  15.180  0.3783 -0.1593  0.3388
 9681TIP3    H150534   4.687   2.914  15.139 -0.5452 -0.0685  0.5327
 9681TIP3    H250535   4.597   2.801  15.184  0.7928 -2.6533 -2.8305
 9682TIP3   OH250536   4.726   6.627   0.164  0.1160  0.3892  0.1220
 9682TIP3    H150537   4.715   6.721   0.175  0.8409  0.8933 -2.5456
 9682TIP3    H250538   4.817   6.610   0.189  0.0556  0.4346  0.3743
 9683TIP3   OH250539   4.841   2.505   3.461  0.6882  0.1106 -0.1420
 9683TIP3    H150540   4.803   2.428   3.418 -1.3336  0.7806  0.3515
 9683TIP3    H250541   4.926   2.474   3.493 -0.4744 -2.2614  0.9379
 9684TIP3   OH250542   2.001   1.751  12.496 -0.0747  0.2045  0.1468
 9684TIP3    H150543   2.038   1.829  12.536 -0.1408  1.8725 -2.7676
 9684TIP3    H250544   2.038   1.750  12.407 -1.8899 -1.7989 -0.6752
 9685TIP3   OH250545   3.275   4.850   2.613 -0.1939 -0.4051 -0.1076
 9685TIP3    H150546   3.340   4.863   2.682 -0.5103  0.7464 -0.0196
 9685TIP3    H250547   3.193   4.883   2.649 -0.3573  0.2618 -1.0361
 9686TIP3   OH250548   5.853   5.225   3.102  0.0503 -0.0764  0.6693
 9686TIP3    H150549   5.821   5.255   3.018 -1.3099 -0.3424  1.0702
 9686TIP3    H250550   5.922   5.161   3.080 -2.0789 -2.1791 -0.3595
 9687TIP3   OH250551   2.926   6.084   5.850 -0.0629  0.3986  0.7468
 9687TIP3    H150552   2.946   6.146   5.920  1.1510 -2.0828  2.7733
 9687TIP3    H250553   3.010   6.071   5.806 -0.0129 -0.6611  1.1285
 9688TIP3   OH250554   2.385   6.864   2.499 -0.1139  0.2496  0.7928
 9688TIP3    H150555   2.411   6.774   2.480 -0.5510  0.4497 -0.9984
 9688TIP3    H250556   2.306   6.856   2.553 -1.0462 -0.5171 -0.6055
 9689TIP3   OH250557   3.904   2.712  14.936 -0.1037  0.1038  0.2297
 9689TIP3    H150558   3.845   2.720  15.011 -0.3225 -0.1717  0.0900
 9689TIP3    H250559   3.873   2.776  14.873  0.0406  0.2904  0.3458
 9690TIP3   OH250560   1.039   2.704   1.557  0.4668 -0.1913 -0.7541
 9690TIP3    H150561   1.030   2.700   1.652 -0.3860 -1.7374 -0.8644
 9690TIP3    H250562   1.111   2.645   1.538  0.3669 -0.2041 -1.0948
 9691TIP3   OH250563   1.996   5.218   5.354  0.0176 -0.2796  0.2517
 9691TIP3    H150564   2.080   5.262   5.369 -0.0644  0.1421 -0.5227
 9691TIP3    H250565   1.949   5.227   5.438  0.8861 -0.8497  0.8170
 9692TIP3   OH250566   4.527   2.077   4.165 -0.2172 -0.0656 -0.4673
 9692TIP3    H150567   4.544   2.127   4.085  0.2340 -0.0760 -0.3805
 9692TIP3    H250568   4.437   2.047   4.155 -0.3849  0.4834 -0.6730
 9693TIP3   OH250569   1.266   5.824  11.597  0.7141  0.3756 -0.6189
 9693TIP3    H150570   1.337   5.849  11.657  0.5512  1.6345 -0.9182
 9693TIP3    H250571   1.210   5.901  11.592 -1.5078 -1.0452  0.7117
 9694TIP3   OH250572   2.437   1.964  10.314  0.2537  0.0730 -0.2708
 9694TIP3    H150573   2.342   1.958  10.330  0.0272 -0.1175 -1.6094
 9694TIP3    H250574   2.466   2.035  10.371 -0.8585  0.7420 -0.5110
 9695TIP3   OH250575   2.211   1.852   5.533 -0.2489 -0.1260 -0.0166
 9695TIP3    H150576   2.196   1.945   5.549 -0.8812 -0.2252 -0.0015
 9695TIP3    H250577   2.127   1.811   5.552 -0.4742 -0.4815 -1.6508
 9696TIP3   OH250578   1.346   6.441   3.393 -0.3864 -0.1607  0.1537
 9696TIP3    H150579   1.420   6.403   3.440 -0.4837  1.0786  1.3972
 9696TIP3    H250580   1.269   6.397   3.428 -0.3815  0.0364  0.4161
 9697TIP3   OH250581   6.198   3.760   0.860 -0.0229  1.1529  0.0237
 9697TIP3    H150582   6.171   3.711   0.937 -0.1893  2.4207  0.8007
 9697TIP3    H250583   6.273   3.812   0.888  1.3203  0.0255 -1.2814
 9698TIP3   OH250584   0.970   2.976   1.628 -0.5710 -0.3181  0.7476
 9698TIP3    H150585   1.030   2.958   1.555  0.3525  1.0766  1.1169
 9698TIP3    H250586   0.998   2.917   1.698 -0.1496 -0.2514  0.6379
 9699TIP3   OH250587   3.123   0.368  12.982 -0.6246 -0.5520  0.2195
 9699TIP3    H150588   3.054   0.430  12.959 -1.6499 -0.8178  2.3840
 9699TIP3    H250589   3.185   0.420  13.034  0.8296 -0.3357 -1.6178
 9700TIP3   OH250590   2.874   4.974   4.713 -0.8630  0.2624 -0.2318
 9700TIP3    H150591   2.901   4.948   4.801  0.5194 -1.3355 -1.0756
 9700TIP3    H250592   2.780   4.957   4.710 -1.0636  0.9677  1.1130
 9701TIP3   OH250593   5.558   6.271  12.489  0.4039  0.4387  0.1351
 9701TIP3    H150594   5.504   6.348  12.471  2.0588  1.9809  1.3715
 9701TIP3    H250595   5.570   6.230  12.403 -0.4906  1.5590 -0.5656
 9702TIP3   OH250596   0.494   2.752   5.924 -0.3033 -0.2172  0.7533
 9702TIP3    H150597   0.589   2.754   5.913 -0.3473 -2.4420 -0.4365
 9702TIP3    H250598   0.459   2.787   5.842 -0.5126 -0.5054  0.7180
 9703TIP3   OH250599   3.356   6.384   5.482  0.2762 -0.0484  0.1538
 9703TIP3    H150600   3.391   6.301   5.450  0.5777  0.5946 -1.2702
 9703TIP3    H250601   3.262   6.367   5.495  0.1240 -0.3338 -1.1725
 9704TIP3   OH250602   4.609   6.117   5.433  0.3829  0.8403  0.1165
 9704TIP3    H150603   4.626   6.118   5.527  3.2879 -0.2944 -0.3071
 9704TIP3    H250604   4.680   6.168   5.394 -0.2200  0.4920 -1.5523
 9705TIP3   OH250605   5.237   1.580   2.586 -0.3192 -0.2061 -0.3297
 9705TIP3    H150606   5.272   1.517   2.523 -1.2734  2.7251 -4.2026
 9705TIP3    H250607   5.304   1.648   2.591 -0.9419  0.3546  0.6602
 9706TIP3   OH250608   4.216   2.468   1.985 -0.3839  0.1280 -0.1586
 9706TIP3    H150609   4.139   2.429   2.026  0.9928 -0.5839  1.8816
 9706TIP3    H250610   4.195   2.562   1.979 -0.6155  0.2953  2.3945
 9707TIP3   OH250611   3.262   0.088  15.335  0.4292 -0.9104  0.4868
 9707TIP3    H150612   3.205   0.160  15.308  0.8422 -1.2089 -1.2527
 9707TIP3    H250613   3.333   0.131  15.383  0.4861 -0.1836 -0.2301
 9708TIP3   OH250614   2.104   6.232  14.583  0.0378  0.6135 -0.6704
 9708TIP3    H150615   2.039   6.162  14.591 -1.0208  1.4268 -1.7639
 9708TIP3    H250616   2.052   6.313  14.581  1.1534  1.3550 -0.5440
 9709TIP3   OH250617   2.569   6.388  13.517  0.3872  0.5693 -0.5581
 9709TIP3    H150618   2.589   6.417  13.428  0.0378  0.5793 -0.6335
 9709TIP3    H250619   2.504   6.319  13.505  0.5321  0.3932 -0.3251
 9710TIP3   OH250620   1.052   6.862   0.291 -0.5719 -0.2017 -0.3385
 9710TIP3    H150621   1.077   6.871   0.383 -0.4495  0.5608 -0.4356
 9710TIP3    H250622   0.961   6.892   0.288 -0.3143  0.5900 -0.5933
 9711TIP3   OH250623   4.361   2.391  16.320 -0.1786 -0.1638 -0.3766
 9711TIP3    H150624   4.394   2.308  16.354  0.5484  0.6333  0.9793
 9711TIP3    H250625   4.394   2.396  16.231  0.7589 -0.8102 -0.0748
 9712TIP3   OH250626   3.578   4.716   4.526 -0.0365 -0.1340 -0.1313
 9712TIP3    H150627   3.559   4.771   4.449  0.7208  0.4054  0.0584
 9712TIP3    H250628   3.541   4.765   4.600  2.0194  0.9370  0.2455
 9713TIP3   OH250629   0.970   3.588  11.696 -0.3892  0.2047 -0.7222
 9713TIP3    H150630   0.878   3.566  11.689 -0.4381 -0.0020  0.4186
 9713TIP3    H250631   0.995   3.562  11.785  0.6375  0.7275 -0.8362
 9714TIP3   OH250632   4.057   6.674   4.617 -0.3488  0.7690  0.3968
 9714TIP3    H150633   4.028   6.659   4.527 -1.0493 -3.0825  1.0971
 9714TIP3    H250634   4.051   6.589   4.659  1.3164  2.1130  3.7680
 9715TIP3   OH250635   1.359   3.950  12.541  0.3654 -0.5936 -0.1281
 9715TIP3    H150636   1.270   3.970  12.570  0.8354  0.6881  0.4863
 9715TIP3    H250637   1.361   3.854  12.535 -0.8419 -0.6807  0.5369
 9716TIP3   OH250638   0.115   2.941  12.848  0.4066  0.3557  0.2666
 9716TIP3    H150639   0.181   2.963  12.914 -0.1959  3.6745 -0.0448
 9716TIP3    H250640   0.157   2.961  12.764 -0.0019 -0.4332 -0.1358
 9717TIP3   OH250641   0.393   3.581  16.519 -0.4245  0.2775  0.0965
 9717TIP3    H150642   0.307   3.575  16.477 -0.7194  0.7360  0.6128
 9717TIP3    H250643   0.374   3.569  16.612 -0.0475  1.2693  0.3131
 9718TIP3   OH250644   4.705   3.609  11.245 -0.2002 -0.3782  0.0277
 9718TIP3    H150645   4.753   3.635  11.166 -1.7131 -1.1265 -1.1961
 9718TIP3    H250646   4.640   3.678  11.257 -2.1870 -1.8544 -1.4283
 9719TIP3   OH250647   2.132   0.724   1.301  0.3758 -0.0182 -0.4658
 9719TIP3    H150648   2.226   0.706   1.302  0.7705  1.8153  1.1029
 9719TIP3    H250649   2.106   0.724   1.393 -0.7034  1.5749 -0.7215
 9720TIP3   OH250650   1.293   1.507   3.891  0.6154  0.5184  0.6371
 9720TIP3    H150651   1.262   1.470   3.807  0.2666 -0.4360  1.1667
 9720TIP3    H250652   1.276   1.601   3.884 -2.4073  0.0785  0.8538
 9721TIP3   OH250653   5.238   2.677   4.794  0.0500  0.4072  0.1019
 9721TIP3    H150654   5.313   2.733   4.779  0.8135 -0.6519 -0.1720
 9721TIP3    H250655   5.167   2.718   4.744  0.5876  1.1152 -0.0937
 9722TIP3   OH250656   0.256   4.007   2.372 -0.3196 -0.0360  0.2597
 9722TIP3    H150657   0.282   3.934   2.428  0.1054 -0.5576 -0.5980
 9722TIP3    H250658   0.176   3.976   2.328 -0.1711  0.0316 -0.0633
 9723TIP3   OH250659   5.853   6.002  13.183  0.5435 -0.1959 -0.0066
 9723TIP3    H150660   5.865   6.087  13.226 -0.2321 -0.8657  1.5894
 9723TIP3    H250661   5.788   5.956  13.236  1.9394 -2.3363  0.0039
 9724TIP3   OH250662   5.862   1.563   4.184  0.0313 -0.0574 -0.0836
 9724TIP3    H150663   5.894   1.478   4.217  0.2014  0.7437  1.9825
 9724TIP3    H250664   5.814   1.600   4.258  0.4782  1.9366 -0.7339
 9725TIP3   OH250665   4.426   3.670   5.170  0.1332  0.3256  0.1409
 9725TIP3    H150666   4.411   3.742   5.231 -2.6845 -0.2140  0.2248
 9725TIP3    H250667   4.361   3.604   5.195 -1.5371  0.2603 -3.7229
 9726TIP3   OH250668   3.769   1.916   5.369  1.0759  0.4340 -0.2640
 9726TIP3    H150669   3.862   1.907   5.386  1.1315 -0.2447 -0.8875
 9726TIP3    H250670   3.729   1.926   5.455  1.5614 -0.9015  0.1437
 9727TIP3   OH250671   2.120   0.565   3.056  0.9250 -0.7771 -0.7088
 9727TIP3    H150672   2.148   0.485   3.101  1.6895 -1.0622 -1.6588
 9727TIP3    H250673   2.032   0.581   3.088  0.5569 -2.2984 -0.8954
 9728TIP3   OH250674   1.538   2.759  12.111 -0.0487 -0.2786  0.3707
 9728TIP3    H150675   1.547   2.695  12.182 -0.5309 -0.7295  0.0316
 9728TIP3    H250676   1.494   2.834  12.152  0.8291 -0.0109  0.8522
 9729TIP3   OH250677   4.498   1.744  16.084 -0.1874 -0.3865 -0.0688
 9729TIP3    H150678   4.411   1.714  16.110 -0.1295  0.4825  1.1922
 9729TIP3    H250679   4.485   1.778  15.995 -0.8638 -1.3991 -0.3728
 9730TIP3   OH250680   5.065   6.825  14.092  0.3117 -0.0981  0.6614
 9730TIP3    H150681   5.123   6.887  14.136  0.0261  0.4195  0.3175
 9730TIP3    H250682   4.987   6.876  14.071  0.0279 -0.6074  0.4780
 9731TIP3   OH250683   5.666   2.767  11.957  0.3626 -0.7989  0.0433
 9731TIP3    H150684   5.676   2.756  11.863  2.8515  0.7223  0.0507
 9731TIP3    H250685   5.572   2.781  11.970 -0.0409 -1.1384 -2.1648
 9732TIP3   OH250686   0.108   3.235   3.066 -0.9525 -0.1380  0.0396
 9732TIP3    H150687   0.201   3.241   3.088 -1.3953 -0.2032  2.0959
 9732TIP3    H250688   0.091   3.141   3.060 -0.9502 -0.1338 -0.0322
 9733TIP3   OH250689   2.848   0.964   5.080 -0.1888 -0.1976  0.1690
 9733TIP3    H150690   2.835   0.943   5.172 -2.0409 -1.3755 -0.2944
 9733TIP3    H250691   2.931   0.923   5.057  0.1796 -0.0814  1.2347
 9734TIP3   OH250692   2.098   5.247  12.990 -0.2282 -0.1413 -0.3163
 9734TIP3    H150693   2.102   5.342  12.990 -0.7405 -0.0732  1.5611
 9734TIP3    H250694   2.008   5.226  12.967 -0.0082 -0.2001 -1.1489
 9735TIP3   OH250695   1.789   0.398  10.745 -0.0522 -0.2402 -0.5525
 9735TIP3    H150696   1.844   0.331  10.703 -1.9402 -1.8651 -0.5641
 9735TIP3    H250697   1.767   0.458  10.674 -1.0206 -1.4730 -1.3262
 9736TIP3   OH250698   1.529   3.702   2.340 -0.3516  0.3711 -0.0510
 9736TIP3    H150699   1.502   3.694   2.248  2.3339 -0.8709 -0.8122
 9736TIP3    H250700   1.528   3.797   2.357 -2.2286  0.5522 -0.8488
 9737TIP3   OH250701   3.210   2.358  14.671  1.1028  0.1820 -0.3438
 9737TIP3    H150702   3.132   2.323  14.629  1.0888 -1.3973  0.9176
 9737TIP3    H250703   3.187   2.449  14.691 -0.0963 -0.0139 -0.7630
 9738TIP3   OH250704   3.862   4.059   2.187  0.0218 -0.1350 -0.1352
 9738TIP3    H150705   3.949   4.076   2.151  0.0495  1.0011  0.4242
 9738TIP3    H250706   3.847   4.130   2.249 -0.5098 -1.3742  1.2169
 9739TIP3   OH250707   6.000   4.070  13.474  0.5707 -0.1808 -0.2176
 9739TIP3    H150708   5.987   4.064  13.569  0.7310  0.5066 -0.1523
 9739TIP3    H250709   5.916   4.100  13.440  1.2291  2.0124 -0.0289
 9740TIP3   OH250710   3.842   5.277   3.800 -0.8288  0.2193 -0.2086
 9740TIP3    H150711   3.907   5.209   3.819  1.9844  2.9565  0.9518
 9740TIP3    H250712   3.779   5.270   3.871 -0.0809 -0.6319  0.3941
 9741TIP3   OH250713   3.578   5.053  11.075 -0.1775  0.1468 -0.5358
 9741TIP3    H150714   3.544   4.963  11.077  1.4205 -0.4576  1.1779
 9741TIP3    H250715   3.648   5.051  11.010 -0.8784  0.4618 -1.3202
 9742TIP3   OH250716   6.427   1.851   3.008 -0.6040 -0.2180  0.0199
 9742TIP3    H150717   6.514   1.886   2.991 -0.1825 -0.7195  1.0666
 9742TIP3    H250718   6.398   1.897   3.087 -1.1631 -0.2559 -0.1628
 9743TIP3   OH250719   3.297   6.535  11.770  0.5779 -0.0632  0.2139
 9743TIP3    H150720   3.318   6.533  11.677  2.1550  1.6509  0.4612
 9743TIP3    H250721   3.226   6.471  11.781  1.1830 -1.1887 -1.9269
 9744TIP3   OH250722   5.351   2.553  10.347 -0.5206 -0.2409  0.0620
 9744TIP3    H150723   5.413   2.480  10.354  0.6881  0.7555 -0.0110
 9744TIP3    H250724   5.324   2.553  10.255  3.2569  2.3375 -1.2606
 9745TIP3   OH250725   1.940   2.048  13.332  0.5607 -0.5984  0.2891
 9745TIP3    H150726   1.960   2.129  13.379  1.4091  0.0701 -1.1614
 9745TIP3    H250727   2.021   1.998  13.334  0.5178 -0.6958 -0.1675
 9746TIP3   OH250728   1.166   2.551  10.556 -0.8254 -0.0583 -0.0857
 9746TIP3    H150729   1.115   2.595  10.488 -2.5871  0.0698  1.2538
 9746TIP3    H250730   1.132   2.586  10.638  0.7281 -0.7666  0.9156
 9747TIP3   OH250731   0.278   0.995  13.625  0.5400  0.3262  0.2871
 9747TIP3    H150732   0.342   0.957  13.685 -0.0980 -1.2836  0.0018
 9747TIP3    H250733   0.269   0.930  13.555 -0.8986  0.8245 -0.0261
 9748TIP3   OH250734   1.575   3.132  12.351 -0.8211 -0.1818  0.6513
 9748TIP3    H150735   1.563   3.069  12.280 -1.8713  0.3492  0.3369
 9748TIP3    H250736   1.651   3.099  12.399  0.8256  0.1723 -1.5085
 9749TIP3   OH250737   1.646   0.667  16.222  0.0890 -0.6447 -0.4048
 9749TIP3    H150738   1.615   0.576  16.219 -1.8381 -0.0697  0.6843
 9749TIP3    H250739   1.697   0.671  16.303  0.7248 -0.8828 -0.7796
 9750TIP3   OH250740   2.040   0.499  16.812 -0.1882 -0.5096  0.5054
 9750TIP3    H150741   2.082   0.569  16.862 -2.5717  1.2309  0.2320
 9750TIP3    H250742   2.073   0.512  16.723 -0.9287  0.5871  0.3677
 9751TIP3   OH250743   2.921   5.224   3.763  0.6029  0.4864 -0.3297
 9751TIP3    H150744   2.883   5.264   3.841 -0.1873 -0.2504 -0.3218
 9751TIP3    H250745   2.932   5.132   3.785  0.7540  0.3496 -0.9427
 9752TIP3   OH250746   1.250   1.125  14.790  0.5388 -0.5827 -0.6648
 9752TIP3    H150747   1.330   1.114  14.737  1.2306  2.6844 -0.5209
 9752TIP3    H250748   1.189   1.169  14.731 -0.2910 -0.8516 -0.0199
 9753TIP3   OH250749   0.942   0.785   0.913 -0.0636 -0.1928  0.5413
 9753TIP3    H150750   0.862   0.830   0.942  1.3228  1.9082  1.4061
 9753TIP3    H250751   0.969   0.733   0.989 -0.5049 -0.7848  0.3006
 9754TIP3   OH250752   0.135   4.280  11.129  0.3787 -0.4036 -0.8138
 9754TIP3    H150753   0.194   4.336  11.181 -0.2380 -1.8731  1.5974
 9754TIP3    H250754   0.051   4.326  11.131 -0.0842 -1.2456  1.0233
 9755TIP3   OH250755   3.476   4.602   1.510  0.0430  0.6159 -0.4780
 9755TIP3    H150756   3.539   4.530   1.514  0.7564  1.1626 -1.3632
 9755TIP3    H250757   3.460   4.614   1.417 -0.1496  1.5238 -0.3356
 9756TIP3   OH250758   6.762   3.017   3.914  0.5826 -0.2335 -0.2266
 9756TIP3    H150759   6.847   2.991   3.948  0.5295 -1.8313 -1.2071
 9756TIP3    H250760   6.774   3.107   3.885  2.0107 -0.5102 -0.5589
 9757TIP3   OH250761   0.121   5.134  13.553 -0.1979 -0.1041  0.3393
 9757TIP3    H150762   0.027   5.115  13.553 -0.2808  0.2685  0.6970
 9757TIP3    H250763   0.156   5.084  13.627 -0.0660 -0.4632  0.0351
 9758TIP3   OH250764   3.793   3.244   3.577 -0.6884  0.4249  0.2617
 9758TIP3    H150765   3.831   3.229   3.490 -1.7668  1.2562 -0.3803
 9758TIP3    H250766   3.778   3.156   3.611 -1.2648  0.0608 -0.8715
 9759TIP3   OH250767   5.692   3.051  15.806  0.3004 -0.6679  0.5468
 9759TIP3    H150768   5.670   3.140  15.778  2.1669 -0.8619 -1.8161
 9759TIP3    H250769   5.735   3.062  15.890 -0.9401  0.4704  1.0672
 9760TIP3   OH250770   1.688   0.395   1.998  0.8369  0.0176  0.5651
 9760TIP3    H150771   1.607   0.346   2.017  1.3675 -1.1524 -0.0766
 9760TIP3    H250772   1.755   0.327   1.988  1.3978  0.7939 -1.4525
 9761TIP3   OH250773   6.072   2.885  11.106 -0.6939 -0.0634 -0.0478
 9761TIP3    H150774   6.121   2.814  11.147 -1.3652 -0.8672 -0.5830
 9761TIP3    H250775   6.029   2.930  11.178  0.4873  0.3997  0.3862
 9762TIP3   OH250776   0.406   2.507  15.315  0.0258 -0.6858  0.0905
 9762TIP3    H150777   0.358   2.505  15.398 -1.8440 -0.4910 -0.9436
 9762TIP3    H250778   0.386   2.592  15.277 -0.4123 -1.3725 -1.2745
 9763TIP3   OH250779   1.583   5.794   2.531  0.2006  0.4145 -0.6691
 9763TIP3    H150780   1.675   5.777   2.549  0.3667  1.4838 -0.4440
 9763TIP3    H250781   1.584   5.847   2.451 -0.1432  1.3281 -0.0857
 9764TIP3   OH250782   6.537   2.813  13.258 -0.2567 -0.3905  0.5510
 9764TIP3    H150783   6.606   2.753  13.286  0.6489  0.5004  0.2886
 9764TIP3    H250784   6.463   2.756  13.234  0.5766 -1.3933  0.3165
 9765TIP3   OH250785   6.790   2.893   0.074 -0.1931  0.2290  0.2669
 9765TIP3    H150786   6.712   2.942   0.050 -1.3752 -1.4286  0.5510
 9765TIP3    H250787   6.757   2.814   0.117  1.6078 -0.9680 -0.4026
 9766TIP3   OH250788   3.756   5.333   4.318 -0.1399  0.1067  0.0518
 9766TIP3    H150789   3.687   5.399   4.318  0.1208  0.3819  0.1891
 9766TIP3    H250790   3.710   5.249   4.317 -0.4733  0.2911  0.0914
 9767TIP3   OH250791   6.874   4.655   2.615  0.0857  0.3199 -0.2475
 9767TIP3    H150792   6.838   4.587   2.558 -1.2170  0.2665  0.6085
 9767TIP3    H250793   6.830   4.735   2.586  0.0331  0.4324  0.1466
 9768TIP3   OH250794   5.446   0.854  11.381  0.6347  0.6185  0.6270
 9768TIP3    H150795   5.523   0.798  11.388  0.2023 -0.0621  0.1589
 9768TIP3    H250796   5.374   0.800  11.414  0.4134  1.3816  1.4181
 9769TIP3   OH250797   5.440   2.157  12.964  0.2069 -0.5915 -0.0666
 9769TIP3    H150798   5.401   2.071  12.978 -2.2662 -0.0074 -2.3861
 9769TIP3    H250799   5.394   2.215  13.025 -0.1328 -0.4868 -0.4136
 9770TIP3   OH250800   0.831   0.260  11.100  0.0858  0.3144  0.1685
 9770TIP3    H150801   0.746   0.239  11.061  0.0947  0.3976  0.1043
 9770TIP3    H250802   0.872   0.174  11.115 -0.8995  0.1307  2.2464
 9771TIP3   OH250803   3.213   6.412  14.186 -0.6257  0.2836  0.5316
 9771TIP3    H150804   3.253   6.447  14.106 -1.6968  1.1283  0.3359
 9771TIP3    H250805   3.192   6.321  14.165 -2.1567  0.8699 -0.6713
 9772TIP3   OH250806   5.387   1.340   3.039  0.1044 -0.4355  0.1209
 9772TIP3    H150807   5.415   1.349   2.948  0.6865  0.5046  0.3718
 9772TIP3    H250808   5.319   1.407   3.050 -0.4006 -0.9609  0.2131
 9773TIP3   OH250809   2.555   5.643  12.408  0.1854 -0.1964 -0.5516
 9773TIP3    H150810   2.648   5.658  12.392  0.2322  0.3309  0.1443
 9773TIP3    H250811   2.517   5.630  12.321  0.7484  0.5062 -0.9117
 9774TIP3   OH250812   5.890   6.631   6.319  0.4245 -0.6936  0.3315
 9774TIP3    H150813   5.884   6.723   6.290  0.1615 -0.3066  1.5533
 9774TIP3    H250814   5.960   6.594   6.265  1.6606  0.6780  0.9045
 9775TIP3   OH250815   0.421   6.838  12.577  0.4081 -0.3177 -0.1046
 9775TIP3    H150816   0.427   6.921  12.624  0.5762  0.3414 -1.2482
 9775TIP3    H250817   0.468   6.853  12.495  2.0033 -2.1231  0.4077
 9776TIP3   OH250818   4.630   2.734   0.826 -0.0574  0.6447  0.6321
 9776TIP3    H150819   4.635   2.691   0.740  0.8542 -0.2534  1.1155
 9776TIP3    H250820   4.551   2.788   0.821 -0.3824  0.0989 -0.5410
 9777TIP3   OH250821   5.038   6.687   1.862 -0.3331 -0.0501  0.3323
 9777TIP3    H150822   5.126   6.677   1.825  0.3719  1.4019  1.5148
 9777TIP3    H250823   5.011   6.775   1.837 -2.3356 -1.1467 -1.6883
 9778TIP3   OH250824   1.106   2.886   1.838  0.0743 -0.5700 -0.1156
 9778TIP3    H150825   1.157   2.966   1.830 -0.4058 -0.0480  1.6906
 9778TIP3    H250826   1.167   2.822   1.874 -0.5082  0.1367  2.3423
 9779TIP3   OH250827   3.683   4.459   1.619  0.1602 -0.1408 -0.3117
 9779TIP3    H150828   3.670   4.410   1.700  0.3895  0.3757  0.0442
 9779TIP3    H250829   3.777   4.452   1.602  0.2547  0.4778 -0.0588
 9780TIP3   OH250830   3.610   0.830  10.738  0.0156 -0.9748  0.2157
 9780TIP3    H150831   3.626   0.736  10.739 -0.5946 -1.1092  2.3316
 9780TIP3    H250832   3.680   0.868  10.791  0.5992 -0.1414 -1.1010
 9781TIP3   OH250833   1.747   3.916   3.498  0.1686 -0.1573  0.2450
 9781TIP3    H150834   1.707   3.879   3.419  2.2237  0.9663 -1.4228
 9781TIP3    H250835   1.773   3.840   3.550  0.4543 -0.9947 -1.0747
 9782TIP3   OH250836   6.029   2.472   3.194  0.2849 -0.7637 -0.3030
 9782TIP3    H150837   5.963   2.520   3.144 -2.9644 -2.7883  1.7240
 9782TIP3    H250838   6.064   2.408   3.131 -0.8662 -0.7024 -1.0482
 9783TIP3   OH250839   2.774   3.567   4.519  0.3685 -0.1764 -0.1449
 9783TIP3    H150840   2.733   3.481   4.505  0.3739 -0.2280  0.1420
 9783TIP3    H250841   2.717   3.610   4.583  0.2968  0.0850 -0.3837
 9784TIP3   OH250842   2.118   0.508   6.097  0.5652 -0.3906 -0.2570
 9784TIP3    H150843   2.032   0.477   6.125 -0.7622  1.8238 -1.5960
 9784TIP3    H250844   2.154   0.552   6.174  0.8557 -1.8936  0.5135
 9785TIP3   OH250845   2.759   2.977   3.179 -0.6636  0.6012 -0.0645
 9785TIP3    H150846   2.722   3.065   3.171 -1.8788 -0.0199 -1.6730
 9785TIP3    H250847   2.716   2.926   3.110 -0.5739 -1.4649  1.3153
 9786TIP3   OH250848   2.319   2.624   0.091 -0.2718  0.7053 -0.1738
 9786TIP3    H150849   2.340   2.618   0.185 -0.9776 -0.7882 -0.0788
 9786TIP3    H250850   2.380   2.562   0.050 -1.2360 -0.0916 -0.4484
 9787TIP3   OH250851   4.659   3.989  14.829  0.1288 -0.1961 -0.0750
 9787TIP3    H150852   4.586   4.022  14.777 -0.1758 -1.8069 -0.7094
 9787TIP3    H250853   4.623   3.916  14.879  1.6440 -2.2436 -1.7762
 9788TIP3   OH250854   2.100   3.261   3.371 -0.1083 -0.1123 -0.2300
 9788TIP3    H150855   2.163   3.200   3.408 -0.1984 -0.5323 -0.7535
 9788TIP3    H250856   2.045   3.287   3.445 -1.8256 -2.8081 -0.4562
 9789TIP3   OH250857   3.878   5.192   2.909 -0.6956  0.1387 -0.5013
 9789TIP3    H150858   3.903   5.100   2.916  0.3593  0.4970  0.7571
 9789TIP3    H250859   3.908   5.217   2.821 -2.4140 -1.0786 -1.5122
 9790TIP3   OH250860   6.855   1.134  11.826  0.0146  0.4565  0.2959
 9790TIP3    H150861   6.917   1.118  11.754 -1.8284 -2.7216 -0.8052
 9790TIP3    H250862   6.881   1.073  11.895 -0.8800  0.2270  0.4542
 9791TIP3   OH250863   6.207   2.615  11.721 -0.2226 -0.0837 -0.1524
 9791TIP3    H150864   6.177   2.701  11.750 -1.8152 -0.8486  0.5942
 9791TIP3    H250865   6.270   2.634  11.651 -0.8232  1.6793 -0.2673
 9792TIP3   OH250866   4.324   2.529  13.098 -0.2443 -0.6850  0.5188
 9792TIP3    H150867   4.397   2.480  13.060  1.3369  1.6519  0.2494
 9792TIP3    H250868   4.261   2.539  13.026 -0.1094 -1.4207  0.2957
 9793TIP3   OH250869   6.082   5.838   2.305 -0.1846 -0.4375  0.7732
 9793TIP3    H150870   6.099   5.763   2.362 -0.4138 -0.6611  0.5512
 9793TIP3    H250871   6.020   5.892   2.355  2.0487  1.0187  2.1232
 9794TIP3   OH250872   2.339   5.483   2.965  0.5795  0.7873  0.2712
 9794TIP3    H150873   2.353   5.422   2.894 -1.5720  2.1020 -1.4273
 9794TIP3    H250874   2.257   5.454   3.007  0.4906  1.4493  0.5836
 9795TIP3   OH250875   1.948   6.257   5.097  0.3374  0.1209 -0.3420
 9795TIP3    H150876   2.037   6.283   5.122  1.3011 -1.2720 -2.1114
 9795TIP3    H250877   1.955   6.164   5.075 -1.2567  0.3180 -1.9144
 9796TIP3   OH250878   1.686   2.775   3.667 -0.3249 -0.2664  0.4997
 9796TIP3    H150879   1.628   2.840   3.708 -0.4900  0.3198 -0.6258
 9796TIP3    H250880   1.644   2.691   3.684 -0.7643  0.0319  0.9079
 9797TIP3   OH250881   4.410   6.476   0.824 -0.1576  0.3150 -0.1422
 9797TIP3    H150882   4.493   6.505   0.863  0.6132  1.3620 -2.3671
 9797TIP3    H250883   4.434   6.441   0.738 -2.0563  1.2248 -1.1231
 9798TIP3   OH250884   3.497   2.849  12.993  0.2164 -0.2796  0.4071
 9798TIP3    H150885   3.566   2.904  13.030 -1.9795  0.7118  3.4361
 9798TIP3    H250886   3.520   2.841  12.900  3.7103  0.9167  1.0110
 9799TIP3   OH250887   0.763   5.763  14.102  0.1310 -0.3131 -0.4596
 9799TIP3    H150888   0.769   5.685  14.048 -3.1364 -1.4795  0.5678
 9799TIP3    H250889   0.802   5.737  14.186  0.4709 -0.2934 -0.6102
 9800TIP3   OH250890   0.885   1.481  13.784 -0.1284 -0.1337  0.2477
 9800TIP3    H150891   0.962   1.427  13.801  1.3858  1.4560 -1.2664
 9800TIP3    H250892   0.918   1.571  13.781 -1.6146  0.4212 -2.6943
 9801TIP3   OH250893   2.244   3.836  15.997 -0.0960 -0.0202  0.2094
 9801TIP3    H150894   2.245   3.927  16.028  1.9384 -0.4626  1.5853
 9801TIP3    H250895   2.261   3.843  15.903  0.3103  1.0118  0.3468
 9802TIP3   OH250896   1.785   0.355   4.821  0.5796 -0.0942 -0.3431
 9802TIP3    H150897   1.799   0.449   4.809 -1.6067  0.4248  0.5340
 9802TIP3    H250898   1.811   0.338   4.911  1.3771 -0.4484 -0.6298
 9803TIP3   OH250899   6.742   0.337  12.205 -0.1809 -0.1562  0.5357
 9803TIP3    H150900   6.657   0.293  12.198 -1.3976  2.0309  0.8800
 9803TIP3    H250901   6.806   0.266  12.196 -1.8251 -1.4709 -4.3104
 9804TIP3   OH250902   2.983   6.205  12.624 -0.5896  0.5170  0.2348
 9804TIP3    H150903   2.989   6.145  12.698  2.2748  0.5282  0.1442
 9804TIP3    H250904   3.044   6.276  12.647 -1.1954  1.5546 -1.2356
 9805TIP3   OH250905   3.598   4.334   0.128  0.2789 -0.0222 -0.2493
 9805TIP3    H150906   3.560   4.371   0.208  4.5541  1.9636  1.1628
 9805TIP3    H250907   3.577   4.240   0.134 -1.4569  0.4136  1.9939
 9806TIP3   OH250908   2.669   6.415   2.296 -0.1568 -0.3842 -0.6370
 9806TIP3    H150909   2.722   6.486   2.330  1.3677 -0.6801 -2.2338
 9806TIP3    H250910   2.731   6.358   2.251 -1.8562 -0.4385 -3.1440
 9807TIP3   OH250911   5.090   5.146  13.649  0.2099 -0.5737 -0.2978
 9807TIP3    H150912   5.040   5.072  13.682 -1.7075  1.5126  1.8883
 9807TIP3    H250913   5.030   5.192  13.591  0.5091  0.4697  0.1846
 9808TIP3   OH250914   5.966   1.502   5.736 -0.2289  0.0096  0.4291
 9808TIP3    H150915   5.957   1.581   5.790  0.0921  0.3784 -0.0455
 9808TIP3    H250916   5.954   1.430   5.797 -1.3691  0.4249  0.7247
 9809TIP3   OH250917   4.778   3.692   5.671 -0.2049 -0.4583 -0.0479
 9809TIP3    H150918   4.745   3.781   5.656  0.2983 -0.0717  1.0693
 9809TIP3    H250919   4.719   3.636   5.621 -2.3382  0.2467  1.5308
 9810TIP3   OH250920   4.154   1.625  16.414 -0.5316  0.0095  0.4338
 9810TIP3    H150921   4.229   1.663  16.460 -0.3678  1.4105 -0.9109
 9810TIP3    H250922   4.131   1.548  16.466  1.2102  0.0970  1.4304
 9811TIP3   OH250923   2.776   0.208  14.976 -0.5372 -0.0583 -0.1077
 9811TIP3    H150924   2.855   0.156  14.985  0.0282  0.7138 -0.4846
 9811TIP3    H250925   2.786   0.278  15.041 -1.0620 -0.1378  0.0666
 9812TIP3   OH250926   5.696   6.634   5.719 -0.4778  0.1719 -0.4316
 9812TIP3    H150927   5.730   6.670   5.802 -1.3362  1.7978 -0.7487
 9812TIP3    H250928   5.742   6.683   5.652 -2.7109  1.7895 -0.8789
 9813TIP3   OH250929   4.529   3.907   1.529  0.0596  0.2356  1.1056
 9813TIP3    H150930   4.556   3.842   1.595 -0.1854 -1.4035 -0.3249
 9813TIP3    H250931   4.611   3.937   1.491  0.1333 -1.1999  0.0285
 9814TIP3   OH250932   3.584   0.451   5.777 -0.0525  0.1328  0.2441
 9814TIP3    H150933   3.610   0.494   5.858 -0.1493 -0.9048  0.8486
 9814TIP3    H250934   3.499   0.412   5.797  0.5422 -1.2892  0.0998
 9815TIP3   OH250935   3.626   1.700   0.609  0.4896  0.5760  0.2235
 9815TIP3    H150936   3.701   1.674   0.555 -0.9141 -1.8569 -0.7087
 9815TIP3    H250937   3.568   1.745   0.548  0.2084  0.4678  0.4118
 9816TIP3   OH250938   3.350   1.661   3.894 -0.1024  0.5383  0.3156
 9816TIP3    H150939   3.348   1.757   3.897 -0.4995  0.5760 -0.7253
 9816TIP3    H250940   3.306   1.634   3.974  0.7585  1.2051  1.0490
 9817TIP3   OH250941   5.940   5.244  12.113 -0.2772 -0.1439  0.4321
 9817TIP3    H150942   5.968   5.335  12.102  1.6171 -0.7635 -0.1974
 9817TIP3    H250943   5.962   5.223  12.204  0.8053 -0.4444  0.1126
 9818TIP3   OH250944   5.071   2.982  13.024 -0.0650  0.4979  0.1860
 9818TIP3    H150945   5.052   2.934  12.943  0.1341  0.3883  0.2033
 9818TIP3    H250946   5.000   2.957  13.084  0.6266 -0.6318  0.5602
 9819TIP3   OH250947   0.929   0.838  15.277 -0.7421  0.2299 -0.1239
 9819TIP3    H150948   0.845   0.850  15.232 -1.2167  0.1441  0.7232
 9819TIP3    H250949   0.907   0.789  15.356  0.2014 -0.3172 -0.1966
 9820TIP3   OH250950   5.560   0.821   6.211 -0.0843  0.1188  0.3837
 9820TIP3    H150951   5.603   0.840   6.294 -0.9597 -2.1143  1.4253
 9820TIP3    H250952   5.630   0.791   6.154  0.0541 -2.1696  1.6269
 9821TIP3   OH250953   5.697   6.742  12.855  0.5135  0.8678 -0.5556
 9821TIP3    H150954   5.708   6.678  12.926 -2.2080  2.1757  1.1990
 9821TIP3    H250955   5.673   6.688  12.778 -1.2760 -0.3452  0.7559
 9822TIP3   OH250956   4.292   5.932  16.857 -0.1516  0.1362  0.3451
 9822TIP3    H150957   4.265   6.014  16.815 -0.8093 -0.4023 -0.3053
 9822TIP3    H250958   4.257   5.938  16.946 -2.5265 -0.5556 -0.4754
 9823TIP3   OH250959   5.259   2.983  12.613  0.3415 -0.1944 -0.1098
 9823TIP3    H150960   5.332   3.040  12.591 -1.7053  2.4220 -0.6496
 9823TIP3    H250961   5.285   2.940  12.695  3.2133 -0.9478 -1.2992
 9824TIP3   OH250962   6.417   1.105  14.555 -0.5980  0.0691  0.9893
 9824TIP3    H150963   6.469   1.134  14.480  0.9184 -2.1120  1.0892
 9824TIP3    H250964   6.332   1.145  14.543 -0.1387  0.4331 -1.4787
 9825TIP3   OH250965   5.525   0.047  16.432  0.3379 -0.4442  0.4407
 9825TIP3    H150966   5.470   0.091  16.495 -0.5252  0.5211 -0.9269
 9825TIP3    H250967   5.603   0.102  16.425 -0.0022 -0.0124 -0.0387
 9826TIP3   OH250968   5.107   2.116  14.381 -0.5548 -0.7638 -0.4613
 9826TIP3    H150969   5.199   2.135  14.401 -0.4212 -0.9730 -0.8670
 9826TIP3    H250970   5.058   2.182  14.429 -0.1454 -0.0889 -0.9583
 9827TIP3   OH250971   6.552   4.774  14.114  0.6187 -0.2513  0.4201
 9827TIP3    H150972   6.476   4.803  14.063  0.5793 -0.1720  0.5220
 9827TIP3    H250973   6.617   4.749  14.049 -0.2102 -2.2639  0.3129
 9828TIP3   OH250974   2.105   1.176   2.912  0.6831  0.5432  0.2071
 9828TIP3    H150975   2.154   1.218   2.841 -0.2553 -1.1406 -1.4920
 9828TIP3    H250976   2.034   1.237   2.932 -0.2411  0.1555 -1.7294
 9829TIP3   OH250977   3.666   6.763  16.818 -0.4977 -0.2580 -0.0579
 9829TIP3    H150978   3.698   6.678  16.850 -0.7200 -0.3611 -0.1081
 9829TIP3    H250979   3.618   6.800  16.892  0.4315  0.2677  0.2937
 9830TIP3   OH250980   0.471   6.076  12.450  0.7304  0.1796 -0.4254
 9830TIP3    H150981   0.495   6.117  12.367 -1.0884  0.2895 -0.9564
 9830TIP3    H250982   0.409   6.137  12.490  0.5293 -0.5126  0.3611
 9831TIP3   OH250983   0.029   4.794  10.333  0.1741 -0.1737  0.3731
 9831TIP3    H150984  -0.048   4.846  10.311  0.7407  0.8191  0.6846
 9831TIP3    H250985  -0.004   4.704  10.342 -0.2738 -0.5399 -3.4938
 9832TIP3   OH250986   3.229   0.157  11.295 -0.6542  0.8618 -0.1704
 9832TIP3    H150987   3.221   0.076  11.245  1.0481 -1.1971  2.5804
 9832TIP3    H250988   3.313   0.194  11.266 -1.3687  1.6486 -1.3298
 9833TIP3   OH250989   1.847   5.663  16.345 -0.1292 -0.1882  0.3463
 9833TIP3    H150990   1.786   5.599  16.382 -2.7538  1.9023 -0.0576
 9833TIP3    H250991   1.850   5.733  16.410  1.5682 -0.0290  0.1398
 9834TIP3   OH250992   3.149   2.582  15.893 -0.1968 -0.4881  0.6951
 9834TIP3    H150993   3.185   2.590  15.981  0.4242  0.1608  0.3884
 9834TIP3    H250994   3.108   2.666  15.876  0.5533 -0.2521 -0.0065
 9835TIP3   OH250995   5.315   4.827  10.999  0.0072 -0.1456 -0.1495
 9835TIP3    H150996   5.343   4.797  10.912  0.1159 -1.4023  0.3017
 9835TIP3    H250997   5.277   4.750  11.040 -1.2189  0.7459  0.4598
 9836TIP3   OH250998   3.110   0.920   6.351  0.3108  0.1410  0.2671
 9836TIP3    H150999   3.024   0.889   6.323  1.8123 -0.8542 -3.9708
 9836TIP3    H251000   3.101   1.015   6.357 -0.8682  0.1603 -1.1963
 9837TIP3   OH251001   6.545   0.715   2.800 -0.1822  0.1984 -0.6528
 9837TIP3    H151002   6.555   0.624   2.773 -0.5514  0.5712 -2.1522
 9837TIP3    H251003   6.630   0.755   2.782  0.9738 -0.4070  2.6755
 9838TIP3   OH251004   0.402   3.819  12.539  0.1114 -0.0483 -0.0045
 9838TIP3    H151005   0.342   3.888  12.510 -0.3647  0.0959  1.2540
 9838TIP3    H251006   0.357   3.778  12.613  0.7894 -1.1236 -0.1671
 9839TIP3   OH251007   6.494   6.730  14.971  0.4403  0.7054 -0.6141
 9839TIP3    H151008   6.577   6.722  14.925  1.2064  0.6070  0.7173
 9839TIP3    H251009   6.492   6.655  15.030 -0.4723  0.8501 -0.4450
 9840TIP3   OH251010   0.078   1.991   2.143 -0.2532  0.4745 -0.0515
 9840TIP3    H151011   0.050   2.067   2.195  0.7197  0.6763  0.2040
 9840TIP3    H251012   0.105   1.927   2.208 -0.2991  0.2163 -0.2881
 9841TIP3   OH251013   5.498   0.888   0.547  0.0977 -0.7577  0.6490
 9841TIP3    H151014   5.475   0.959   0.606 -1.3933 -0.8331  0.2057
 9841TIP3    H251015   5.539   0.931   0.472  2.1156 -0.6738  1.7370
 9842TIP3   OH251016   1.476   1.101   1.404 -0.1231 -0.2799 -0.2810
 9842TIP3    H151017   1.496   1.042   1.476  0.0128 -0.9578 -0.8583
 9842TIP3    H251018   1.560   1.143   1.384 -0.3206  0.4912  0.4483
 9843TIP3   OH251019   2.134   2.654   1.481 -0.7918 -0.0586 -0.0744
 9843TIP3    H151020   2.159   2.575   1.434 -4.2046 -0.4664 -1.5388
 9843TIP3    H251021   2.167   2.726   1.426 -0.5113 -0.5077 -0.5012
 9844TIP3   OH251022   5.230   2.876   1.766  0.0260  0.0945  0.3468
 9844TIP3    H151023   5.171   2.943   1.731  0.2594  0.6462  0.9882
 9844TIP3    H251024   5.228   2.890   1.861  0.0118 -0.8703  0.4908
 9845TIP3   OH251025   5.616   6.578  12.213 -0.9215  0.0056 -0.1191
 9845TIP3    H151026   5.533   6.610  12.178 -1.1978  1.2331  1.5184
 9845TIP3    H251027   5.636   6.501  12.161 -2.4304  0.4295 -1.4073
 9846TIP3   OH251028   1.456   2.634   0.633  0.1300  0.3787  0.4534
 9846TIP3    H151029   1.441   2.645   0.727  2.9780 -2.1101  1.3346
 9846TIP3    H251030   1.373   2.602   0.599 -0.8999  1.1292  2.1492
 9847TIP3   OH251031   5.088   4.858  13.438  0.8059 -0.2266 -0.2209
 9847TIP3    H151032   5.053   4.839  13.352 -2.3645 -1.5764  1.2005
 9847TIP3    H251033   5.053   4.945  13.460 -0.0174 -0.6854  0.3760
 9848TIP3   OH251034   2.016   4.083  14.925  0.1617  0.6164 -0.2137
 9848TIP3    H151035   2.085   4.135  14.883  1.1800 -0.8647 -0.4192
 9848TIP3    H251036   1.936   4.134  14.910  0.9967  1.7214 -1.0980
 9849TIP3   OH251037   5.876   3.611   2.311 -0.2626  0.2664 -0.1168
 9849TIP3    H151038   5.889   3.612   2.406  0.5861  0.9208 -0.2297
 9849TIP3    H251039   5.939   3.546   2.279 -0.2355  0.3738 -0.2805
 9850TIP3   OH251040   1.381   5.082   0.838 -0.1802 -0.4066  0.4761
 9850TIP3    H151041   1.386   5.172   0.805 -0.6034 -0.5147  0.1125
 9850TIP3    H251042   1.464   5.042   0.812 -0.8127 -0.7260 -1.1877
 9851TIP3   OH251043   2.570   2.455  14.359 -0.3945 -0.0761  0.0078
 9851TIP3    H151044   2.550   2.373  14.403 -0.0618  0.0333  0.3707
 9851TIP3    H251045   2.640   2.494  14.412  0.5085 -0.2671 -0.9983
 9852TIP3   OH251046   5.627   1.402  16.223  0.3221  0.6236 -0.1669
 9852TIP3    H151047   5.654   1.493  16.207  0.6151  0.5834  0.0906
 9852TIP3    H251048   5.682   1.373  16.296  0.0378  0.3268 -0.0664
 9853TIP3   OH251049   4.334   0.724  16.031 -0.5877  0.2694 -0.4074
 9853TIP3    H151050   4.394   0.777  15.977 -0.8046 -0.4073 -1.3429
 9853TIP3    H251051   4.369   0.731  16.120  1.3765 -0.7328 -1.0419
 9854TIP3   OH251052   3.283   6.775   4.663 -0.0096  0.1546  0.4176
 9854TIP3    H151053   3.258   6.821   4.744  0.9636 -0.5639  1.1472
 9854TIP3    H251054   3.259   6.684   4.680 -1.2238  0.2353 -0.7242
 9855TIP3   OH251055   4.167   5.785   2.435  0.0113 -0.3140 -0.2547
 9855TIP3    H151056   4.076   5.762   2.414 -0.4669  1.6007 -0.4379
 9855TIP3    H251057   4.166   5.801   2.530 -0.0562  0.5765 -0.4011
 9856TIP3   OH251058   1.555   1.633  14.975 -0.3483 -0.9380 -0.4829
 9856TIP3    H151059   1.466   1.667  14.970 -0.5686 -1.4141  0.1526
 9856TIP3    H251060   1.546   1.546  15.014  0.4829 -0.6412  0.4124
 9857TIP3   OH251061   2.338   2.608  14.460  0.1361 -0.0085  0.0581
 9857TIP3    H151062   2.398   2.627  14.532  1.8843 -2.1022 -0.7453
 9857TIP3    H251063   2.385   2.547  14.405 -1.8706  0.0975 -1.9175
 9858TIP3   OH251064   6.544   4.814  13.285  0.3522 -0.1785 -0.8586
 9858TIP3    H151065   6.633   4.799  13.252  0.7726  1.2782 -0.4428
 9858TIP3    H251066   6.542   4.906  13.309 -1.5406  0.0255 -1.6165
 9859TIP3   OH251067   4.742   4.629  13.157  0.2514  0.1846 -0.3603
 9859TIP3    H151068   4.651   4.654  13.139  0.2871 -0.5295 -1.6851
 9859TIP3    H251069   4.774   4.595  13.074  1.2205 -1.1417  0.5075
 9860TIP3   OH251070   4.907   2.144   1.277 -0.2280  0.6751  0.6008
 9860TIP3    H151071   4.922   2.152   1.371  2.0661 -0.7405  0.4258
 9860TIP3    H251072   4.960   2.214   1.238  0.7593 -0.2060  0.2926
 9861TIP3   OH251073   4.486   3.540   2.274 -0.1897 -0.5556  0.4483
 9861TIP3    H151074   4.430   3.560   2.349  0.4719  2.2993  0.2772
 9861TIP3    H251075   4.559   3.491   2.311 -1.0074 -1.1847  1.2655
 9862TIP3   OH251076   3.739   3.491   1.187 -0.4114  0.5114 -0.5433
 9862TIP3    H151077   3.659   3.543   1.197  0.0012  1.2375 -0.9850
 9862TIP3    H251078   3.789   3.536   1.119  0.2753 -0.0713 -0.4384
 9863TIP3   OH251079   2.166   2.496  14.038 -0.4384  0.1077 -0.0895
 9863TIP3    H151080   2.158   2.467  14.129  0.0478 -0.5798 -0.2611
 9863TIP3    H251081   2.260   2.492  14.019 -0.6712 -1.6234 -1.1994
 9864TIP3   OH251082   2.131   1.246  12.436  0.6837 -0.0642  0.2979
 9864TIP3    H151083   2.073   1.319  12.458  2.2820  1.2407  0.3465
 9864TIP3    H251084   2.153   1.206  12.521 -1.2565 -1.5266  0.1848
 9865TIP3   OH251085   6.381   5.618   0.723 -0.5178  0.5786 -0.4890
 9865TIP3    H151086   6.449   5.611   0.655 -1.0270  0.8950 -1.0313
 9865TIP3    H251087   6.418   5.678   0.787  0.4068 -0.5209  0.0495
 9866TIP3   OH251088   3.344   6.469  16.637  0.1031  0.0196 -0.4944
 9866TIP3    H151089   3.304   6.398  16.686  0.5632  0.0300 -0.0889
 9866TIP3    H251090   3.304   6.548  16.673 -0.3633 -0.0282 -0.9042
 9867TIP3   OH251091   5.241   3.547  15.184 -0.2134  0.0498  0.3750
 9867TIP3    H151092   5.323   3.585  15.216  0.2462 -1.5767  1.2270
 9867TIP3    H251093   5.182   3.549  15.259 -0.2250 -0.7884  0.3954
 9868TIP3   OH251094   4.433   4.827   0.543 -0.2661 -0.1214 -0.0945
 9868TIP3    H151095   4.469   4.903   0.496  1.0648  0.3057  1.5340
 9868TIP3    H251096   4.370   4.864   0.604 -0.8151 -0.5035 -0.4285
 9869TIP3   OH251097   2.526   0.418   1.871 -0.0679  1.4266  0.0732
 9869TIP3    H151098   2.533   0.453   1.959 -2.0259 -1.6608  1.6182
 9869TIP3    H251099   2.436   0.434   1.845 -0.6266 -0.9431  0.2765
 9870TIP3   OH251100   2.975   5.584   5.242  0.1326 -0.2642  0.4449
 9870TIP3    H151101   3.005   5.493   5.235  3.2247  0.3157  3.6152
 9870TIP3    H251102   2.919   5.584   5.320  2.1999  0.8750  2.0246
 9871TIP3   OH251103   3.147   5.278  15.917  0.0995  0.2941  0.0903
 9871TIP3    H151104   3.088   5.348  15.946 -1.3871 -0.1851 -1.5535
 9871TIP3    H251105   3.194   5.316  15.842  1.9762  0.6780  1.3981
 9872TIP3   OH251106   1.981   6.100  11.363 -0.2002  0.5184 -0.0172
 9872TIP3    H151107   1.986   6.141  11.276  0.8002  0.3360 -0.0590
 9872TIP3    H251108   2.055   6.040  11.365 -1.1250 -0.6414  0.3930
 9873TIP3   OH251109   4.192   3.304   3.682 -0.2682 -0.7439 -0.1575
 9873TIP3    H151110   4.211   3.266   3.768  1.1700 -3.5402 -1.5920
 9873TIP3    H251111   4.276   3.308   3.638 -1.0551  0.0956 -1.6558
 9874TIP3   OH251112   2.755   5.387   3.618 -0.0211  0.3558  0.3470
 9874TIP3    H151113   2.809   5.317   3.655 -0.4250  0.8171  1.8902
 9874TIP3    H251114   2.798   5.410   3.536  1.4000 -0.1627  0.9145
 9875TIP3   OH251115   2.950   2.692   0.204 -0.0900  0.3506  0.2172
 9875TIP3    H151116   2.940   2.775   0.156 -1.7281  0.9619  1.5078
 9875TIP3    H251117   2.907   2.708   0.288 -1.1715 -2.0744  0.1937
 9876TIP3   OH251118   5.153   0.037  13.132  0.2723  0.0469  0.0064
 9876TIP3    H151119   5.069   0.062  13.093 -0.7820 -0.4206  1.8226
 9876TIP3    H251120   5.180   0.114  13.183 -0.8402 -0.9102  2.1763
 9877TIP3   OH251121   6.207   5.461   4.073  0.3896 -0.3585  0.2843
 9877TIP3    H151122   6.152   5.383   4.068  1.2477 -0.8960 -2.0640
 9877TIP3    H251123   6.190   5.509   3.992 -0.2513  2.0693  1.7345
 9878TIP3   OH251124   0.676   4.256  14.580 -0.2149  0.1433  0.2966
 9878TIP3    H151125   0.600   4.302  14.616  0.1078  2.0113 -1.2422
 9878TIP3    H251126   0.662   4.164  14.604 -2.7902  0.4809  0.3576
 9879TIP3   OH251127   5.704   1.477  12.607  0.3651  0.0075  0.1578
 9879TIP3    H151128   5.735   1.454  12.519 -0.7448 -1.7989  0.1877
 9879TIP3    H251129   5.741   1.564  12.623  0.7063  0.3379 -2.0335
 9880TIP3   OH251130   6.103   6.489  16.355 -0.3207  0.3860  0.1308
 9880TIP3    H151131   6.032   6.425  16.362  2.0148 -2.7129 -1.7923
 9880TIP3    H251132   6.182   6.441  16.378  1.5450  2.8015 -0.7476
 9881TIP3   OH251133   4.219   0.575   5.379 -0.0607  0.9451 -0.1991
 9881TIP3    H151134   4.197   0.517   5.306 -1.0311 -0.2294  0.9729
 9881TIP3    H251135   4.141   0.628   5.393  0.1514  1.2240 -0.0428
 9882TIP3   OH251136   0.117   4.814  14.868  0.0247  0.4614 -0.5315
 9882TIP3    H151137   0.084   4.814  14.778 -0.7700  1.0127 -0.2512
 9882TIP3    H251138   0.097   4.727  14.901 -0.8525  0.6806 -0.4734
 9883TIP3   OH251139   2.140   3.426   0.825  0.6999 -0.2686 -0.6013
 9883TIP3    H151140   2.165   3.464   0.910  1.6894 -1.4792 -0.3307
 9883TIP3    H251141   2.207   3.457   0.765  0.6218 -0.3218 -0.7151
 9884TIP3   OH251142   4.955   4.976   3.917  1.0115  0.5717 -0.5455
 9884TIP3    H151143   4.870   4.933   3.909  0.3018  1.5212  1.3154
 9884TIP3    H251144   4.954   5.043   3.849  0.8066 -0.2296 -1.3549
 9885TIP3   OH251145   2.449   2.715  11.367 -0.3727 -0.2388  0.6694
 9885TIP3    H151146   2.523   2.690  11.424 -0.0918 -1.7166 -0.2812
 9885TIP3    H251147   2.463   2.664  11.287 -0.1621  2.5606 -1.2067
 9886TIP3   OH251148   2.156   6.558   2.368 -0.1543 -0.0151  0.1457
 9886TIP3    H151149   2.097   6.500   2.321 -0.4590 -0.0085  0.5141
 9886TIP3    H251150   2.167   6.517   2.454  1.3313 -0.6444 -0.3106
 9887TIP3   OH251151   6.556   5.126  10.270 -0.0800  0.3795  0.3073
 9887TIP3    H151152   6.466   5.156  10.281  0.6182  1.8540  2.9752
 9887TIP3    H251153   6.606   5.180  10.331  2.2671 -2.0420  0.6876
 9888TIP3   OH251154   3.845   1.993  13.280 -0.1134 -0.8063 -0.3294
 9888TIP3    H151155   3.781   2.035  13.223 -1.3812 -0.8842  0.9773
 9888TIP3    H251156   3.883   2.064  13.331 -1.0353 -1.0177  0.6901
 9889TIP3   OH251157   3.694   0.377   2.546 -0.1681  0.2125 -0.2502
 9889TIP3    H151158   3.712   0.427   2.627  0.7165 -0.1609 -0.2091
 9889TIP3    H251159   3.714   0.286   2.569  1.0681  0.2227 -1.1590
 9890TIP3   OH251160   5.234   3.868   5.616 -0.6350  0.4162  0.3408
 9890TIP3    H151161   5.158   3.812   5.602 -0.9492  0.7117  0.8393
 9890TIP3    H251162   5.283   3.825   5.686 -0.6869  0.5702  0.4724
 9891TIP3   OH251163   4.945   1.877   1.784 -0.1246 -0.1681 -0.0638
 9891TIP3    H151164   5.001   1.895   1.861 -0.5428  0.8402  0.0134
 9891TIP3    H251165   4.856   1.875   1.819 -0.2826 -0.0948 -0.4578
 9892TIP3   OH251166   4.407   5.014  13.097  0.0671  0.0562 -0.1852
 9892TIP3    H151167   4.388   5.008  13.004  0.6526  0.1905 -0.3179
 9892TIP3    H251168   4.489   5.063  13.102 -0.6075  1.1554  0.4705
 9893TIP3   OH251169   1.750   5.351  15.987  0.0990 -0.3468  0.0548
 9893TIP3    H151170   1.756   5.447  15.991  0.8408 -0.3795 -0.2046
 9893TIP3    H251171   1.723   5.332  15.897  1.0913 -0.4230 -0.2410
 9894TIP3   OH251172   3.309   5.195   4.319 -0.4068  0.3026  0.2292
 9894TIP3    H151173   3.354   5.221   4.399 -0.3501 -1.5093  0.8202
 9894TIP3    H251174   3.218   5.223   4.332 -0.8252 -1.5879  1.7626
 9895TIP3   OH251175   3.340   0.358   5.879 -0.2710 -0.2492  0.4781
 9895TIP3    H151176   3.317   0.272   5.845 -1.1646  0.1644  0.0104
 9895TIP3    H251177   3.260   0.409   5.873  0.3046  0.6932  0.5237
 9896TIP3   OH251178   0.343   2.614   2.915  0.7446 -0.4541 -0.0696
 9896TIP3    H151179   0.326   2.566   2.834 -1.2879  1.6991 -1.0606
 9896TIP3    H251180   0.400   2.686   2.889 -0.9162  0.9846  0.0171
 9897TIP3   OH251181   1.662   1.333  14.652 -0.0340  0.3487 -0.0478
 9897TIP3    H151182   1.729   1.359  14.589  1.7935 -1.0298  1.1982
 9897TIP3    H251183   1.677   1.239  14.665 -1.8239  0.1332  0.7587
 9898TIP3   OH251184   4.015   4.105  11.767 -0.1349 -0.2319 -0.2206
 9898TIP3    H151185   4.003   4.032  11.828  0.9424 -0.9344 -0.8131
 9898TIP3    H251186   4.033   4.063  11.683  0.3271  0.7298 -0.6159
 9899TIP3   OH251187   3.423   0.338   1.472 -0.0152 -0.2624 -0.9618
 9899TIP3    H151188   3.345   0.321   1.419 -0.4538  0.0472 -0.4283
 9899TIP3    H251189   3.398   0.311   1.560  0.1950  0.5923 -0.6294
 9900TIP3   OH251190   1.124   2.252  16.920 -0.9074 -0.0976  0.2422
 9900TIP3    H151191   1.143   2.295  16.837 -0.6436  1.1501  0.9231
 9900TIP3    H251192   1.162   2.164  16.911  0.5249  0.5461 -0.3802
 9901TIP3   OH251193   2.416   2.822  15.557 -0.4544  0.2628  0.1107
 9901TIP3    H151194   2.440   2.908  15.522  0.5646 -0.3209 -0.6854
 9901TIP3    H251195   2.359   2.784  15.490 -2.4203  1.0022  1.2764
 9902TIP3   OH251196   3.925   3.195  14.787 -0.3591  0.2308 -0.2348
 9902TIP3    H151197   3.935   3.290  14.780  1.6225  0.1119  0.4046
 9902TIP3    H251198   3.945   3.162  14.700  0.5113  0.3192 -0.0779
 9903TIP3   OH251199   2.483   6.108   1.093  0.4477  0.4408 -0.4580
 9903TIP3    H151200   2.478   6.162   1.014  1.4709 -0.1276 -0.9337
 9903TIP3    H251201   2.449   6.023   1.065 -1.4224  0.8732  0.3591
 9904TIP3   OH251202   3.332   0.409  11.457  0.1838  0.7059 -0.1406
 9904TIP3    H151203   3.275   0.482  11.433 -0.9268 -0.3436 -0.8438
 9904TIP3    H251204   3.293   0.373  11.536 -0.0489  0.0829 -0.5316
 9905TIP3   OH251205   6.765   1.011   2.168  1.2959 -0.0193 -0.5034
 9905TIP3    H151206   6.824   1.079   2.199  0.8327  0.3940 -0.5217
 9905TIP3    H251207   6.739   0.964   2.247  0.0153  1.1149 -0.2146
 9906TIP3   OH251208   1.619   0.733   5.428  0.1606 -0.8190 -0.2387
 9906TIP3    H151209   1.564   0.783   5.489  1.1434 -0.0174  0.0124
 9906TIP3    H251210   1.620   0.786   5.348  2.0591  0.1364  0.3717
 9907TIP3   OH251211   1.998   1.196   3.984 -0.7975  0.3534 -0.0386
 9907TIP3    H151212   1.986   1.170   3.892 -0.7849  0.7978 -0.1656
 9907TIP3    H251213   1.910   1.214   4.016 -0.6550  2.0444 -0.5123
 9908TIP3   OH251214   3.414   3.363   3.921 -0.3575  0.4451 -0.1943
 9908TIP3    H151215   3.505   3.382   3.943  0.0761 -1.8003  0.1788
 9908TIP3    H251216   3.363   3.420   3.978  0.8072  0.7201  0.6027
 9909TIP3   OH251217   3.751   4.314  15.385 -0.1869 -0.5430 -0.2321
 9909TIP3    H151218   3.845   4.296  15.386 -0.1555 -0.6354 -1.8964
 9909TIP3    H251219   3.712   4.245  15.438  0.3806 -2.7708 -2.5290
 9910TIP3   OH251220   3.681   6.160  16.532 -0.1135  0.6458  0.7974
 9910TIP3    H151221   3.699   6.116  16.449  0.0464 -1.0696  1.7027
 9910TIP3    H251222   3.610   6.110  16.571 -1.1718  2.2936  1.0830
 9911TIP3   OH251223   4.326   0.335   2.363  0.2683  0.2749  0.1419
 9911TIP3    H151224   4.254   0.278   2.391 -0.5357  2.6209  3.5404
 9911TIP3    H251225   4.343   0.390   2.440  2.2788  3.2869 -2.2497
 9912TIP3   OH251226   3.735   1.778   5.050 -0.7109  0.4087 -0.2802
 9912TIP3    H151227   3.798   1.830   4.999 -0.1398  0.0385  0.0480
 9912TIP3    H251228   3.763   1.788   5.141 -1.9383  1.3592  0.0218
 9913TIP3   OH251229   6.349   5.691   2.580  0.7872  0.1086  0.2216
 9913TIP3    H151230   6.363   5.695   2.485  0.0203 -0.4273  0.0778
 9913TIP3    H251231   6.372   5.601   2.604  2.8219  0.7301  0.8805
 9914TIP3   OH251232   0.869   2.213  12.356  0.2021  0.7097  0.1099
 9914TIP3    H151233   0.834   2.168  12.432 -0.8742  3.4946  1.4008
 9914TIP3    H251234   0.793   2.225  12.299 -0.1187  2.9539  0.9279
 9915TIP3   OH251235   5.517   1.729   4.255 -0.6330 -0.4536  0.9683
 9915TIP3    H151236   5.527   1.721   4.160 -3.0207  3.5988  0.1581
 9915TIP3    H251237   5.604   1.709   4.289  0.5881 -1.0821 -2.1366
 9916TIP3   OH251238   0.015   1.322   1.680 -0.2153 -0.3740 -0.1860
 9916TIP3    H151239   0.063   1.384   1.736 -0.1959  0.0923 -0.7094
 9916TIP3    H251240   0.020   1.360   1.592 -0.2398 -1.1045 -0.5120
 9917TIP3   OH251241   4.589   3.088  13.143  0.2702  0.2678 -0.6694
 9917TIP3    H151242   4.620   3.008  13.186 -1.5220 -0.1799 -0.1076
 9917TIP3    H251243   4.632   3.088  13.057  1.5231 -0.4489 -0.0556
 9918TIP3   OH251244   1.430   3.359  14.315  0.1678 -0.0425  0.3041
 9918TIP3    H151245   1.485   3.356  14.236 -0.5404  0.1867 -0.2053
 9918TIP3    H251246   1.394   3.271  14.323  0.5456 -0.1727  0.5961
 9919TIP3   OH251247   0.049   4.909  12.926 -0.1134  0.1189 -0.1702
 9919TIP3    H151248   0.101   4.984  12.894 -0.8137  1.0402  0.7713
 9919TIP3    H251249   0.111   4.836  12.928  1.1890  1.1963  0.9541
 9920TIP3   OH251250   3.562   0.794   5.145 -0.1677 -0.9036 -0.0228
 9920TIP3    H151251   3.526   0.846   5.074 -1.4001 -1.4518  0.1792
 9920TIP3    H251252   3.492   0.789   5.210  0.7850 -0.7781  1.0408
 9921TIP3   OH251253   0.612   3.277   2.945  0.1192  0.3098 -0.5470
 9921TIP3    H151254   0.597   3.204   2.886 -0.2549  1.6491 -2.1785
 9921TIP3    H251255   0.700   3.263   2.980  0.1054 -0.8234 -0.9420
 9922TIP3   OH251256   5.176   3.883  12.835  0.2652  0.2940  0.1040
 9922TIP3    H151257   5.166   3.828  12.913 -0.7050  0.6580  0.2502
 9922TIP3    H251258   5.114   3.847  12.772 -0.8452  1.5658  0.4184
 9923TIP3   OH251259   4.948   5.450   6.212  0.6653 -0.4567  0.0582
 9923TIP3    H151260   4.984   5.510   6.147  0.4052 -0.1374  0.2026
 9923TIP3    H251261   4.999   5.370   6.202  0.4112 -0.5267 -0.7616
 9924TIP3   OH251262   0.147   2.135  11.000  0.1009 -0.1805  0.5147
 9924TIP3    H151263   0.062   2.177  10.996  0.1387 -0.1177  0.3855
 9924TIP3    H251264   0.157   2.091  10.916  0.8163  1.0155 -0.0544
 9925TIP3   OH251265   6.646   1.978  10.698 -0.0183 -0.0917 -0.1403
 9925TIP3    H151266   6.554   1.953  10.706 -0.1809  0.5041 -0.1798
 9925TIP3    H251267   6.693   1.902  10.733 -0.4497 -1.1928 -1.8242
 9926TIP3   OH251268   2.528   2.946   6.253  0.3805 -0.2759  0.4431
 9926TIP3    H151269   2.461   3.013   6.245  0.9674  0.4275  1.3057
 9926TIP3    H251270   2.521   2.915   6.343  0.3239 -1.1740  0.1472
 9927TIP3   OH251271   5.584   0.467   3.107  0.3984  0.1863  0.0227
 9927TIP3    H151272   5.550   0.543   3.155  0.9131  0.2273  0.3279
 9927TIP3    H251273   5.564   0.392   3.163  0.9546  0.2287  0.2821
 9928TIP3   OH251274   4.433   4.555  12.774  0.5460 -0.2606 -0.4404
 9928TIP3    H151275   4.440   4.590  12.685 -1.4105  0.1265 -0.4769
 9928TIP3    H251276   4.350   4.588  12.807  1.4393 -0.0010  1.7384
 9929TIP3   OH251277   6.326   0.975   2.930 -0.2075  0.1378 -0.0585
 9929TIP3    H151278   6.337   0.881   2.917 -0.7256 -0.0539  0.7771
 9929TIP3    H251279   6.334   0.987   3.025 -1.6300  0.7243  0.0076
 9930TIP3   OH251280   5.786   4.663   5.275 -0.1158 -0.0782  0.1392
 9930TIP3    H151281   5.815   4.573   5.283 -1.2196 -0.3210  2.1047
 9930TIP3    H251282   5.797   4.684   5.182 -2.0742 -3.0489 -0.9305
 9931TIP3   OH251283   3.393   4.879  11.460 -0.1800 -0.1753 -0.7451
 9931TIP3    H151284   3.473   4.839  11.425 -0.1348 -1.5533  0.8421
 9931TIP3    H251285   3.406   4.881  11.554 -0.8632  2.2216 -0.6226
 9932TIP3   OH251286   2.492   0.342  14.256 -0.2211 -0.5701 -0.6996
 9932TIP3    H151287   2.428   0.298  14.312 -0.7588 -0.6328 -1.3430
 9932TIP3    H251288   2.450   0.425  14.234  0.7739  0.2752  0.4889
 9933TIP3   OH251289   3.265   5.779   0.980  0.5715 -0.3420 -0.6946
 9933TIP3    H151290   3.269   5.820   1.067 -1.5704 -1.2835 -0.0876
 9933TIP3    H251291   3.271   5.852   0.919  0.5933  0.5010  0.2879
 9934TIP3   OH251292   3.786   3.474  13.368 -0.1397 -0.3916  0.0610
 9934TIP3    H151293   3.835   3.548  13.330 -0.7295 -0.0487 -0.0443
 9934TIP3    H251294   3.703   3.474  13.321 -1.0150  0.2243  1.5304
 9935TIP3   OH251295   1.283   1.121   5.696 -0.0802  0.3852  0.4953
 9935TIP3    H151296   1.197   1.163   5.687  0.8136  3.1374  3.1044
 9935TIP3    H251297   1.307   1.134   5.788  2.5999 -1.4240  0.1744
 9936TIP3   OH251298   1.408   0.064   4.952  0.4969 -0.0931  0.2706
 9936TIP3    H151299   1.421   0.079   5.046 -1.0119  2.4157  0.1868
 9936TIP3    H251300   1.485   0.103   4.911  0.6934 -0.3085  0.4337
 9937TIP3   OH251301   1.022   1.241  15.190 -0.5163  0.2777 -0.1361
 9937TIP3    H151302   1.042   1.149  15.208 -1.6789  0.1017  0.3706
 9937TIP3    H251303   1.098   1.273  15.142  0.1886 -0.7730  0.2352
 9938TIP3   OH251304   1.232   6.710  13.890  0.3051  0.6568 -0.5362
 9938TIP3    H151305   1.294   6.680  13.824  1.0500  0.4760  0.2245
 9938TIP3    H251306   1.162   6.644  13.889  0.8979  0.0117 -0.3360
 9939TIP3   OH251307   0.014   1.292   0.556 -0.0560  0.3977 -0.1296
 9939TIP3    H151308   0.073   1.313   0.627 -1.3511 -0.2139  1.1811
 9939TIP3    H251309   0.068   1.246   0.492  0.7786 -0.6457  1.2744
 9940TIP3   OH251310   4.392   4.449  14.852 -0.0557 -0.1157  0.2805
 9940TIP3    H151311   4.317   4.482  14.803  1.9410  4.3564 -0.3329
 9940TIP3    H251312   4.452   4.417  14.784  1.0261  2.2732 -0.0100
 9941TIP3   OH251313   1.776   4.045   5.842  0.2123  0.4990 -0.4453
 9941TIP3    H151314   1.702   4.021   5.787  0.5322 -2.5289  0.2686
 9941TIP3    H251315   1.764   3.994   5.922  2.1442  1.2797  0.3991
 9942TIP3   OH251316   6.063   6.836   3.619  0.3390  0.3563  0.0145
 9942TIP3    H151317   6.060   6.743   3.596 -1.3020  0.3485  0.1354
 9942TIP3    H251318   6.037   6.839   3.711  0.1769  0.9512 -0.0466
 9943TIP3   OH251319   4.399   3.381   4.779 -0.3990 -0.4569  0.9941
 9943TIP3    H151320   4.477   3.390   4.833  1.7180 -0.3329 -1.8134
 9943TIP3    H251321   4.388   3.287   4.767 -2.6630 -0.6961  3.8046
 9944TIP3   OH251322   4.003   0.356   2.501  0.2626 -0.2409 -0.1804
 9944TIP3    H151323   4.084   0.407   2.505  0.8394 -1.1622  0.1413
 9944TIP3    H251324   4.026   0.280   2.447  0.0395 -1.2496  1.1063
 9945TIP3   OH251325   6.249   1.807   4.103  0.2959  0.2855  0.2069
 9945TIP3    H151326   6.337   1.839   4.122  0.5825 -0.1121 -0.4553
 9945TIP3    H251327   6.233   1.742   4.171  0.0182  1.2399  1.0817
 9946TIP3   OH251328   2.464   4.382   0.260  0.3493 -0.1142 -0.5367
 9946TIP3    H151329   2.377   4.347   0.277 -0.5041  1.5485 -1.2766
 9946TIP3    H251330   2.512   4.370   0.342  0.0761 -2.7723 -0.6913
 9947TIP3   OH251331   1.522   6.107   4.597 -0.6777  0.1423  0.3740
 9947TIP3    H151332   1.542   6.192   4.556  1.4575  0.0611  1.1026
 9947TIP3    H251333   1.503   6.049   4.523 -3.6744  1.5241 -0.0776
 9948TIP3   OH251334   0.699   6.312  15.101 -0.5142 -0.2757 -0.0696
 9948TIP3    H151335   0.728   6.398  15.070 -0.9363 -0.3782 -0.7658
 9948TIP3    H251336   0.747   6.249  15.048 -3.2088 -0.4536 -2.5146
 9949TIP3   OH251337   0.850   4.732   3.221 -0.3627 -0.4712  0.0785
 9949TIP3    H151338   0.943   4.715   3.228 -0.5360 -1.2310  0.7166
 9949TIP3    H251339   0.808   4.649   3.244 -1.1850 -0.4004 -1.0628
 9950TIP3   OH251340   4.552   4.412   2.755 -0.4369  0.1715  0.2457
 9950TIP3    H151341   4.616   4.467   2.799 -0.6899  0.4970  0.2112
 9950TIP3    H251342   4.468   4.453   2.775 -0.5426  0.4264 -0.7039
 9951TIP3   OH251343   5.440   2.824   4.481 -0.3915  0.1825 -0.5168
 9951TIP3    H151344   5.442   2.768   4.559 -2.1047 -0.0562 -0.5937
 9951TIP3    H251345   5.515   2.797   4.429 -1.8687 -2.9885 -1.1868
 9952TIP3   OH251346   6.624   1.575  16.407 -0.7432  0.4244  0.1617
 9952TIP3    H151347   6.623   1.579  16.503  0.1573  1.8239  0.1300
 9952TIP3    H251348   6.552   1.632  16.380 -0.3102  0.8958 -0.0052
 9953TIP3   OH251349   3.670   1.218   4.336  0.4670 -0.0975  0.2174
 9953TIP3    H151350   3.757   1.210   4.374  0.3346 -0.7601  0.4162
 9953TIP3    H251351   3.613   1.237   4.411  0.6487  1.9992 -0.1395
 9954TIP3   OH251352   1.845   2.571   1.492  0.4542  0.2906 -0.2883
 9954TIP3    H151353   1.937   2.595   1.489  0.7654 -0.4657  1.6884
 9954TIP3    H251354   1.825   2.561   1.586 -1.2117 -1.0986 -0.7268
 9955TIP3   OH251355   6.244   1.160  16.767  0.4836  0.3551 -0.4782
 9955TIP3    H151356   6.231   1.235  16.709  0.4601 -0.2707 -1.3165
 9955TIP3    H251357   6.339   1.145  16.765  0.4538  0.1781 -0.5537
 9956TIP3   OH251358   6.745   6.250   3.249 -0.4223  0.0611  0.4693
 9956TIP3    H151359   6.800   6.176   3.223 -2.3408 -1.1947 -0.2298
 9956TIP3    H251360   6.718   6.290   3.166  0.7057  1.6775  0.8416
 9957TIP3   OH251361   4.101   6.712  15.175  0.5342 -0.5041  0.4256
 9957TIP3    H151362   4.182   6.687  15.220  2.0929  2.4745 -0.4977
 9957TIP3    H251363   4.125   6.714  15.082 -0.0012  2.1709  0.2725
 9958TIP3   OH251364   3.624   5.344  14.495  0.6275 -0.1724  0.0586
 9958TIP3    H151365   3.557   5.284  14.527 -0.8043  1.8312  0.9851
 9958TIP3    H251366   3.697   5.287  14.470  0.2269 -2.1841  2.9762
 9959TIP3   OH251367   2.882   0.068   0.082  0.2157  0.1216 -0.0622
 9959TIP3    H151368   2.901   0.160   0.064 -1.1516  1.0350  2.6357
 9959TIP3    H251369   2.804   0.069   0.137  0.5557 -2.6153  0.6524
 9960TIP3   OH251370   0.170   0.756   1.549 -0.0512  0.6761  0.3949
 9960TIP3    H151371   0.187   0.816   1.477  1.5546  0.4667  0.5615
 9960TIP3    H251372   0.079   0.772   1.572 -0.0735  2.0390 -0.4958
 9961TIP3   OH251373   0.759   4.576   2.047  0.3714 -0.0643 -0.5853
 9961TIP3    H151374   0.829   4.627   2.006  1.6570  0.3941  1.9787
 9961TIP3    H251375   0.678   4.614   2.012  1.3498  0.5062 -2.3549
 9962TIP3   OH251376   3.963   6.770  10.450  0.4318  0.0919 -0.3556
 9962TIP3    H151377   3.908   6.782  10.528  0.5908 -1.6768  0.0668
 9962TIP3    H251378   3.999   6.857  10.433 -0.4245  0.7343  0.9302
 9963TIP3   OH251379   0.434   2.305  12.043  0.3856 -0.4185 -0.1283
 9963TIP3    H151380   0.354   2.357  12.049 -0.5125 -1.6768 -0.7391
 9963TIP3    H251381   0.488   2.352  11.980  0.2457  0.5565  0.4432
 9964TIP3   OH251382   4.304   0.262  13.964 -0.5873  0.4845 -0.7905
 9964TIP3    H151383   4.278   0.331  14.026 -0.0600  1.8319 -2.0150
 9964TIP3    H251384   4.399   0.258  13.971 -0.2727  2.1283 -2.9035
 9965TIP3   OH251385   2.114   3.083  16.288  0.1232 -0.8521  0.2238
 9965TIP3    H151386   2.051   3.088  16.216 -1.4660  3.0557  1.5953
 9965TIP3    H251387   2.189   3.134  16.257 -0.6316  0.9815  1.2218
 9966TIP3   OH251388   4.438   1.764   0.401 -0.4225  0.2486 -0.3217
 9966TIP3    H151389   4.455   1.834   0.465  3.5550  0.1820 -1.0457
 9966TIP3    H251390   4.402   1.810   0.325  1.3071  1.5120 -0.4565
 9967TIP3   OH251391   0.155   4.810  15.354  0.1621  0.2642 -0.8387
 9967TIP3    H151392   0.239   4.801  15.310  0.3160 -0.6518 -0.3956
 9967TIP3    H251393   0.091   4.777  15.291  0.0643  1.4161 -1.3632
 9968TIP3   OH251394   1.509   0.202  12.236  0.2835  0.0243  0.0788
 9968TIP3    H151395   1.441   0.183  12.172  0.1961 -0.5118  0.3243
 9968TIP3    H251396   1.585   0.153  12.205  0.1039 -0.6209  0.6331
 9969TIP3   OH251397   5.987   2.609  13.775 -0.1873  0.1889  0.0310
 9969TIP3    H151398   5.990   2.687  13.721  0.5575  0.3983  0.3595
 9969TIP3    H251399   5.915   2.557  13.739 -0.2441  0.7089 -0.6194
 9970TIP3   OH251400   2.464   6.751  15.718 -0.2598 -0.0013  0.5135
 9970TIP3    H151401   2.472   6.749  15.623 -1.2076  0.4630  0.4036
 9970TIP3    H251402   2.490   6.840  15.742  0.0101 -0.1282  0.6886
 9971TIP3   OH251403   0.155   3.544  13.480 -1.2208 -0.2468  0.3949
 9971TIP3    H151404   0.102   3.533  13.401 -1.1271 -1.8733  0.5273
 9971TIP3    H251405   0.165   3.456  13.514  0.8156  0.1271  0.8821
 9972TIP3   OH251406   6.197   0.144  15.746 -0.0566  0.2581 -0.0731
 9972TIP3    H151407   6.149   0.063  15.725 -0.9982  0.7723  0.0357
 9972TIP3    H251408   6.219   0.135  15.838  0.8279 -0.3604 -0.3305
 9973TIP3   OH251409   0.025   3.779   3.719  0.9599  0.5121  0.0527
 9973TIP3    H151410  -0.012   3.811   3.801  2.0805 -0.3793  0.9537
 9973TIP3    H251411   0.007   3.685   3.719  2.0502  0.2851 -0.0980
 9974TIP3   OH251412   0.140   3.214  16.717  0.3374 -0.0551 -0.4621
 9974TIP3    H151413   0.074   3.145  16.711 -0.1642  0.4857 -1.3815
 9974TIP3    H251414   0.162   3.234  16.626  1.7212 -0.1693 -0.1743
 9975TIP3   OH251415   2.791   3.839  12.347 -0.5516 -0.2631  0.2913
 9975TIP3    H151416   2.704   3.837  12.308 -0.5628  2.1277  0.0065
 9975TIP3    H251417   2.851   3.837  12.272 -0.3333 -1.8746  0.4846
 9976TIP3   OH251418   1.435   4.987  16.900 -0.0700 -0.6657 -0.1110
 9976TIP3    H151419   1.349   5.023  16.920 -0.2255 -0.7122 -0.6586
 9976TIP3    H251420   1.493   5.023  16.967 -0.2457  0.4911 -0.5553
 9977TIP3   OH251421   3.677   5.598   3.882  0.2744 -0.1821 -0.5048
 9977TIP3    H151422   3.601   5.610   3.825  0.0003 -0.6421 -0.2338
 9977TIP3    H251423   3.697   5.505   3.876  0.8164 -0.0638 -0.5705
 9978TIP3   OH251424   2.579   4.300  13.804  0.2680  0.3403 -0.3120
 9978TIP3    H151425   2.625   4.305  13.721  1.4216  1.5466  0.3723
 9978TIP3    H251426   2.608   4.218  13.843  0.7189  0.3935 -0.5351
 9979TIP3   OH251427   2.049   5.608   1.023 -0.0886 -0.1428  0.3250
 9979TIP3    H151428   2.096   5.527   1.044 -0.5696 -0.7887 -1.0008
 9979TIP3    H251429   2.007   5.591   0.939  1.0940  2.0311 -0.7989
 9980TIP3   OH251430   3.831   4.964   6.190  0.4785  0.2594  0.0983
 9980TIP3    H151431   3.803   5.052   6.214  1.0135  0.2947  0.6219
 9980TIP3    H251432   3.769   4.906   6.236  3.4865  0.1820  4.7738
 9981TIP3   OH251433   1.096   3.337   3.540 -0.2869 -0.2602  0.2830
 9981TIP3    H151434   1.023   3.310   3.596  0.3205 -0.0811  1.1779
 9981TIP3    H251435   1.116   3.426   3.570 -0.2317  0.0041 -0.5189
 9982TIP3   OH251436   5.609   0.212   5.591 -0.1814 -0.2968 -0.0133
 9982TIP3    H151437   5.557   0.133   5.609  1.1917 -1.1845  0.2169
 9982TIP3    H251438   5.694   0.194   5.631  0.1442  1.3409  0.0941
 9983TIP3   OH251439   5.838   2.361   4.800  0.4123 -0.0240  0.1699
 9983TIP3    H151440   5.794   2.436   4.840  1.4806 -0.0965  1.5726
 9983TIP3    H251441   5.930   2.387   4.794  0.7697 -1.1308  0.5193
 9984TIP3   OH251442   0.825   0.703  12.052  0.2035 -0.5121  0.0381
 9984TIP3    H151443   0.739   0.669  12.078 -0.8626  1.5316 -0.5951
 9984TIP3    H251444   0.875   0.705  12.134 -1.0136  0.0177  0.8061
 9985TIP3   OH251445   0.786   4.047   0.285  0.9044  0.0278 -0.3654
 9985TIP3    H151446   0.810   4.047   0.378  2.2910  0.5418 -0.6993
 9985TIP3    H251447   0.830   3.971   0.248 -0.1433 -0.5366 -0.5145
 9986TIP3   OH251448   6.076   1.073  15.672 -0.1729  0.6372  0.1097
 9986TIP3    H151449   6.127   1.024  15.607  1.3445 -1.5786  2.7671
 9986TIP3    H251450   5.985   1.056  15.648  0.3348 -1.3990 -0.6290
 9987TIP3   OH251451   2.944   4.136   1.594  0.1279  0.2893  0.5028
 9987TIP3    H151452   2.885   4.156   1.522  0.3958 -0.6037  0.0265
 9987TIP3    H251453   3.026   4.110   1.553  0.2269 -0.4192  1.1110
 9988TIP3   OH251454   2.471   3.964   2.383 -0.2029  0.3274  0.3010
 9988TIP3    H151455   2.389   3.931   2.346  1.3825 -1.7965 -1.6121
 9988TIP3    H251456   2.484   4.049   2.340 -0.3631 -0.3097 -1.0559
 9989TIP3   OH251457   6.116   0.160  11.352  0.0298  0.2933  0.2517
 9989TIP3    H151458   6.200   0.171  11.396  0.3466  2.8913 -0.8633
 9989TIP3    H251459   6.089   0.248  11.328 -1.6265 -0.7195 -1.9913
 9990TIP3   OH251460   6.141   6.108  14.643 -0.1223 -0.4639 -0.4327
 9990TIP3    H151461   6.082   6.038  14.617 -1.4892  0.9493 -1.3814
 9990TIP3    H251462   6.156   6.157  14.562 -0.1690  0.9930  0.3997
 9991TIP3   OH251463   3.103   0.730  13.120  0.1554 -0.5930 -0.0450
 9991TIP3    H151464   3.184   0.679  13.129 -0.1655 -1.0742  0.1455
 9991TIP3    H251465   3.054   0.711  13.200 -0.3420 -0.6473 -0.3629
 9992TIP3   OH251466   6.583   0.671   5.800 -0.5015 -0.1754  0.3060
 9992TIP3    H151467   6.666   0.705   5.766 -0.8156  0.3363  0.0453
 9992TIP3    H251468   6.543   0.746   5.844 -1.8058  0.1721 -1.3808
 9993TIP3   OH251469   0.754   0.634   1.223  0.4298  0.2058 -0.2877
 9993TIP3    H151470   0.839   0.602   1.193  1.4506  1.0908  1.4685
 9993TIP3    H251471   0.744   0.595   1.310 -0.8838  0.2871 -0.3816
 9994TIP3   OH251472   4.501   2.062   4.466  0.6808 -0.0767  0.0658
 9994TIP3    H151473   4.569   2.104   4.518 -0.7495  1.1783  1.0059
 9994TIP3    H251474   4.548   2.025   4.391  2.3628  0.8663  0.5928
 9995TIP3   OH251475   6.323   6.011   2.353  0.0172  0.0539  1.0509
 9995TIP3    H151476   6.399   5.969   2.392 -0.5787 -1.4263  0.6962
 9995TIP3    H251477   6.250   5.951   2.373 -1.1887  1.7561  1.9855
 9996TIP3   OH251478   2.980   2.477  10.704 -0.0214  0.4718  0.1831
 9996TIP3    H151479   2.926   2.550  10.735 -0.6278  0.0167  0.2126
 9996TIP3    H251480   3.054   2.519  10.660 -1.4370  1.1216 -1.6876
 9997TIP3   OH251481   5.121   6.624  15.428 -0.5437  0.2710 -0.8231
 9997TIP3    H151482   5.037   6.583  15.451 -0.3962 -1.2254 -2.7561
 9997TIP3    H251483   5.153   6.574  15.353  2.2892  0.5769  0.0832
 9998TIP3   OH251484   1.279   0.645  14.328 -0.1774 -0.3394  0.4376
 9998TIP3    H151485   1.191   0.679  14.346  0.5772  2.0126  0.0676
 9998TIP3    H251486   1.283   0.637  14.233  0.6025  1.5288  0.2634
 9999TIP3   OH251487   6.403   6.485  15.781 -0.7049 -0.1334  0.0181
 9999TIP3    H151488   6.393   6.391  15.795 -0.1618 -0.5373 -2.0058
 9999TIP3    H251489   6.463   6.492  15.707 -0.3900  1.8246  0.4079
10000TIP3   OH251490   6.783   0.453   2.154 -0.1438 -0.2835  0.3827
10000TIP3    H151491   6.744   0.368   2.134  0.3541 -0.0121 -2.1244
10000TIP3    H251492   6.876   0.442   2.137 -0.1399  0.8730 -0.4927
10001TIP3   OH251493   3.823   2.061  15.514  0.5386 -0.4745 -0.1395
10001TIP3    H151494   3.771   1.989  15.480 -0.5922 -0.1531  0.8465
10001TIP3    H251495   3.873   2.092  15.439  0.6815 -1.9608 -0.6885
10002TIP3   OH251496   0.442   6.070  13.329  1.2041  0.0651 -0.3701
10002TIP3    H151497   0.404   6.074  13.417 -0.2512 -2.1959 -0.8132
10002TIP3    H251498   0.507   6.141  13.328  1.2622  0.1861  2.4972
10003TIP3   OH251499   4.001   2.753  12.217 -0.1408 -0.2585 -0.0263
10003TIP3    H151500   4.039   2.677  12.260 -0.3183 -0.6201 -0.4980
10003TIP3    H251501   4.014   2.737  12.123  0.8558  0.8456 -0.0951
10004TIP3   OH251502   0.264   2.763  14.724  0.6707  0.3361 -0.7693
10004TIP3    H151503   0.290   2.731  14.811 -2.6854  0.5136  0.4386
10004TIP3    H251504   0.281   2.689  14.666  1.6435 -0.2918  0.2548
10005TIP3   OH251505   0.399   4.780  13.810 -0.4100  0.2215 -0.2013
10005TIP3    H151506   0.483   4.765  13.854 -0.7963  0.3555  0.5921
10005TIP3    H251507   0.423   4.805  13.721  0.3748 -0.3654 -0.1647
10006TIP3   OH251508   3.708   5.428   5.678 -0.9771  0.4864  0.0416
10006TIP3    H151509   3.709   5.520   5.707  4.1223  0.1245  2.1491
10006TIP3    H251510   3.675   5.380   5.753  0.6165  0.4063  0.7388
10007TIP3   OH251511   3.598   1.079   2.262  0.9443 -0.4766  0.7426
10007TIP3    H151512   3.549   1.033   2.329  0.3256 -0.1391  0.5315
10007TIP3    H251513   3.688   1.079   2.294  0.6873 -0.4696  1.4848
10008TIP3   OH251514   5.944   0.304   2.689  0.6504  0.0687  0.0115
10008TIP3    H151515   6.005   0.317   2.762 -0.1023 -3.8051  1.5861
10008TIP3    H251516   5.860   0.335   2.722  0.8400  1.0789 -0.4079
10009TIP3   OH251517   2.936   4.915  12.528 -0.4564 -0.5828  0.7227
10009TIP3    H151518   2.856   4.915  12.581 -1.9856 -1.6177 -1.4313
10009TIP3    H251519   2.946   5.006  12.500 -0.5126 -0.3228  1.5240
10010TIP3   OH251520   3.058   3.708   6.082  0.1969  0.6886 -0.3998
10010TIP3    H151521   2.993   3.770   6.115 -1.1975  0.2414 -2.1164
10010TIP3    H251522   3.116   3.691   6.156 -1.3968  1.4373  1.0769
10011TIP3   OH251523   6.657   6.333  14.677  0.0855 -0.4808 -0.7513
10011TIP3    H151524   6.579   6.316  14.624  0.4340 -1.9818 -0.8185
10011TIP3    H251525   6.682   6.248  14.711  1.6980 -0.0281 -0.7154
10012TIP3   OH251526   2.369   6.217   4.373 -0.4155  0.2719 -0.5564
10012TIP3    H151527   2.298   6.279   4.352  0.7084  1.6288 -0.4842
10012TIP3    H251528   2.447   6.257   4.337  0.5185 -0.6197  0.4062
10013TIP3   OH251529   6.058   4.599   1.180  0.6159  0.4814 -0.1190
10013TIP3    H151530   6.111   4.675   1.202  2.2631 -1.6079  4.4454
10013TIP3    H251531   6.121   4.532   1.154 -0.5158 -0.1583 -1.3091
10014TIP3   OH251532   6.804   0.354  15.266 -0.0461 -0.0797  0.2403
10014TIP3    H151533   6.743   0.420  15.234 -0.4407 -0.1263  0.8731
10014TIP3    H251534   6.830   0.385  15.352  0.7720 -0.1028  0.0075
10015TIP3   OH251535   0.248   3.235   1.735  0.3259 -0.2398 -0.0351
10015TIP3    H151536   0.281   3.322   1.759 -2.1523  0.9150 -0.5358
10015TIP3    H251537   0.256   3.231   1.640 -0.6031 -0.0592 -0.1346
10016TIP3   OH251538   3.141   4.700   4.156 -0.4612 -0.2416  0.1111
10016TIP3    H151539   3.204   4.704   4.083 -0.6552  0.6979 -0.0248
10016TIP3    H251540   3.168   4.772   4.214 -0.1611 -1.1239  1.1056
10017TIP3   OH251541   5.598   0.936   3.326 -0.2162  0.3555  0.7380
10017TIP3    H151542   5.640   0.874   3.267 -1.3572  0.4032 -0.1659
10017TIP3    H251543   5.515   0.958   3.283 -0.1658  1.9686  1.3674
10018TIP3   OH251544   6.570   5.281   0.205  0.8595  0.4494  0.0373
10018TIP3    H151545   6.585   5.247   0.117  1.1820 -0.2061  0.3364
10018TIP3    H251546   6.657   5.284   0.245  0.6352  0.0765  0.5679
10019TIP3   OH251547   6.302   1.447   0.948  0.0225 -0.0248  0.3529
10019TIP3    H151548   6.237   1.456   1.018 -0.2258  1.4731 -0.0406
10019TIP3    H251549   6.372   1.508   0.972 -0.3192  0.9317 -0.9428
10020TIP3   OH251550   3.793   1.089   1.821  0.7071  0.0361  0.0534
10020TIP3    H151551   3.790   1.029   1.895 -2.0115 -1.3766 -1.0674
10020TIP3    H251552   3.794   1.176   1.861  0.4885 -0.6919  1.7387
10021TIP3   OH251553   0.389   2.678  14.021  0.1915 -0.3240 -0.1837
10021TIP3    H151554   0.464   2.687  14.081 -1.0098 -1.3235  1.5495
10021TIP3    H251555   0.344   2.600  14.051 -2.4249  1.0972 -0.1671
10022TIP3   OH251556   1.093   5.886   0.723  0.4208  0.4011  0.1882
10022TIP3    H151557   1.009   5.878   0.679  1.2308 -2.1272 -1.0714
10022TIP3    H251558   1.138   5.957   0.678 -0.1487  0.2053 -0.6991
10023TIP3   OH251559   1.890   4.565   2.180 -0.1673  0.0148 -0.4187
10023TIP3    H151560   1.823   4.632   2.191 -0.7162 -0.7623  1.3450
10023TIP3    H251561   1.878   4.506   2.255  2.7843  0.1078  0.2526
10024TIP3   OH251562   6.465   1.444  12.891  0.2370 -0.5741 -0.1327
10024TIP3    H151563   6.487   1.411  12.804  0.6534  1.8532 -1.0183
10024TIP3    H251564   6.538   1.418  12.946  1.2818  0.1386 -1.1426
10025TIP3   OH251565   4.536   6.364   5.298  0.2719  0.0975 -0.6401
10025TIP3    H151566   4.532   6.270   5.311  1.9105  0.2806  1.7588
10025TIP3    H251567   4.464   6.383   5.237 -0.5689 -2.5594 -0.5957
10026TIP3   OH251568   2.527   6.115  14.467  0.4599  0.0716 -0.6722
10026TIP3    H151569   2.611   6.071  14.484  0.5282  0.8740  1.3897
10026TIP3    H251570   2.543   6.169  14.390  1.1231 -1.5240 -1.7192
10027TIP3   OH251571   3.028   5.910  11.255 -0.1562  0.0411  0.3625
10027TIP3    H151572   3.067   5.935  11.339 -1.1910  0.7130  0.6561
10027TIP3    H251573   3.014   5.993  11.210  2.1326 -0.3816 -1.3195
10028TIP3   OH251574   1.231   5.769   0.363  0.3825 -0.5126 -0.3112
10028TIP3    H151575   1.322   5.746   0.379  0.8822  0.9033 -0.9535
10028TIP3    H251576   1.228   5.864   0.375 -0.9864 -0.5180 -0.4394
10029TIP3   OH251577   5.451   4.634   3.034  0.0163 -0.0711  0.0172
10029TIP3    H151578   5.503   4.715   3.028 -0.3269  0.1208 -0.5005
10029TIP3    H251579   5.460   4.606   3.125 -0.1590  0.7595  0.3032
10030TIP3   OH251580   6.319   1.125  11.846 -0.1484 -0.1130  0.4408
10030TIP3    H151581   6.344   1.136  11.754  1.3560 -0.5197  0.7631
10030TIP3    H251582   6.273   1.041  11.849 -1.1343  0.3935 -0.0922
10031TIP3   OH251583   0.616   6.696  14.409 -0.2725  0.2234  0.6761
10031TIP3    H151584   0.629   6.688  14.315 -1.3478  2.3915  0.2938
10031TIP3    H251585   0.704   6.689  14.446  0.2990  0.4816 -0.5898
10032TIP3   OH251586   2.986   5.682   3.027 -0.5305  0.5763 -0.4478
10032TIP3    H151587   2.977   5.654   3.119  0.5334  1.1486 -0.1499
10032TIP3    H251588   2.920   5.750   3.016 -0.2819  0.9102  0.0719
10033TIP3   OH251589   5.694   1.320   5.051  0.0662 -0.3705 -0.6741
10033TIP3    H151590   5.702   1.336   4.957 -0.4286 -0.2472 -0.6963
10033TIP3    H251591   5.702   1.407   5.091 -0.5505 -0.3212 -0.6573
10034TIP3   OH251592   0.630   6.630  14.130  0.0834 -0.4792 -0.0685
10034TIP3    H151593   0.676   6.551  14.102 -0.2607 -1.0080  0.8420
10034TIP3    H251594   0.700   6.688  14.162  0.2333 -0.8542  0.2976
10035TIP3   OH251595   6.059   1.696   5.874  0.3839  0.2042 -0.3407
10035TIP3    H151596   6.042   1.756   5.946  0.4054 -1.5284  1.1655
10035TIP3    H251597   6.142   1.654   5.897  0.8038  0.1730 -1.7873
10036TIP3   OH251598   0.440   0.187  10.730  0.2087 -0.1185  0.0705
10036TIP3    H151599   0.463   0.186  10.637 -0.4640 -2.8224 -0.1455
10036TIP3    H251600   0.487   0.112  10.767 -0.0400  0.5330  1.8066
10037TIP3   OH251601   1.170   4.303   5.517 -0.6946 -0.0710 -0.2643
10037TIP3    H151602   1.222   4.379   5.490 -1.7772  0.3908 -1.1517
10037TIP3    H251603   1.138   4.266   5.435 -0.6255 -1.1858  0.1941
10038TIP3   OH251604   5.542   0.307   0.375 -0.2929 -0.0858  0.2389
10038TIP3    H151605   5.497   0.251   0.437  1.2145 -2.3471 -0.5831
10038TIP3    H251606   5.623   0.332   0.420  0.2849 -0.8113 -0.3777
10039TIP3   OH251607   1.412   3.230  16.418  0.0538 -0.4347 -0.2071
10039TIP3    H151608   1.386   3.323  16.423  0.2564 -0.3791 -0.1934
10039TIP3    H251609   1.348   3.191  16.359 -0.1014 -0.3090 -0.1249
10040TIP3   OH251610   0.550   0.809   1.187  0.0671  0.0429  0.6968
10040TIP3    H151611   0.611   0.738   1.211 -1.0574 -0.6991  1.4526
10040TIP3    H251612   0.586   0.887   1.228 -0.3923 -0.7163  2.6392
10041TIP3   OH251613   6.352   0.986   0.856  0.0073 -0.8121 -0.3435
10041TIP3    H151614   6.303   1.066   0.840  0.5591 -0.3495  0.2231
10041TIP3    H251615   6.349   0.975   0.951 -1.2997 -2.2690 -0.5099
10042TIP3   OH251616   4.932   3.298  11.455  0.0667 -0.6309 -0.0419
10042TIP3    H151617   4.928   3.332  11.366 -0.7715 -0.4324  0.0613
10042TIP3    H251618   4.974   3.368  11.505 -0.0752 -0.4665 -0.1524
10043TIP3   OH251619   0.839   6.196  15.466  0.2696  0.6589  0.0470
10043TIP3    H151620   0.749   6.227  15.458 -0.5654 -1.2142  1.5704
10043TIP3    H251621   0.834   6.118  15.521  2.8866  0.7536  0.5881
10044TIP3   OH251622   4.334   2.863   1.201 -0.2836 -0.1728  0.5564
10044TIP3    H151623   4.384   2.909   1.134 -1.1418  1.9511  1.2499
10044TIP3    H251624   4.390   2.792   1.230  1.0771  0.3375 -0.7327
10045TIP3   OH251625   5.106   5.099   5.919  0.6825  0.6662 -0.3881
10045TIP3    H151626   5.021   5.130   5.886 -0.2153  0.0485  1.1955
10045TIP3    H251627   5.099   5.003   5.916  1.4855  0.6121 -0.6281
10046TIP3   OH251628   6.648   0.513  16.558 -0.2951 -0.4716  0.5295
10046TIP3    H151629   6.736   0.478  16.542 -0.2523 -0.5631  0.9327
10046TIP3    H251630   6.638   0.508  16.653 -0.9496 -0.9836  0.4423
10047TIP3   OH251631   1.720   4.772   2.314  0.5498  0.0827  0.4428
10047TIP3    H151632   1.762   4.851   2.347 -1.1108  1.5008 -0.6739
10047TIP3    H251633   1.647   4.803   2.260 -1.1936 -2.2050  1.2768
10048TIP3   OH251634   0.025   6.339   3.445  0.3258  0.4027 -0.4829
10048TIP3    H151635   0.039   6.428   3.413  0.2923  0.7379  0.4133
10048TIP3    H251636  -0.041   6.302   3.385 -1.4209  1.7875  0.5139
10049TIP3   OH251637   0.615   4.161   3.978  0.3187  0.4159  0.4003
10049TIP3    H151638   0.628   4.089   4.039  0.3942  0.4388  0.4126
10049TIP3    H251639   0.630   4.240   4.031 -1.1012  0.4969  0.7205
10050TIP3   OH251640   3.616   0.333   4.158  0.2728 -0.3447  0.1440
10050TIP3    H151641   3.600   0.251   4.205  0.9048 -0.5291  0.0360
10050TIP3    H251642   3.616   0.308   4.066  0.3779 -0.2024  0.1069
10051TIP3   OH251643   3.117   2.853   3.940 -0.2773 -0.3268  0.3896
10051TIP3    H151644   3.164   2.861   4.023  2.6596 -0.4108 -1.1485
10051TIP3    H251645   3.117   2.941   3.904 -0.7969 -0.4531  0.0683
10052TIP3   OH251646   5.019   4.792  12.727  0.4265 -0.3831 -1.2596
10052TIP3    H151647   4.996   4.879  12.696 -1.8872 -0.2734  0.5068
10052TIP3    H251648   4.992   4.733  12.656 -2.4800  0.0416 -0.6337
10053TIP3   OH251649   0.410   0.940   1.722  0.2496  0.5714  0.5144
10053TIP3    H151650   0.450   1.013   1.769  0.0442  0.2399  1.2153
10053TIP3    H251651   0.473   0.869   1.731 -0.4811  0.0385  1.6386
10054TIP3   OH251652   1.244   0.169  15.163  0.1755 -0.0164 -0.3342
10054TIP3    H151653   1.149   0.178  15.151  0.1241 -0.4287 -0.2540
10054TIP3    H251654   1.279   0.173  15.074  0.1705  1.0713 -0.2925
10055TIP3   OH251655   6.851   6.490  13.909 -0.6268  0.0609 -0.7898
10055TIP3    H151656   6.787   6.531  13.968 -1.7230 -0.0893 -1.8482
10055TIP3    H251657   6.878   6.411  13.955  0.8973  1.4753  0.9115
10056TIP3   OH251658   2.373   6.670   1.629 -0.0376 -0.5237 -0.3016
10056TIP3    H151659   2.358   6.681   1.536 -1.6615  0.6428  0.0534
10056TIP3    H251660   2.318   6.737   1.670  1.0854 -0.6231  1.4673
10057TIP3   OH251661   0.240   5.735  14.563  0.2034 -0.3642  0.3192
10057TIP3    H151662   0.304   5.800  14.534  1.2652 -2.0009 -1.2425
10057TIP3    H251663   0.225   5.680  14.485 -0.6170 -1.9805  1.5645
10058TIP3   OH251664   1.392   4.109   5.854 -0.1630  0.1445  0.1948
10058TIP3    H151665   1.304   4.105   5.816 -0.1115  0.3296  0.0522
10058TIP3    H251666   1.425   4.195   5.828  0.4453 -0.3218 -0.6103
10059TIP3   OH251667   6.523   4.239   5.895  0.6712  0.0101  0.4262
10059TIP3    H151668   6.493   4.194   5.974 -1.2239 -0.1925 -0.3647
10059TIP3    H251669   6.492   4.329   5.906  0.5174  0.0146 -0.0191
10060TIP3   OH251670   0.411   1.395   1.691 -0.1743  0.0622  0.4421
10060TIP3    H151671   0.433   1.313   1.735 -0.7303 -1.4133 -1.8335
10060TIP3    H251672   0.489   1.417   1.640 -1.0843 -0.8887 -1.4762
10061TIP3   OH251673   3.209   1.036  12.386 -0.0280  0.1611 -0.3040
10061TIP3    H151674   3.278   1.027  12.320  0.5372  0.7102  0.2024
10061TIP3    H251675   3.142   0.973  12.359  0.5359 -0.1699 -0.9691
10062TIP3   OH251676   3.905   3.281   3.881 -1.0730  0.1109  0.6673
10062TIP3    H151677   3.887   3.274   3.788  0.1377  0.2184  0.4065
10062TIP3    H251678   3.974   3.217   3.898 -1.0886  0.2804  1.4281
10063TIP3   OH251679   2.882   5.598  11.916  0.2317  0.4742 -0.2945
10063TIP3    H151680   2.866   5.529  11.981 -0.3707 -0.6808 -1.5901
10063TIP3    H251681   2.965   5.574  11.875 -0.8862 -0.6523 -2.0635
10064TIP3   OH251682   2.187   5.456   0.270  1.0381  0.0336  0.0048
10064TIP3    H151683   2.252   5.416   0.329  1.3146 -1.5496 -1.3167
10064TIP3    H251684   2.105   5.452   0.320  1.8791  2.1405  1.7336
10065TIP3   OH251685   3.674   1.508  14.504  0.6315  0.1461  0.0475
10065TIP3    H151686   3.750   1.452  14.490  0.2448 -0.8722  1.7082
10065TIP3    H251687   3.712   1.592  14.532  1.1755 -0.0854  0.0185
10066TIP3   OH251688   2.736   3.606  13.141 -0.9829  0.2244  0.2088
10066TIP3    H151689   2.675   3.546  13.097  0.1891 -2.2265  1.6786
10066TIP3    H251690   2.822   3.582  13.106 -0.5239  1.3843  0.5201
10067TIP3   OH251691   5.216   6.052   3.382 -0.1576  0.4114  0.5208
10067TIP3    H151692   5.257   6.133   3.352 -1.6019 -0.0399 -3.2107
10067TIP3    H251693   5.286   5.987   3.379  0.0828  0.7009 -0.6650
10068TIP3   OH251694   3.459   1.222   4.121  0.6639  0.4334 -0.2691
10068TIP3    H151695   3.501   1.145   4.158 -0.4111 -0.1752 -0.2766
10068TIP3    H251696   3.383   1.237   4.176  0.3870  0.9731 -0.7859
10069TIP3   OH251697   2.093   5.308  14.199  0.4097 -0.6426  0.5245
10069TIP3    H151698   2.085   5.216  14.176  0.5784 -0.9188  1.5337
10069TIP3    H251699   2.003   5.339  14.208  0.2648 -0.1168 -1.9470
10070TIP3   OH251700   4.199   5.013   1.925 -0.3547 -0.0133  0.4113
10070TIP3    H151701   4.214   4.940   1.865  2.2697  0.8972 -0.1763
10070TIP3    H251702   4.129   4.983   1.983 -2.1805 -1.4074 -2.2971
10071TIP3   OH251703   3.926   4.967  12.321  0.2977  0.2877 -0.3417
10071TIP3    H151704   3.863   5.032  12.292  1.9479  1.7983 -0.7417
10071TIP3    H251705   3.963   4.931  12.240 -0.6926 -1.3011 -0.1307
10072TIP3   OH251706   1.075   3.390  14.800  0.1330 -0.5479 -0.0641
10072TIP3    H151707   1.084   3.430  14.713 -2.9099  0.7220  0.0880
10072TIP3    H251708   1.034   3.305  14.783 -0.6583 -0.2096  0.1134
10073TIP3   OH251709   3.352   1.214  14.329 -0.0204  0.1584 -0.2082
10073TIP3    H151710   3.268   1.237  14.370  0.1343  0.1230  0.1378
10073TIP3    H251711   3.363   1.279  14.260 -0.2732  0.2421 -0.1737
10074TIP3   OH251712   6.278   6.438   4.146  0.3021  0.0380 -0.3451
10074TIP3    H151713   6.263   6.346   4.169 -1.4514  0.3511 -0.0768
10074TIP3    H251714   6.303   6.479   4.228  1.1537 -0.2010 -0.4782
10075TIP3   OH251715   2.633   2.644   2.124  0.3616  0.0460  0.3624
10075TIP3    H151716   2.675   2.681   2.047 -0.8993  0.5998 -0.0740
10075TIP3    H251717   2.657   2.704   2.195  0.6564  0.1223  0.1990
10076TIP3   OH251718   0.954   0.251  12.626 -0.1400 -0.1754  0.2355
10076TIP3    H151719   1.047   0.243  12.605 -0.4678  1.2291 -2.2272
10076TIP3    H251720   0.933   0.173  12.677  1.9755 -1.5059 -0.8002
10077TIP3   OH251721   4.288   2.046   0.017 -0.0142 -0.6313 -0.0530
10077TIP3    H151722   4.286   2.029   0.111  0.2278 -0.1847  0.0390
10077TIP3    H251723   4.232   1.979  -0.022 -0.3279 -0.6518  0.4339
10078TIP3   OH251724   5.339   0.433   0.236  0.3239 -0.4160 -0.5346
10078TIP3    H151725   5.423   0.393   0.256  0.4057  0.1972  0.3941
10078TIP3    H251726   5.294   0.439   0.320 -1.2504 -2.0243 -1.2144
10079TIP3   OH251727   5.110   4.263  15.893 -0.3426  0.0105  0.0173
10079TIP3    H151728   5.155   4.212  15.961 -2.7218  0.6874  2.2636
10079TIP3    H251729   5.069   4.336  15.941 -3.2235 -0.1808 -1.8897
10080TIP3   OH251730   0.623   1.010   2.733  0.0379 -0.2931 -0.9159
10080TIP3    H151731   0.703   1.001   2.785  0.7591  1.8583 -1.5411
10080TIP3    H251732   0.603   0.921   2.704  1.0744 -1.1588  0.8749
10081TIP3   OH251733   2.594   4.063  16.921 -0.6227 -0.3756  0.1799
10081TIP3    H151734   2.683   4.081  16.952  0.7125 -1.9781 -2.3205
10081TIP3    H251735   2.537   4.101  16.987  1.9129  0.2572  2.1664
10082TIP3   OH251736   1.236   5.017   1.280  0.7025 -0.5910 -0.0755
10082TIP3    H151737   1.232   4.948   1.214 -2.3994 -0.8155  0.2043
10082TIP3    H251738   1.295   5.082   1.242 -0.3302 -1.0687 -2.7430
10083TIP3   OH251739   2.115   6.325   4.318 -1.3596  0.2992  0.0877
10083TIP3    H151740   2.074   6.325   4.405 -3.1416  0.6044 -0.7154
10083TIP3    H251741   2.081   6.405   4.276 -1.3249 -0.3619 -1.2423
10084TIP3   OH251742   5.271   2.980   2.878  0.0227 -0.5232 -0.1456
10084TIP3    H151743   5.206   3.024   2.823 -1.7446 -1.8033  0.8105
10084TIP3    H251744   5.255   2.887   2.864  2.2372 -0.9155 -0.4788
10085TIP3   OH251745   1.105   4.967   0.828  0.5218  0.6644  0.3017
10085TIP3    H151746   1.177   4.994   0.884  0.7819 -0.2821  0.4389
10085TIP3    H251747   1.077   4.883   0.863  0.3312  0.3119 -0.6633
10086TIP3   OH251748   0.492   5.902  11.522 -0.2250  0.4440  0.5817
10086TIP3    H151749   0.422   5.935  11.465 -0.0518  0.1237  0.1813
10086TIP3    H251750   0.489   5.807  11.512  1.0171  0.4791 -0.3487
10087TIP3   OH251751   1.082   1.332  13.282  0.0335 -0.3279 -0.1022
10087TIP3    H151752   1.148   1.264  13.298 -0.8062 -1.3317 -0.7831
10087TIP3    H251753   1.092   1.393  13.356  0.9640 -1.0585  0.3933
10088TIP3   OH251754   4.294   1.891  12.561  0.4459 -0.3422  0.7324
10088TIP3    H151755   4.344   1.840  12.497 -0.0031 -0.3572  0.3940
10088TIP3    H251756   4.349   1.890  12.640  1.5881  0.7271 -0.0164
10089TIP3   OH251757   6.094   3.100  12.343 -0.3514 -0.3766  0.0866
10089TIP3    H151758   6.006   3.068  12.366 -1.4414  3.0383  1.1816
10089TIP3    H251759   6.081   3.145  12.260  0.6084 -0.7528 -0.2684
10090TIP3   OH251760   2.602   4.218  11.581 -0.2083  0.2227 -0.8375
10090TIP3    H151761   2.669   4.170  11.630  0.2653  0.6934 -1.0158
10090TIP3    H251762   2.566   4.153  11.520 -1.5487 -0.6634  0.8263
10091TIP3   OH251763   4.197   2.850  16.593 -0.0031 -0.2664 -0.3192
10091TIP3    H151764   4.128   2.849  16.659 -1.8530 -0.7830 -2.1544
10091TIP3    H251765   4.220   2.757  16.581  1.6336 -0.0498  0.8322
10092TIP3   OH251766   4.613   2.313  13.505 -0.2130 -0.5421 -0.6412
10092TIP3    H151767   4.594   2.326  13.412  0.4412  0.9324 -0.5879
10092TIP3    H251768   4.677   2.381  13.526 -0.8180 -0.4543  1.0483
10093TIP3   OH251769   2.412   5.020   3.552  0.3652 -0.0632  0.6315
10093TIP3    H151770   2.322   4.988   3.550  0.3644 -0.0131 -0.3083
10093TIP3    H251771   2.407   5.104   3.599  0.1784 -0.7987  1.9927
10094TIP3   OH251772   5.543   4.788  11.178 -0.0592  0.0399 -0.4911
10094TIP3    H151773   5.600   4.839  11.236 -0.4705 -0.8585  0.7267
10094TIP3    H251774   5.551   4.832  11.093 -0.1205  1.9087  0.4268
10095TIP3   OH251775   0.776   1.619  14.148  0.1385  0.2354  0.3654
10095TIP3    H151776   0.683   1.609  14.166  0.5383 -1.0247  1.8823
10095TIP3    H251777   0.779   1.667  14.065 -1.9046 -2.4114 -1.4072
10096TIP3   OH251778   2.561   2.417   5.391 -0.4860  1.0755 -0.5201
10096TIP3    H151779   2.615   2.487   5.426 -2.7076  2.7303 -0.1818
10096TIP3    H251780   2.591   2.407   5.300  2.1961 -0.0561  0.4007
10097TIP3   OH251781   3.138   4.315   6.136 -0.4743  0.0974 -0.0171
10097TIP3    H151782   3.189   4.295   6.058  0.3704  0.6603  0.3642
10097TIP3    H251783   3.104   4.231   6.165  0.0730 -0.2655 -0.4089
10098TIP3   OH251784   2.873   6.234  15.632 -0.0896  0.2010 -0.4902
10098TIP3    H151785   2.874   6.302  15.565 -1.2248  1.7321  0.9369
10098TIP3    H251786   2.789   6.190  15.621  0.2331 -0.3435 -0.8096
10099TIP3   OH251787   4.497   3.049  14.107 -0.1656  0.3393 -0.9533
10099TIP3    H151788   4.419   3.005  14.074  0.0284 -0.5495 -0.2787
10099TIP3    H251789   4.513   3.121  14.046 -1.8019  0.8491 -0.8061
10100TIP3   OH251790   1.094   3.552   1.776 -0.0947 -0.0540 -0.2583
10100TIP3    H151791   1.069   3.471   1.730 -0.6486 -0.9519  1.5521
10100TIP3    H251792   1.188   3.544   1.790 -0.3351 -0.9535  0.9377
10101TIP3   OH251793   1.989   1.154   1.561 -0.1049  0.8434  0.1057
10101TIP3    H151794   2.012   1.246   1.571  1.8212  0.2817  1.3047
10101TIP3    H251795   1.966   1.125   1.649  1.7126 -0.3851  0.2310
10102TIP3   OH251796   5.066   4.538  13.737  0.5227 -0.1979 -0.0801
10102TIP3    H151797   5.017   4.461  13.708  0.5169  0.1091 -0.9091
10102TIP3    H251798   5.092   4.582  13.656 -0.7489  1.4994  0.3724
10103TIP3   OH251799   3.236   1.124  15.017 -0.0369 -0.4688  0.2205
10103TIP3    H151800   3.165   1.065  14.990 -0.9141  0.2657  0.8615
10103TIP3    H251801   3.191   1.200  15.053  1.0747  0.9296 -1.2458
10104TIP3   OH251802   3.270   4.835   3.246 -0.1538 -0.2564  0.7048
10104TIP3    H151803   3.335   4.857   3.313  0.6792 -1.9622  0.5169
10104TIP3    H251804   3.223   4.760   3.283  1.2707 -2.1613 -1.1364
10105TIP3   OH251805   5.830   5.204  13.921 -0.2715  0.0589  0.0796
10105TIP3    H151806   5.871   5.125  13.887 -1.3852  0.5782 -2.7405
10105TIP3    H251807   5.738   5.197  13.895 -0.4035  2.2678 -0.3065
10106TIP3   OH251808   4.665   0.620  12.058  0.3227 -0.3374 -0.3203
10106TIP3    H151809   4.597   0.581  12.114  0.4873  0.1281  0.2171
10106TIP3    H251810   4.722   0.667  12.119 -1.1546  2.7486 -1.0985
10107TIP3   OH251811   3.710   1.274  15.893 -0.5976 -0.1053  0.1189
10107TIP3    H151812   3.653   1.332  15.944  1.6425  2.2671  0.1440
10107TIP3    H251813   3.696   1.300  15.802 -1.4755 -1.3925 -0.1382
10108TIP3   OH251814   5.887   2.018   4.388 -0.4681 -0.0423 -0.0122
10108TIP3    H151815   5.880   2.055   4.477  0.3858  1.7248 -0.6325
10108TIP3    H251816   5.809   1.964   4.379 -1.4883  1.1433  1.2169
10109TIP3   OH251817   0.666   0.117   2.763 -0.0085  0.5004 -0.2069
10109TIP3    H151818   0.640   0.152   2.678 -0.3937 -1.0884 -0.7797
10109TIP3    H251819   0.676   0.023   2.748  2.6622  0.5480  0.8531
10110TIP3   OH251820   3.459   2.156  15.738 -0.3219  0.2105 -0.2598
10110TIP3    H151821   3.414   2.130  15.657  0.0436  1.7132 -0.9919
10110TIP3    H251822   3.516   2.228  15.711 -1.9885  2.4208  1.7969
10111TIP3   OH251823   0.653   3.714  14.507 -0.3541 -0.4360  0.0270
10111TIP3    H151824   0.675   3.645  14.570 -1.4476  0.5956  1.5978
10111TIP3    H251825   0.565   3.692  14.477 -1.2095  0.8707  1.4526
10112TIP3   OH251826   0.738   5.810  15.932  0.1784  0.0623  0.3646
10112TIP3    H151827   0.707   5.853  16.012  1.6808  0.2076  0.9049
10112TIP3    H251828   0.791   5.737  15.964  0.6522  0.0166 -0.5014
10113TIP3   OH251829   0.707   1.403   3.966 -0.5444  0.0213  0.2670
10113TIP3    H151830   0.743   1.425   4.052 -0.7637 -1.4940  0.7919
10113TIP3    H251831   0.783   1.392   3.910 -0.2761 -1.0224  0.8152
10114TIP3   OH251832   6.114   0.339  12.972 -0.4222  0.3790 -0.6743
10114TIP3    H151833   6.207   0.323  12.989 -0.8793 -1.8403  0.0977
10114TIP3    H251834   6.104   0.322  12.879 -0.0568  0.5192 -0.7414
10115TIP3   OH251835   2.712   5.116   2.063 -0.3238  0.7083 -0.7146
10115TIP3    H151836   2.762   5.103   2.143  1.8987  1.0390 -1.9709
10115TIP3    H251837   2.626   5.146   2.093  0.5489  1.1921  1.5154
10116TIP3   OH251838   4.364   2.183   2.647  0.5202  0.3760 -0.1380
10116TIP3    H151839   4.317   2.259   2.616 -0.5543 -0.0686  0.3607
10116TIP3    H251840   4.300   2.134   2.698  0.7320 -1.6677 -1.7052
10117TIP3   OH251841   6.000   1.016   4.570 -0.0915 -0.2397  0.4003
10117TIP3    H151842   5.985   1.111   4.573 -0.3140 -0.2474 -0.2675
10117TIP3    H251843   5.919   0.977   4.601 -0.8254 -0.2403 -1.3749
10118TIP3   OH251844   3.835   2.374   0.054 -0.5519 -0.2894  0.6311
10118TIP3    H151845   3.755   2.322   0.066  0.0169 -1.2641  0.2933
10118TIP3    H251846   3.906   2.318   0.085  0.0853  0.2629  0.2068
10119TIP3   OH251847   5.708   2.610  13.323  0.7775  0.0826 -0.5543
10119TIP3    H151848   5.615   2.589  13.315  0.7470 -0.9112  1.6393
10119TIP3    H251849   5.713   2.705  13.310 -1.1614  0.8272  3.0115
10120TIP3   OH251850   2.977   3.856   4.138 -0.0348  0.3398  0.1088
10120TIP3    H151851   2.911   3.922   4.115 -1.0283 -0.5364  0.4057
10120TIP3    H251852   2.927   3.782   4.171  1.1309 -0.1425  0.8608
10121TIP3   OH251853   5.513   6.684  10.571  0.0478  0.1580  0.3009
10121TIP3    H151854   5.467   6.740  10.634  0.5696  0.0645  0.7674
10121TIP3    H251855   5.602   6.718  10.569 -0.1458  0.6673 -0.9894
10122TIP3   OH251856   6.454   3.837  12.066 -0.5639 -0.2144 -0.5423
10122TIP3    H151857   6.531   3.856  12.012 -1.1554 -0.9427 -1.6840
10122TIP3    H251858   6.391   3.905  12.042 -0.1981  0.5635  0.6141
10123TIP3   OH251859   6.525   5.876  13.473 -0.3122  0.2631  0.4722
10123TIP3    H151860   6.582   5.887  13.397  0.3563 -1.0108  0.7623
10123TIP3    H251861   6.585   5.882  13.548 -0.9501  1.4153  0.9137
10124TIP3   OH251862   1.871   4.463   3.108  0.0734 -0.2680 -0.2764
10124TIP3    H151863   1.867   4.445   3.014 -1.6876  0.9562 -0.4876
10124TIP3    H251864   1.925   4.392   3.144 -0.1071 -1.3622 -2.0491
10125TIP3   OH251865   2.248   4.695  15.440 -0.3194  0.2387  0.0381
10125TIP3    H151866   2.243   4.668  15.532 -0.1534 -1.9646 -0.5545
10125TIP3    H251867   2.261   4.614  15.391  2.6238  1.5850 -1.7121
10126TIP3   OH251868   2.839   2.712   3.910 -0.0988  0.1253 -0.1670
10126TIP3    H151869   2.783   2.789   3.920 -0.8732 -0.5902  1.4545
10126TIP3    H251870   2.926   2.741   3.938 -0.7508  0.0322  2.1849
10127TIP3   OH251871   2.188   6.482   6.009 -0.4294  0.8192 -0.1134
10127TIP3    H151872   2.270   6.513   5.971 -1.1386  0.9942 -1.5638
10127TIP3    H251873   2.147   6.561   6.045 -1.0485  1.1680 -1.5251
10128TIP3   OH251874   6.438   1.054  15.283  0.1222  0.3960 -0.7190
10128TIP3    H151875   6.495   1.131  15.282 -0.5002  0.8697 -0.0020
10128TIP3    H251876   6.406   1.047  15.193 -0.6756  1.6176 -0.5456
10129TIP3   OH251877   4.809   4.638  10.827 -0.4764 -0.1310  0.1617
10129TIP3    H151878   4.849   4.581  10.761  1.1487  0.6407  0.4275
10129TIP3    H251879   4.757   4.700  10.777 -0.3592 -0.3995 -0.2989
10130TIP3   OH251880   0.394   4.510   2.297  0.3101  0.5964 -0.6585
10130TIP3    H151881   0.426   4.596   2.325 -1.0502  1.2150 -0.9390
10130TIP3    H251882   0.451   4.486   2.223  2.9146 -0.3500  1.4968
10131TIP3   OH251883   4.664   6.525  13.217 -0.0844 -0.0111  0.1623
10131TIP3    H151884   4.616   6.491  13.141 -0.3230 -0.4492  0.5098
10131TIP3    H251885   4.753   6.539  13.184 -0.0696 -0.6436 -0.0715
10132TIP3   OH251886   1.563   6.302  12.884  0.1342 -0.0021 -0.1556
10132TIP3    H151887   1.533   6.289  12.973 -1.1374 -1.3550 -0.7376
10132TIP3    H251888   1.597   6.391  12.882 -1.3993  0.6524  1.2384
10133TIP3   OH251889   1.934   2.961   4.286  0.2599  0.4354 -0.3078
10133TIP3    H151890   2.001   3.022   4.315 -0.1635  0.1050  1.4665
10133TIP3    H251891   1.980   2.878   4.275  0.7429  0.9105 -2.2726
10134TIP3   OH251892   1.964   1.836  12.035 -0.0614 -1.0972  0.3486
10134TIP3    H151893   1.939   1.822  11.943 -1.4619 -1.7020  0.7837
10134TIP3    H251894   1.933   1.924  12.055 -0.5326 -1.2817  0.4594
10135TIP3   OH251895   4.784   0.456  14.131  0.9887 -0.6204  0.1957
10135TIP3    H151896   4.812   0.536  14.175 -1.0422 -0.3342  1.0596
10135TIP3    H251897   4.832   0.386  14.176 -0.4599 -0.2672  2.4770
10136TIP3   OH251898   1.345   0.122   0.760 -0.0034  0.4482 -0.1732
10136TIP3    H151899   1.371   0.200   0.712  0.2313 -0.3541 -1.3983
10136TIP3    H251900   1.280   0.079   0.705  0.1097 -0.3914  0.3185
10137TIP3   OH251901   2.348   3.177  11.405 -0.2357  0.1701 -0.2608
10137TIP3    H151902   2.305   3.242  11.462  0.5261 -0.4547  1.0811
10137TIP3    H251903   2.312   3.093  11.433  1.8923 -0.3852  1.0013
10138TIP3   OH251904   1.800   1.102  16.366 -0.5089 -0.4438 -0.1610
10138TIP3    H151905   1.848   1.105  16.283 -1.6088 -0.3828 -0.8193
10138TIP3    H251906   1.722   1.051  16.347  0.9428 -3.6950  1.8066
10139TIP3   OH251907   5.110   1.010  11.900  0.4183  0.3239  0.1903
10139TIP3    H151908   5.075   1.091  11.935 -1.9790 -0.4837 -0.1752
10139TIP3    H251909   5.095   1.016  11.805  0.2052 -0.5386  0.1595
10140TIP3   OH251910   3.124   5.757   5.099 -0.2957  0.3310  0.0373
10140TIP3    H151911   3.067   5.697   5.147 -0.3225 -0.5412 -1.0172
10140TIP3    H251912   3.094   5.844   5.122  0.7168  0.0307  2.8207
10141TIP3   OH251913   5.313   2.899  14.778 -0.1119  0.2759  0.5565
10141TIP3    H151914   5.369   2.833  14.737  0.8915  1.5005 -0.1217
10141TIP3    H251915   5.338   2.899  14.870 -1.4531 -1.5701  0.9766
10142TIP3   OH251916   0.080   1.643  10.637  0.2713 -0.3596  0.1734
10142TIP3    H151917   0.156   1.699  10.619  0.4360 -0.3393  0.8754
10142TIP3    H251918   0.117   1.564  10.676  0.0110 -0.8326 -0.5150
10143TIP3   OH251919   1.616   2.443   0.206 -0.7809 -0.4233 -1.0794
10143TIP3    H151920   1.597   2.404   0.121 -0.6777 -2.5998 -0.1558
10143TIP3    H251921   1.602   2.373   0.269  0.9905  0.5855  0.5589
10144TIP3   OH251922   6.314   1.861   2.400 -0.4676  0.0286 -0.0096
10144TIP3    H151923   6.394   1.904   2.369 -0.0068 -0.3618  0.5841
10144TIP3    H251924   6.275   1.924   2.460 -1.2893  0.7298 -1.2385
10145TIP3   OH251925   1.506   4.580  13.951  0.1409  0.1537  0.5401
10145TIP3    H151926   1.496   4.528  14.031  0.9498 -0.4528  0.2624
10145TIP3    H251927   1.594   4.560  13.921 -0.5025 -0.4526 -1.0685
10146TIP3   OH251928   6.129   3.186   3.362  0.3109 -0.1008 -0.5536
10146TIP3    H151929   6.059   3.216   3.303 -1.1793 -0.2635  1.0506
10146TIP3    H251930   6.085   3.173   3.446  2.6239  1.6628  1.0621
10147TIP3   OH251931   6.832   3.736   0.821 -0.1147  0.2023 -0.7324
10147TIP3    H151932   6.798   3.773   0.902  0.7450  0.1187 -0.3227
10147TIP3    H251933   6.773   3.664   0.802 -0.6644  0.5828 -0.4926
10148TIP3   OH251934   2.199   0.448   5.223  0.6454  0.0780  0.0805
10148TIP3    H151935   2.265   0.414   5.283  0.9272  1.7610  0.7977
10148TIP3    H251936   2.130   0.383   5.223 -0.0314  0.6374  3.3950
10149TIP3   OH251937   5.226   1.524   4.282 -0.1779  0.0973 -0.0811
10149TIP3    H151938   5.161   1.546   4.349  0.3421 -0.1323  0.5119
10149TIP3    H251939   5.205   1.582   4.208 -1.3979 -0.3545 -0.1260
10150TIP3   OH251940   1.514   5.750   0.388 -0.3088  0.5656 -0.7599
10150TIP3    H151941   1.548   5.792   0.467 -1.7005  4.0128 -1.8294
10150TIP3    H251942   1.580   5.769   0.321  0.2736 -1.3020 -0.7797
10151TIP3   OH251943   2.033   1.148   1.257  0.1704 -0.2930 -0.6041
10151TIP3    H151944   2.118   1.192   1.255 -0.0683  0.2066 -0.1524
10151TIP3    H251945   2.048   1.068   1.307  0.5241 -0.5380 -1.1020
10152TIP3   OH251946   0.698   3.237   5.527  0.2288  0.2915  0.4645
10152TIP3    H151947   0.652   3.320   5.541  2.3692  1.2180  2.6575
10152TIP3    H251948   0.696   3.194   5.612 -0.8779 -2.0197 -0.6356
10153TIP3   OH251949   4.500   1.927  16.734  0.2081 -0.4139  0.1529
10153TIP3    H151950   4.471   1.867  16.803 -1.0596 -1.1201 -0.9499
10153TIP3    H251951   4.493   2.014  16.773 -2.6849 -0.6084  0.2583
10154TIP3   OH251952   4.973   1.617  12.078  0.1278 -0.9023 -0.1602
10154TIP3    H151953   5.061   1.580  12.079  0.1794 -0.9324 -2.0272
10154TIP3    H251954   4.916   1.543  12.101  0.3747 -1.7517 -2.0508
10155TIP3   OH251955   1.502   2.319   4.472 -0.0638 -0.3262 -0.5075
10155TIP3    H151956   1.569   2.344   4.536 -2.5657  1.8430  1.4869
10155TIP3    H251957   1.456   2.400   4.452 -3.2143 -1.9383 -0.3794
10156TIP3   OH251958   6.534   2.114   1.280  0.3204 -0.2673 -0.3274
10156TIP3    H151959   6.537   2.173   1.204  1.0140  1.6632  1.1256
10156TIP3    H251960   6.473   2.156   1.340  1.0878 -0.8641  0.8937
10157TIP3   OH251961   4.441   1.738  15.463 -0.4206 -0.3628  0.5996
10157TIP3    H151962   4.354   1.769  15.437 -1.3023 -0.9015  2.6535
10157TIP3    H251963   4.490   1.818  15.483 -1.2807 -0.0983  1.7718
10158TIP3   OH251964   0.145   0.659   3.951 -0.3472 -0.0835  0.0646
10158TIP3    H151965   0.153   0.752   3.932  0.5471 -0.1835 -0.1117
10158TIP3    H251966   0.217   0.640   4.011  0.9230 -1.0967 -1.6666
10159TIP3   OH251967   4.454   3.325   3.125  0.1912 -0.0717 -0.0089
10159TIP3    H151968   4.394   3.299   3.055 -0.0280 -1.0633  0.5289
10159TIP3    H251969   4.406   3.394   3.172  0.0923  0.1792 -0.4730
10160TIP3   OH251970   6.481   2.991   0.516 -0.4795 -0.3748  0.3378
10160TIP3    H151971   6.471   3.032   0.602 -1.6521 -0.9728  0.5087
10160TIP3    H251972   6.401   2.938   0.506 -1.6133  1.6130 -2.1814
10161TIP3   OH251973   6.681   2.892  10.793 -0.1524 -0.0018 -0.0919
10161TIP3    H151974   6.599   2.846  10.811 -0.2062 -0.5642 -1.6280
10161TIP3    H251975   6.665   2.981  10.824 -0.3571 -0.7362  2.1032
10162TIP3   OH251976   3.082   1.956  11.276 -0.1721 -0.3630 -0.0397
10162TIP3    H151977   3.164   1.998  11.300 -1.0850  1.8021 -0.4502
10162TIP3    H251978   3.075   1.882  11.336  1.3393  0.3033  1.0351
10163TIP3   OH251979   5.969   6.485  12.113  0.1178 -0.8707  0.2188
10163TIP3    H151980   5.966   6.527  12.199 -3.3287 -1.7707  0.6992
10163TIP3    H251981   5.998   6.395  12.131  1.8192 -0.4073  0.0035
10164TIP3   OH251982   2.705   5.555  13.833  0.4225  0.1036  0.0637
10164TIP3    H151983   2.757   5.476  13.817  0.5619  0.2047  0.0158
10164TIP3    H251984   2.660   5.571  13.749  0.2884 -0.0019  0.1143
10165TIP3   OH251985   0.116   3.819  13.511 -0.3795  0.5049 -0.1878
10165TIP3    H151986   0.124   3.737  13.559  0.4247  0.2575 -0.7248
10165TIP3    H251987   0.169   3.806  13.433 -0.7971  1.2939 -0.6089
10166TIP3   OH251988   4.747   4.933   5.912 -0.3574 -0.0809 -0.2251
10166TIP3    H151989   4.677   4.889   5.960  1.1270  0.1629  2.3777
10166TIP3    H251990   4.821   4.871   5.917  0.1489  0.4113 -1.3184
10167TIP3   OH251991   2.107   5.097   0.920  0.4217 -0.4979 -0.3296
10167TIP3    H151992   2.057   5.100   0.838  1.2571 -0.0384 -0.8344
10167TIP3    H251993   2.182   5.042   0.900  0.4334 -0.7063  0.2559
10168TIP3   OH251994   6.346   2.991  12.101 -0.3081  0.0808  0.1063
10168TIP3    H151995   6.293   3.070  12.112 -0.8839  0.1330 -2.4905
10168TIP3    H251996   6.285   2.919  12.122 -0.3663  0.2325  0.4798
10169TIP3   OH251997   4.330   6.003  11.527 -0.7407 -0.7423 -0.0188
10169TIP3    H151998   4.247   5.965  11.499 -0.7574 -0.8070  0.1161
10169TIP3    H251999   4.359   5.946  11.599 -0.5133 -0.7995 -0.1567
10170TIP3   OH252000   4.748   5.930   5.249 -0.5002  0.1714  0.2014
10170TIP3    H152001   4.696   5.993   5.299 -1.3516 -0.6920  0.4243
10170TIP3    H252002   4.839   5.951   5.272 -0.6014  2.5102 -1.1347
10171TIP3   OH252003   4.108   3.308   1.318 -0.1104 -0.4808  0.2264
10171TIP3    H152004   4.164   3.355   1.256 -0.2831  2.0600  1.8577
10171TIP3    H252005   4.169   3.261   1.375  0.1936 -0.3106  0.0438
10172TIP3   OH252006   6.565   1.826  10.402  0.1720  0.0645  0.2651
10172TIP3    H152007   6.504   1.849  10.331 -1.2459  0.7075  1.6306
10172TIP3    H252008   6.634   1.892  10.396 -0.6774  0.9860  0.3464
10173TIP3   OH252009   5.007   1.255   2.237 -0.3591  0.6715  0.5458
10173TIP3    H152010   5.024   1.263   2.331 -0.7325  2.9649  0.4832
10173TIP3    H252011   5.036   1.339   2.201 -1.4315  0.3328 -1.1928
10174TIP3   OH252012   3.852   0.242   2.032 -0.0385 -0.0685 -0.2297
10174TIP3    H152013   3.807   0.255   2.115 -0.1669 -1.2318 -0.0963
10174TIP3    H252014   3.942   0.271   2.048  0.3904 -1.8406  0.8598
10175TIP3   OH252015   1.549   2.930   5.027 -0.7753 -0.1314  0.1900
10175TIP3    H152016   1.632   2.943   5.073 -1.1424  0.3742  0.7199
10175TIP3    H252017   1.512   3.018   5.018 -0.3360 -0.0963 -1.8237
10176TIP3   OH252018   3.636   6.251   3.396 -0.4206 -0.5107 -0.2058
10176TIP3    H152019   3.554   6.291   3.367 -0.0094  1.3533  1.0015
10176TIP3    H252020   3.704   6.309   3.362  0.4407 -2.1194 -1.3214
10177TIP3   OH252021   2.166   5.790   4.337 -0.3041  0.5648  0.1761
10177TIP3    H152022   2.228   5.861   4.319  0.0939  0.5716  1.4712
10177TIP3    H252023   2.213   5.731   4.396 -1.0049 -0.2250 -0.0408
10178TIP3   OH252024   1.566   5.808  14.039  0.0766 -0.5276 -0.6606
10178TIP3    H152025   1.509   5.827  13.964  0.3106 -1.5766 -1.1163
10178TIP3    H252026   1.526   5.732  14.080 -1.3652  1.3346  1.6804
10179TIP3   OH252027   6.721   5.734   4.459  0.2447  0.0787  0.0480
10179TIP3    H152028   6.793   5.784   4.498  1.8873  0.1109 -2.7770
10179TIP3    H252029   6.755   5.705   4.374 -2.4209 -1.6105 -0.5529
10180TIP3   OH252030   2.601   5.622  16.131  0.1486 -0.3903 -0.1721
10180TIP3    H152031   2.515   5.598  16.165  0.5895 -2.8263 -0.6253
10180TIP3    H252032   2.583   5.667  16.048 -0.7244  1.0608  0.7671
10181TIP3   OH252033   0.412   5.418   1.843  0.3982 -0.2769  0.4333
10181TIP3    H152034   0.451   5.389   1.926  0.4782 -1.3152  0.0491
10181TIP3    H252035   0.337   5.472   1.870  1.2019  0.5058  1.1689
10182TIP3   OH252036   6.052   5.309  13.573  0.2107 -0.2792  0.0619
10182TIP3    H152037   5.994   5.345  13.640 -1.1443  0.2156 -1.3281
10182TIP3    H252038   6.034   5.361  13.495  0.0804 -2.2996 -1.3175
10183TIP3   OH252039   2.191   3.781  13.114  0.6949  0.4263 -0.4622
10183TIP3    H152040   2.272   3.824  13.084  0.6300  0.6235 -0.3548
10183TIP3    H252041   2.160   3.836  13.185  0.8676 -0.0618 -0.0005
10184TIP3   OH252042   3.219   1.889  14.180 -0.5012  0.2231  0.4100
10184TIP3    H152043   3.251   1.971  14.217  1.6782 -0.5478  0.3835
10184TIP3    H252044   3.292   1.857  14.126 -1.7734 -1.1023 -0.6098
10185TIP3   OH252045   3.987   3.680  13.217 -0.0282  0.3031 -0.3012
10185TIP3    H152046   3.971   3.704  13.309 -2.7127 -3.4849  0.4472
10185TIP3    H252047   4.049   3.608  13.221  1.3906  1.3734 -1.7321
10186TIP3   OH252048   3.084   1.350   2.514 -0.1807  0.0116  0.3598
10186TIP3    H152049   3.167   1.306   2.530  0.4879  1.1442  0.0849
10186TIP3    H252050   3.022   1.279   2.499 -0.2224 -1.1337  4.5923
10187TIP3   OH252051   4.182   0.086  11.643  0.5116  0.0164 -0.1727
10187TIP3    H152052   4.270   0.051  11.656  0.4626 -0.2012 -0.4364
10187TIP3    H252053   4.147   0.097  11.732  0.4997 -0.6654 -0.0902
10188TIP3   OH252054   5.651   6.238  16.915  0.4380 -0.0621 -0.0650
10188TIP3    H152055   5.630   6.263  17.005 -1.2052  2.0242 -0.9357
10188TIP3    H252056   5.717   6.302  16.888 -0.6899  0.7478 -1.0003
10189TIP3   OH252057   0.269   1.164   2.547  0.1779 -0.6140 -0.1361
10189TIP3    H152058   0.326   1.149   2.622 -2.2819 -0.7428  1.8432
10189TIP3    H252059   0.328   1.187   2.476  2.5908  0.3874  2.0356
10190TIP3   OH252060   4.973   3.093   4.350  0.2535  0.1225  0.2210
10190TIP3    H152061   5.055   3.097   4.399 -0.6653 -0.2550  1.8584
10190TIP3    H252062   4.904   3.094   4.417 -1.0904  0.3799 -1.0989
10191TIP3   OH252063   2.553   3.174  15.671 -0.4552  0.2073 -0.3456
10191TIP3    H152064   2.470   3.213  15.699  0.0099  0.4198  0.7793
10191TIP3    H252065   2.541   3.157  15.577 -1.1980  1.7173 -0.5544
10192TIP3   OH252066   0.155   2.307  13.363 -0.2998 -0.8973  0.8781
10192TIP3    H152067   0.184   2.359  13.287 -1.4837 -0.9451  0.3645
10192TIP3    H252068   0.101   2.238  13.325 -0.8722 -0.9499  1.7530
10193TIP3   OH252069   4.862   1.911   4.901  0.5275  0.3885 -0.1203
10193TIP3    H152070   4.907   1.922   4.818  0.4540 -0.0690 -0.2252
10193TIP3    H252071   4.812   1.830   4.891  1.9855 -0.7054  1.0352
10194TIP3   OH252072   6.130   5.532  14.745  0.0329  0.3336  1.2122
10194TIP3    H152073   6.164   5.616  14.712 -0.1862  0.1057  0.3732
10194TIP3    H252074   6.205   5.472  14.739  0.9310  1.0013  4.1046
10195TIP3   OH252075   4.593   3.773   5.395  0.2787 -0.3484 -0.6346
10195TIP3    H152076   4.621   3.773   5.304  1.2806  1.9522 -0.3903
10195TIP3    H252077   4.500   3.798   5.392  1.0603  2.9150 -0.9464
10196TIP3   OH252078   1.400   4.423  11.500 -0.5923 -0.9378  0.1541
10196TIP3    H152079   1.457   4.479  11.552  1.3509 -1.3224 -1.4408
10196TIP3    H252080   1.415   4.335  11.533  0.9814 -1.2420 -1.2497
10197TIP3   OH252081   4.313   3.806   4.534 -0.0389  0.2320 -0.6703
10197TIP3    H152082   4.343   3.756   4.610  0.3036 -0.7006 -1.4016
10197TIP3    H252083   4.381   3.794   4.468 -0.5659  0.6203 -1.3075
10198TIP3   OH252084   2.091   5.339  14.559 -0.2263  0.1637  0.7783
10198TIP3    H152085   1.996   5.338  14.571 -0.5196  0.0034 -1.2607
10198TIP3    H252086   2.114   5.247  14.545 -0.5076  0.5639 -3.3304
10199TIP3   OH252087   2.718   1.325   4.731  0.1250 -0.4550  0.7091
10199TIP3    H152088   2.672   1.248   4.698  0.5566  0.2227 -1.5893
10199TIP3    H252089   2.665   1.353   4.807 -2.3480 -0.6745 -0.8219
10200TIP3   OH252090   6.534   4.400   4.841  0.5929 -0.3514  0.2823
10200TIP3    H152091   6.499   4.451   4.915  0.6536 -0.5927  0.4803
10200TIP3    H252092   6.601   4.344   4.881 -0.7227 -1.9243  0.4010
10201TIP3   OH252093   5.167   6.706  16.623 -0.6516  0.1371 -0.4559
10201TIP3    H152094   5.119   6.716  16.706  0.3205 -0.8961  0.2547
10201TIP3    H252095   5.243   6.763  16.632 -0.2430 -0.4076 -0.3864
10202TIP3   OH252096   0.326   2.906  15.888 -0.2287  0.0135 -0.5684
10202TIP3    H152097   0.420   2.908  15.908 -0.3894 -0.6867  0.3146
10202TIP3    H252098   0.303   2.998  15.874  0.4326  0.2756 -0.0216
10203TIP3   OH252099   5.659   3.884  13.895  0.0875  0.1274  0.9939
10203TIP3    H152100   5.619   3.815  13.949  1.2246  0.1292  1.8659
10203TIP3    H252101   5.693   3.948  13.958  0.2108  0.8444  0.2311
10204TIP3   OH252102   4.969   6.504   5.159  0.0228  0.3060 -0.0852
10204TIP3    H152103   4.974   6.489   5.064 -0.1026  1.7462 -0.3434
10204TIP3    H252104   5.059   6.495   5.189  0.1659  0.4807 -0.4545
10205TIP3   OH252105   5.659   2.257  14.701  0.2704  0.1972  0.7973
10205TIP3    H152106   5.691   2.310  14.628 -1.1785  0.0128 -0.0079
10205TIP3    H252107   5.726   2.190  14.714 -0.1752 -0.7444 -1.4298
10206TIP3   OH252108   0.161   2.761   1.855  0.5210  0.0552  0.7407
10206TIP3    H152109   0.244   2.808   1.859  0.5723 -0.0625  1.0728
10206TIP3    H252110   0.114   2.786   1.935  0.2000  0.1871  0.5163
10207TIP3   OH252111   1.145   1.630   0.822 -0.1873  0.3185  0.7997
10207TIP3    H152112   1.145   1.534   0.830 -0.6421  0.2622  0.1773
10207TIP3    H252113   1.129   1.646   0.729 -2.1186  1.0065  1.2016
10208TIP3   OH252114   3.385   3.043  15.731 -0.4176 -0.3751 -1.0946
10208TIP3    H152115   3.335   2.979  15.681 -0.2338 -0.8411 -0.6842
10208TIP3    H252116   3.368   3.022  15.823 -0.2459  0.0771 -0.9524
10209TIP3   OH252117   1.047   4.846  16.226 -0.4778 -0.5796  0.1317
10209TIP3    H152118   1.105   4.912  16.188 -0.4050 -0.7279 -0.0162
10209TIP3    H252119   0.984   4.896  16.278  0.5726 -0.5044  1.3513
10210TIP3   OH252120   4.580   3.161  13.464  0.2107 -0.3358  0.1494
10210TIP3    H152121   4.541   3.244  13.436 -1.6267 -1.5383 -1.1107
10210TIP3    H252122   4.507   3.114  13.506  1.8134 -0.3802  3.1745
10211TIP3   OH252123   1.575   5.146  11.675  0.0863 -0.3312  0.1612
10211TIP3    H152124   1.659   5.134  11.631 -0.2888  1.3378 -1.1088
10211TIP3    H252125   1.519   5.075  11.641  0.4059 -0.2728 -0.5001
10212TIP3   OH252126   2.037   0.277  14.009  0.0033  0.6228 -0.0369
10212TIP3    H152127   2.004   0.232  13.931 -0.2830  0.6331  0.0736
10212TIP3    H252128   2.125   0.243  14.022  0.1313  0.7797 -0.4879
10213TIP3   OH252129   4.825   4.625  16.723  0.0584 -0.1075  0.2225
10213TIP3    H152130   4.852   4.601  16.811  1.9225  1.6027  0.1953
10213TIP3    H252131   4.907   4.630  16.673 -0.8162  0.3023 -1.2337
10214TIP3   OH252132   6.867   0.034   6.053 -0.2312  0.8594  0.5060
10214TIP3    H152133   6.907   0.037   6.140 -1.3849 -1.2805  1.1951
10214TIP3    H252134   6.775   0.057   6.068 -0.3703  0.7972 -0.1895
10215TIP3   OH252135   1.529   4.908  11.951 -0.0610 -0.0816  0.2149
10215TIP3    H152136   1.480   4.866  12.021 -0.3248  0.2323  0.2216
10215TIP3    H252137   1.486   4.992  11.939 -0.3923 -0.3741 -0.7346
10216TIP3   OH252138   5.727   0.530   1.631  0.7678  0.4354 -0.2159
10216TIP3    H152139   5.743   0.612   1.584  1.6797  0.2064 -0.3237
10216TIP3    H252140   5.798   0.472   1.604  0.2556 -0.3234  0.0262
10217TIP3   OH252141   4.977   5.804  12.652  0.3946  0.3512 -0.2216
10217TIP3    H152142   4.938   5.840  12.572 -0.3912  0.0182  0.0059
10217TIP3    H252143   4.932   5.720  12.665  0.2200  0.5911  0.8015
10218TIP3   OH252144   1.746   4.467  13.818 -0.1993 -0.8727  0.0464
10218TIP3    H152145   1.732   4.377  13.786 -0.4227 -0.6722 -0.4215
10218TIP3    H252146   1.831   4.463  13.862  0.2169 -1.1028 -0.7611
10219TIP3   OH252147   6.172   6.547   3.134  0.1229  0.6590  0.1345
10219TIP3    H152148   6.240   6.607   3.165 -0.5385  0.8394  1.2867
10219TIP3    H252149   6.096   6.566   3.188  0.1294 -1.7879  1.1373
10220TIP3   OH252150   3.358   3.064   1.465 -0.4359  0.1071  0.4832
10220TIP3    H152151   3.445   3.063   1.426 -0.5402 -0.7635  0.2495
10220TIP3    H252152   3.341   3.156   1.485  1.9497  0.0295  3.6645
10221TIP3   OH252153   4.831   0.442   2.104 -0.6921 -0.9287  0.0966
10221TIP3    H152154   4.772   0.370   2.080 -1.4200 -0.8365  1.4935
10221TIP3    H252155   4.879   0.461   2.024  0.0246 -3.4394 -0.1736
10222TIP3   OH252156   3.404   3.140   1.943 -0.0691  0.2011 -0.8466
10222TIP3    H152157   3.347   3.211   1.916  0.5750  0.9638 -0.2466
10222TIP3    H252158   3.460   3.178   2.010  0.7672 -0.6770 -1.0202
10223TIP3   OH252159   3.629   1.414  11.611  0.0528 -0.0197  0.6204
10223TIP3    H152160   3.658   1.487  11.556 -0.6325 -0.3717 -0.2512
10223TIP3    H252161   3.561   1.371  11.558 -1.3753  0.2414  2.1783
10224TIP3   OH252162   5.397   5.600  16.071 -0.2172  0.1061  1.0860
10224TIP3    H152163   5.358   5.517  16.044  2.6084 -0.6500 -1.1875
10224TIP3    H252164   5.373   5.662  16.002  1.4696 -0.0893  0.2626
10225TIP3   OH252165   4.966   3.960  16.410 -0.7185 -0.3224  0.2905
10225TIP3    H152166   4.915   4.027  16.457 -0.4843 -1.3255  2.0430
10225TIP3    H252167   4.990   3.897  16.477  2.2054 -0.3057 -0.6226
10226TIP3   OH252168   0.267   0.442  15.668 -0.2909  0.3630  0.2353
10226TIP3    H152169   0.348   0.466  15.624 -0.6656  1.4449  0.1107
10226TIP3    H252170   0.260   0.504  15.740 -0.2451 -0.6975  1.1632
10227TIP3   OH252171   1.684   1.676  13.998 -0.4002 -0.2763 -0.7511
10227TIP3    H152172   1.694   1.630  14.081  0.5375  0.5203 -0.4157
10227TIP3    H252173   1.621   1.745  14.016  1.7225  1.5618  0.0428
10228TIP3   OH252174   0.534   3.490   5.551 -0.1785 -0.5371  0.4075
10228TIP3    H152175   0.537   3.581   5.581  2.4801  0.2202 -1.7600
10228TIP3    H252176   0.519   3.439   5.630 -1.6639  1.7137  1.7109
10229TIP3   OH252177   0.944   6.099  16.801 -0.2092  0.2981  0.1493
10229TIP3    H152178   1.011   6.106  16.733 -0.7896  0.6228 -0.3973
10229TIP3    H252179   0.983   6.140  16.878  0.1370  0.6705 -0.2242
10230TIP3   OH252180   1.158   1.307   6.207  0.0101 -0.0145 -0.5874
10230TIP3    H152181   1.142   1.338   6.296 -0.0733  1.2945 -1.0408
10230TIP3    H252182   1.221   1.236   6.218 -2.3253 -2.0415  0.7856
10231TIP3   OH252183   5.924   3.873   6.583  0.6476 -0.6578  0.0803
10231TIP3    H152184   5.949   3.947   6.638  1.4845 -0.9224  0.0803
10231TIP3    H252185   5.971   3.886   6.501 -0.0812 -0.6084 -0.3388
10232TIP3   OH252186   0.510   0.603  10.453 -0.3284 -0.2271 -0.4866
10232TIP3    H152187   0.483   0.653  10.530 -0.3968  0.4377 -0.9352
10232TIP3    H252188   0.596   0.568  10.475  0.0088  0.6357 -0.4104
10233TIP3   OH252189   5.513   2.243   2.164 -0.4413  0.3399  0.3999
10233TIP3    H152190   5.488   2.326   2.124  2.4592  1.0278 -0.2337
10233TIP3    H252191   5.487   2.177   2.099  0.6386  1.1297 -0.8953
10234TIP3   OH252192   4.403   2.046  14.822 -0.0617 -0.3055  0.0475
10234TIP3    H152193   4.418   2.068  14.914 -0.5994 -0.3029  0.1388
10234TIP3    H252194   4.491   2.034  14.786  0.1744  0.2199  0.4275
10235TIP3   OH252195   6.484   2.563   6.057  0.1855 -0.0391  0.3844
10235TIP3    H152196   6.456   2.644   6.015 -1.9136 -1.0057 -0.1754
10235TIP3    H252197   6.439   2.562   6.141  1.0433 -0.1439  0.8566
10236TIP3   OH252198   2.240   5.892   0.358 -0.4781  0.1298  0.0197
10236TIP3    H152199   2.275   5.822   0.413 -0.8356 -1.5930 -1.8518
10236TIP3    H252200   2.293   5.969   0.382  0.4267 -0.9206  1.6007
10237TIP3   OH252201   4.457   1.991   2.051 -0.0703  1.0488 -0.7007
10237TIP3    H152202   4.445   1.938   2.130  1.9581  1.3599 -0.1363
10237TIP3    H252203   4.382   2.051   2.051  0.2604  1.5383  1.3989
10238TIP3   OH252204   5.849   4.025   4.689 -0.1212 -0.2884 -0.5794
10238TIP3    H152205   5.922   4.021   4.627  0.5405 -0.4251  0.1929
10238TIP3    H252206   5.785   3.964   4.654  0.1618 -0.2152 -1.2363
10239TIP3   OH252207   1.019   1.817   0.964 -0.3712 -0.4054  0.2527
10239TIP3    H152208   1.049   1.742   0.913  0.1313 -0.7702  1.0742
10239TIP3    H252209   0.965   1.868   0.902  0.1173 -0.8998 -0.5946
10240TIP3   OH252210   2.148   6.768  10.901 -0.2251 -0.3878 -0.4249
10240TIP3    H152211   2.092   6.846  10.904 -0.7930 -0.8003  0.6071
10240TIP3    H252212   2.152   6.744  10.809 -0.4216  0.5899 -0.7011
10241TIP3   OH252213   2.891   2.618  15.212 -0.2600  0.3339  0.5450
10241TIP3    H152214   2.832   2.652  15.145 -0.6802 -1.4129 -0.0066
10241TIP3    H252215   2.844   2.545  15.251  0.9614 -0.1946  1.0811
10242TIP3   OH252216   3.903   2.597   4.571  0.1239  0.2717  0.0886
10242TIP3    H152217   3.920   2.518   4.622  2.7687 -1.1419 -2.6410
10242TIP3    H252218   3.962   2.663   4.609  2.0116 -0.7423 -0.9270
10243TIP3   OH252219   2.795   5.825   2.285 -0.6389 -0.6969  0.2918
10243TIP3    H152220   2.785   5.874   2.204  2.4566 -0.3897 -0.0097
10243TIP3    H252221   2.811   5.735   2.258  1.5438 -0.4025  0.4042
10244TIP3   OH252222   1.220   3.021   5.101 -0.2854 -0.1254  0.1004
10244TIP3    H152223   1.211   2.945   5.159 -1.1241 -0.1683 -0.0871
10244TIP3    H252224   1.243   2.983   5.016  3.0701  0.0233  0.7988
10245TIP3   OH252225   2.925   5.930   2.588 -0.0122 -0.3052  0.2990
10245TIP3    H152226   2.879   5.848   2.609 -1.2577  0.3336  0.1636
10245TIP3    H252227   2.949   5.922   2.496 -0.4162 -0.3855  0.2006
10246TIP3   OH252228   0.607   6.493  13.855 -0.8168  0.5030  0.4118
10246TIP3    H152229   0.531   6.458  13.902 -1.1327 -0.4338 -0.7746
10246TIP3    H252230   0.676   6.428  13.869 -0.6696  0.6263  0.2620
10247TIP3   OH252231   4.859   1.017  12.271  0.1059 -0.2308  0.0269
10247TIP3    H152232   4.810   0.936  12.286  1.2379 -1.4589 -2.4152
10247TIP3    H252233   4.791   1.084  12.260 -0.9115 -1.2098  0.1912
10248TIP3   OH252234   5.827   1.465  13.903 -0.2053 -0.1306  0.1246
10248TIP3    H152235   5.875   1.437  13.981 -0.7093  2.6573  1.5482
10248TIP3    H252236   5.742   1.422  13.911 -0.3886  0.4099  1.3609
10249TIP3   OH252237   3.104   0.508  16.522 -0.3197  0.3545 -0.0647
10249TIP3    H152238   3.109   0.506  16.427  1.2736  1.2592 -0.0328
10249TIP3    H252239   3.053   0.586  16.543 -1.3558 -0.2820 -0.1741
10250TIP3   OH252240   5.913   0.675   0.128  0.2610 -0.3128  0.0161
10250TIP3    H152241   5.947   0.680   0.038 -1.1159  2.7936 -0.4768
10250TIP3    H252242   5.827   0.633   0.119  1.3051 -2.6666  0.3889
10251TIP3   OH252243   5.716   5.018   2.744 -0.0766  0.2392 -0.4027
10251TIP3    H152244   5.679   4.995   2.658 -3.0604  0.7949  0.6038
10251TIP3    H252245   5.659   5.088   2.776  2.5013  1.8233  1.0019
10252TIP3   OH252246   5.796   2.085  14.008  0.0083 -0.3419 -0.3430
10252TIP3    H152247   5.774   2.002  14.049 -0.8407 -0.5162 -1.1176
10252TIP3    H252248   5.817   2.143  14.081  0.8175 -1.2753  0.1969
10253TIP3   OH252249   5.910   3.274  15.887  0.4014 -0.3732  0.2531
10253TIP3    H152250   5.853   3.348  15.910  0.8503  0.0482  0.0263
10253TIP3    H252251   5.898   3.212  15.960 -1.2829 -0.8605 -0.3787
10254TIP3   OH252252   6.337   1.824  11.835 -0.1657 -0.2215  0.4274
10254TIP3    H152253   6.282   1.892  11.796  1.3592  2.0069  1.8832
10254TIP3    H252254   6.410   1.873  11.875  0.9257 -2.7276  1.7232
10255TIP3   OH252255   2.435   6.778   4.733  0.3920  0.9876  0.0697
10255TIP3    H152256   2.424   6.851   4.795 -0.0545 -0.5461  1.8992
10255TIP3    H252257   2.349   6.768   4.693  0.3782  1.2847  0.0209
10256TIP3   OH252258   1.257   2.462  14.518  0.0270  0.6410 -1.0670
10256TIP3    H152259   1.298   2.403  14.582 -0.3573  0.4178 -1.0253
10256TIP3    H252260   1.327   2.523  14.494  0.0885  0.9356 -0.1820
10257TIP3   OH252261   4.474   1.003   2.280  0.6144 -0.1890  0.1473
10257TIP3    H152262   4.450   1.038   2.366  0.9526  1.7659 -0.5066
10257TIP3    H252263   4.529   0.927   2.300  0.9231  0.3981  1.6729
10258TIP3   OH252264   6.700   6.097  12.787 -0.1159 -0.0065  0.2340
10258TIP3    H152265   6.702   6.072  12.694  0.0779  1.5817 -0.2098
10258TIP3    H252266   6.743   6.024  12.832 -0.5002 -0.9515 -0.8755
10259TIP3   OH252267   2.871   2.562  14.849 -0.1989  0.4323 -0.2236
10259TIP3    H152268   2.797   2.512  14.884 -0.2348  0.3074 -0.4758
10259TIP3    H252269   2.844   2.653  14.855  0.1969  0.4852  1.0161
10260TIP3   OH252270   5.545   3.173   3.952  0.4976 -0.1570  0.3866
10260TIP3    H152271   5.603   3.249   3.949  0.2631  0.0138  0.1900
10260TIP3    H252272   5.604   3.100   3.970  0.7163  0.0778  0.6466
10261TIP3   OH252273   0.643   5.246   2.144 -0.1437  0.0956  0.3313
10261TIP3    H152274   0.589   5.324   2.131  0.2231  0.3120  0.0625
10261TIP3    H252275   0.730   5.272   2.113  0.1274 -0.2295  0.8129
10262TIP3   OH252276   0.118   0.092  15.267  0.1536 -0.0735 -0.2789
10262TIP3    H152277   0.053   0.063  15.203 -0.2183 -0.4937  0.2819
10262TIP3    H252278   0.079   0.170  15.307 -0.1797 -0.5383  0.3174
10263TIP3   OH252279   3.124   5.206   0.055  0.0137  0.4737 -0.1919
10263TIP3    H152280   3.119   5.295   0.021  0.0156  0.2934 -0.6714
10263TIP3    H252281   3.062   5.156   0.002 -1.2907  0.5272  1.2038
10264TIP3   OH252282   1.873   3.424   0.798  0.0773  0.1999 -0.8681
10264TIP3    H152283   1.955   3.441   0.843  0.6774 -0.7631 -1.5743
10264TIP3    H252284   1.891   3.442   0.706 -0.1339 -1.1598 -1.2074
10265TIP3   OH252285   4.923   1.217   1.961  0.1941  0.1689  0.2014
10265TIP3    H152286   4.938   1.227   2.055  0.3750  1.0954  0.0814
10265TIP3    H252287   4.886   1.300   1.933 -0.0406 -0.1666 -0.5168
10266TIP3   OH252288   3.228   0.158   3.466  0.2042 -0.2773  0.1417
10266TIP3    H152289   3.263   0.069   3.473 -0.4464 -0.4890  0.9361
10266TIP3    H252290   3.246   0.184   3.375  0.8359 -1.0267  0.0378
10267TIP3   OH252291   0.172   1.584   2.521 -0.2765 -0.1941  0.8168
10267TIP3    H152292   0.128   1.521   2.463  0.7174  1.5230 -2.0170
10267TIP3    H252293   0.249   1.538   2.553  0.6539 -0.4028 -1.5398
10268TIP3   OH252294   4.608   3.703  12.647 -0.4080 -0.1238 -0.0326
10268TIP3    H152295   4.602   3.774  12.710 -1.3730 -0.6583  0.4950
10268TIP3    H252296   4.518   3.677  12.631 -0.1859 -0.0068 -1.6383
10269TIP3   OH252297   1.880   2.102   0.411  0.0995  0.3691 -0.6050
10269TIP3    H152298   1.853   2.038   0.477  1.4303 -0.8042 -1.1335
10269TIP3    H252299   1.887   2.185   0.458 -0.6766 -0.0713  0.3212
10270TIP3   OH252300   2.080   5.962  11.854  0.2830  0.0796  0.0357
10270TIP3    H152301   1.991   5.927  11.844  0.1150  0.9547 -2.2623
10270TIP3    H252302   2.098   6.004  11.770  2.8004  0.1453  0.5466
10271TIP3   OH252303   3.855   6.188   2.058  0.4061  0.2126  0.0373
10271TIP3    H152304   3.851   6.260   1.995 -1.6708 -0.1912 -0.3732
10271TIP3    H252305   3.825   6.227   2.140  2.2514  0.5232  0.5938
10272TIP3   OH252306   1.556   2.353  16.609  0.1396 -0.6100  0.1150
10272TIP3    H152307   1.598   2.438  16.601  2.1265 -1.4277  1.1077
10272TIP3    H252308   1.562   2.316  16.520 -0.0581 -0.0325 -0.1461
10273TIP3   OH252309   1.497   3.633  15.759 -1.0825  0.0691  0.0487
10273TIP3    H152310   1.489   3.654  15.666  0.4777 -0.3469 -0.2195
10273TIP3    H252311   1.527   3.542  15.760 -2.1228 -0.2812  1.0050
10274TIP3   OH252312   6.145   5.952   3.710 -0.5418 -0.0983  0.5063
10274TIP3    H152313   6.176   5.862   3.700 -1.5956 -0.5462  1.1627
10274TIP3    H252314   6.134   5.984   3.620 -0.1058 -0.5945  0.2713
10275TIP3   OH252315   3.786   2.795   5.982  0.3931 -0.1078  0.0233
10275TIP3    H152316   3.733   2.826   6.056 -1.0095  0.7778 -1.3084
10275TIP3    H252317   3.770   2.701   5.978  1.0287 -0.2903  1.2505
10276TIP3   OH252318   6.094   5.967  11.728 -0.6476 -0.0988  0.0486
10276TIP3    H152319   6.085   5.942  11.636 -2.1164  0.2522  0.0674
10276TIP3    H252320   6.052   6.053  11.735 -1.6198 -0.6190  1.2365
10277TIP3   OH252321   3.311   6.435   0.861  0.5678  0.2694 -0.1424
10277TIP3    H152322   3.318   6.340   0.861 -3.0389 -0.1759 -1.8639
10277TIP3    H252323   3.317   6.460   0.769 -3.3423  0.9808 -0.3995
10278TIP3   OH252324   0.325   3.169  15.812 -0.2497  0.2481 -0.1721
10278TIP3    H152325   0.414   3.185  15.780 -0.2807  0.1788 -0.2949
10278TIP3    H252326   0.305   3.245  15.865  0.4207 -0.3815  1.0400
10279TIP3   OH252327   3.298   1.673   6.204 -0.1396  0.1479  0.1426
10279TIP3    H152328   3.262   1.592   6.240 -0.4106  0.5389  0.7686
10279TIP3    H252329   3.262   1.678   6.115 -2.2400  0.8760  0.9740
10280TIP3   OH252330   5.093   0.830  10.526  0.4969  0.3112 -1.0399
10280TIP3    H152331   5.117   0.832  10.433  0.5619 -0.8361 -1.0594
10280TIP3    H252332   5.139   0.754  10.561  0.4055  0.6814 -0.0789
10281TIP3   OH252333   4.337   6.246  11.660  0.4464 -0.2745 -0.5384
10281TIP3    H152334   4.336   6.199  11.743  0.4310 -0.3075 -0.5575
10281TIP3    H252335   4.324   6.179  11.593  0.4992 -0.2532 -0.5707
10282TIP3   OH252336   2.236   1.652   3.180 -0.7102 -0.0889 -0.4034
10282TIP3    H152337   2.312   1.708   3.194 -1.2002  0.7576 -0.9676
10282TIP3    H252338   2.261   1.595   3.107  0.3540 -1.7155  1.1458
10283TIP3   OH252339   6.351   4.780   4.592  0.4531 -0.1265  0.0857
10283TIP3    H152340   6.404   4.701   4.603 -0.0715 -0.8733 -2.1085
10283TIP3    H252341   6.261   4.750   4.607  0.3563  0.3740  0.5328
10284TIP3   OH252342   4.221   3.799   1.368 -0.3077  0.2267  0.2153
10284TIP3    H152343   4.156   3.793   1.297  2.0384 -0.6487 -2.0207
10284TIP3    H252344   4.271   3.879   1.348  0.3695 -0.0056  0.9165
10285TIP3   OH252345   5.994   2.847   1.155  0.3456  0.0042 -0.1695
10285TIP3    H152346   6.012   2.758   1.185  0.4173 -0.1550 -0.6764
10285TIP3    H252347   5.927   2.837   1.087  0.0811  0.3740  0.0272
10286TIP3   OH252348   1.063   4.339   1.236 -0.1000  0.5238 -0.4904
10286TIP3    H152349   1.059   4.264   1.294  0.4274  0.2534 -0.8000
10286TIP3    H252350   1.101   4.409   1.289  1.0759  0.0696 -0.7208
10287TIP3   OH252351   6.017   1.461  12.535  0.3932 -0.1554 -0.1222
10287TIP3    H152352   5.982   1.525  12.597 -0.7754 -0.2667 -0.6444
10287TIP3    H252353   5.959   1.467  12.459  0.7340 -1.2871 -0.4877
10288TIP3   OH252354   1.692   2.820   0.140  0.0345  0.2341  0.7475
10288TIP3    H152355   1.666   2.766   0.214 -1.0365  1.6644  1.4469
10288TIP3    H252356   1.610   2.844   0.097  0.6423 -1.0608 -1.3230
10289TIP3   OH252357   3.119   1.433  16.328 -0.1327 -0.1070  0.0600
10289TIP3    H152358   3.190   1.377  16.297 -0.3685 -0.7630  0.6693
10289TIP3    H252359   3.054   1.432  16.258  0.1825 -0.0181 -0.2302
10290TIP3   OH252360   4.880   3.119   5.001  0.1878 -0.1195  0.5377
10290TIP3    H152361   4.853   3.066   4.926  1.2033 -1.1029  0.8343
10290TIP3    H252362   4.882   3.057   5.074  0.3270  0.5817  1.1404
10291TIP3   OH252363   6.842   2.287   4.134  0.2809 -0.2970  0.6204
10291TIP3    H152364   6.818   2.201   4.099  2.0529  0.1703 -1.9766
10291TIP3    H252365   6.760   2.336   4.135 -0.2754 -1.1694 -0.5110
10292TIP3   OH252366   2.214   1.792   4.959 -0.5094 -0.3370  0.3055
10292TIP3    H152367   2.246   1.712   5.000  0.9346 -0.3297 -0.7253
10292TIP3    H252368   2.275   1.860   4.989 -1.6228  0.3796  1.0417
10293TIP3   OH252369   2.210   1.950  13.363 -0.1245  0.1783  0.1689
10293TIP3    H152370   2.219   1.988  13.450 -1.4561 -1.4322  1.0764
10293TIP3    H252371   2.241   1.860  13.373 -2.8755 -0.9102 -0.2593
10294TIP3   OH252372   0.604   0.207  12.149  0.0945  0.3461 -0.0753
10294TIP3    H152373   0.564   0.206  12.062 -2.1622 -0.0446  0.8790
10294TIP3    H252374   0.690   0.168  12.136  0.3059  1.3699 -2.3146
10295TIP3   OH252375   1.509   2.706  15.858 -0.1864 -0.0429  0.3318
10295TIP3    H152376   1.543   2.772  15.918 -0.8018  0.0536  0.5838
10295TIP3    H252377   1.429   2.675  15.900 -0.3206 -0.3849 -0.1693
10296TIP3   OH252378   4.060   2.625  13.306 -0.7367  0.6272 -0.5903
10296TIP3    H152379   3.994   2.557  13.293 -1.7598  1.7336 -1.4627
10296TIP3    H252380   4.121   2.614  13.234 -0.5307  0.2151 -0.3507
10297TIP3   OH252381   0.468   1.606  14.599  0.2988  0.0977 -0.5003
10297TIP3    H152382   0.458   1.636  14.689  1.3478  0.5562 -0.5234
10297TIP3    H252383   0.409   1.531  14.592  0.8203 -0.4579  0.8193
10298TIP3   OH252384   1.990   2.446  12.770 -0.1490  0.3408 -0.5352
10298TIP3    H152385   1.999   2.541  12.782  1.6958  0.1820 -0.3047
10298TIP3    H252386   2.069   2.421  12.721 -0.5779 -1.0797 -0.5398
10299TIP3   OH252387   1.639   0.408  16.264 -0.5403 -0.1141 -0.1455
10299TIP3    H152388   1.676   0.337  16.317  0.6160  0.8508  0.3815
10299TIP3    H252389   1.694   0.411  16.186  2.8798  3.3971  2.0070
10300TIP3   OH252390   5.286   0.783  14.166 -0.2668  0.1732  0.0605
10300TIP3    H152391   5.350   0.722  14.201 -0.1219  0.8049  0.9077
10300TIP3    H252392   5.268   0.750  14.078 -0.5380 -1.3490  0.6638
10301TIP3   OH252393   2.020   6.459   0.138 -0.0696  0.3949  0.7170
10301TIP3    H152394   1.937   6.507   0.126  0.6566  1.7041  0.7151
10301TIP3    H252395   2.038   6.467   0.232 -0.5470 -0.9500  0.9406
10302TIP3   OH252396   2.509   0.600  13.877 -0.4161 -0.0224  0.3243
10302TIP3    H152397   2.432   0.586  13.821 -0.5514 -2.0753  0.9620
10302TIP3    H252398   2.579   0.622  13.816 -1.0317 -0.1990 -0.4639
10303TIP3   OH252399   6.555   0.453   0.316  0.5676 -0.1789  0.2012
10303TIP3    H152400   6.552   0.490   0.404  0.6442  0.7346 -0.1648
10303TIP3    H252401   6.495   0.506   0.265 -0.7548 -1.7455  0.0526
10304TIP3   OH252402   4.368   3.502   3.346  0.5142  0.0989  0.3852
10304TIP3    H152403   4.332   3.582   3.383  1.2839 -0.1474  1.6972
10304TIP3    H252404   4.459   3.499   3.375  1.0057 -0.3864 -1.0865
10305TIP3   OH252405   6.561   0.945  14.132  0.2306  0.6940  0.1753
10305TIP3    H152406   6.475   0.983  14.153  0.9013  3.1898 -1.1574
10305TIP3    H252407   6.552   0.914  14.042  0.5592  0.3977  0.2445
10306TIP3   OH252408   0.464   0.206  12.694  0.2242 -0.1005  1.1653
10306TIP3    H152409   0.420   0.274  12.744  0.2694  0.4650  0.4558
10306TIP3    H252410   0.554   0.207  12.726 -0.2042 -1.1672  2.5201
10307TIP3   OH252411   1.687   1.496  12.464  0.4113  0.1251 -0.6006
10307TIP3    H152412   1.625   1.537  12.524  0.2745 -1.5859  0.5077
10307TIP3    H252413   1.640   1.420  12.428  1.7540 -1.1333  0.1683
10308TIP3   OH252414   1.839   3.068   6.303 -0.0188 -0.0070  0.3037
10308TIP3    H152415   1.786   2.990   6.285  0.3139  0.0944 -1.2596
10308TIP3    H252416   1.887   3.046   6.382  1.4214 -2.1528 -1.0480
10309TIP3   OH252417   4.491   0.983  14.483  0.0646 -0.1703 -0.5391
10309TIP3    H152418   4.493   1.078  14.476  0.5782 -0.2903 -2.5528
10309TIP3    H252419   4.404   0.958  14.452  0.4493 -0.4334 -1.4207
10310TIP3   OH252420   4.669   0.211   2.136 -0.2404  0.2057 -0.6323
10310TIP3    H152421   4.667   0.211   2.231  0.2412  2.5029 -0.5629
10310TIP3    H252422   4.577   0.218   2.110 -0.2520  1.9708 -0.2364
10311TIP3   OH252423   6.093   1.827   6.613 -0.5374  0.0886  0.6884
10311TIP3    H152424   6.150   1.834   6.537 -0.4908  1.5858  0.8401
10311TIP3    H252425   6.056   1.739   6.608  0.0349 -0.0848 -0.6488
10312TIP3   OH252426   6.379   2.828   4.076 -0.4191  0.9106  0.4252
10312TIP3    H152427   6.473   2.821   4.091 -0.3766  2.0897  0.8163
10312TIP3    H252428   6.350   2.738   4.060  1.0029  0.6981 -1.1817
10313TIP3   OH252429   0.351   3.693  15.286 -0.0366  0.3069 -0.0939
10313TIP3    H152430   0.331   3.684  15.379 -0.1624 -1.1370 -0.2502
10313TIP3    H252431   0.443   3.670  15.278 -0.5077 -1.6097 -0.5773
10314TIP3   OH252432   0.046   3.563   5.718 -0.3715  0.0321  0.0327
10314TIP3    H152433   0.086   3.619   5.784  0.5845 -0.3585 -0.1906
10314TIP3    H252434   0.060   3.608   5.635 -0.3963 -0.1042 -0.0470
10315TIP3   OH252435   6.771   3.768   4.952  0.4379  0.3946  0.4706
10315TIP3    H152436   6.809   3.726   4.874  2.6731  1.7719  0.7429
10315TIP3    H252437   6.712   3.835   4.917 -1.1638 -1.1370  0.0440
10316TIP3   OH252438   4.959   0.285   5.367  0.2758 -0.2572 -0.0546
10316TIP3    H152439   5.055   0.291   5.369  0.2482  0.3012 -0.4626
10316TIP3    H252440   4.942   0.191   5.363  0.7906 -0.4041  0.7872
10317TIP3   OH252441   2.900   6.486  11.054  0.4824 -0.0893 -0.4915
10317TIP3    H152442   2.938   6.428  11.119 -0.2143 -0.0427 -0.0274
10317TIP3    H252443   2.968   6.497  10.988  0.8292 -0.9536 -0.2849
10318TIP3   OH252444   4.049   2.872  14.192 -0.2771 -0.2350  0.2797
10318TIP3    H152445   4.027   2.818  14.268  0.0787  0.0056  0.5588
10318TIP3    H252446   3.974   2.863  14.134 -0.9786  0.3383  1.0755
10319TIP3   OH252447   4.606   6.587  16.493  0.2980  0.3846  0.4436
10319TIP3    H152448   4.561   6.630  16.420 -0.3299  1.5507  1.4787
10319TIP3    H252449   4.583   6.495  16.484  0.5156  0.4576 -1.0283
10320TIP3   OH252450   1.601   5.195   0.007  0.3183  0.0004 -0.1960
10320TIP3    H152451   1.521   5.244   0.027  0.5027 -0.2739  1.2903
10320TIP3    H252452   1.629   5.158   0.091  0.6368 -1.9822 -1.0988
10321TIP3   OH252453   6.477   4.815   1.133 -0.8705  0.5388 -0.5223
10321TIP3    H152454   6.563   4.856   1.145 -0.1630 -1.1664  0.5870
10321TIP3    H252455   6.490   4.725   1.162 -3.3950  0.5814  0.9902
10322TIP3   OH252456   1.100   1.334   2.086  0.4214 -0.5382 -0.4059
10322TIP3    H152457   1.173   1.272   2.082  0.3627 -0.6346 -0.0463
10322TIP3    H252458   1.080   1.355   1.995  2.0284  0.8197 -0.4965
10323TIP3   OH252459   5.443   1.437  11.446 -0.4123 -0.1681  0.5181
10323TIP3    H152460   5.512   1.439  11.381 -1.6757  0.2571 -0.8662
10323TIP3    H252461   5.410   1.347  11.444 -0.4705 -0.1481  0.5639
10324TIP3   OH252462   0.787   5.752   0.822  0.4494 -0.6938 -0.6242
10324TIP3    H152463   0.807   5.673   0.871 -0.5578 -0.1673  0.6941
10324TIP3    H252464   0.727   5.724   0.753  0.2204 -1.0973 -0.2585
10325TIP3   OH252465   1.451   0.908  12.368 -0.0610  0.4677 -0.6522
10325TIP3    H152466   1.538   0.919  12.407 -0.2730 -0.1165  0.0052
10325TIP3    H252467   1.451   0.967  12.292  1.8238 -1.3376 -2.1732
10326TIP3   OH252468   6.057   6.509  15.529  0.4799 -0.1681 -0.2354
10326TIP3    H152469   6.130   6.477  15.582  1.7967  0.4476 -1.6186
10326TIP3    H252470   6.014   6.429  15.497 -0.8190 -0.5742  2.2762
10327TIP3   OH252471   3.608   0.383   3.505 -0.5987  0.0234 -0.0800
10327TIP3    H152472   3.589   0.398   3.413  1.4908  1.4575 -0.3255
10327TIP3    H252473   3.580   0.464   3.549 -0.4019 -0.1392  0.3515
10328TIP3   OH252474   3.215   6.419  12.060  0.2204 -0.3366  0.1487
10328TIP3    H152475   3.120   6.422  12.055  0.2147 -0.0368  0.4201
10328TIP3    H252476   3.243   6.509  12.044  0.5404 -0.6853 -1.4752
10329TIP3   OH252477   0.804   3.696   3.483 -0.2711 -0.1811  0.2201
10329TIP3    H152478   0.791   3.694   3.578  0.9665  0.8039  0.4512
10329TIP3    H252479   0.726   3.739   3.449 -0.6440 -0.3763  0.8004
10330TIP3   OH252480   1.592   2.561   3.061 -0.1529  0.2481  0.8103
10330TIP3    H152481   1.496   2.570   3.063 -0.2964 -0.7253 -0.4756
10330TIP3    H252482   1.611   2.525   2.974  1.3946  0.4524  1.0356
10331TIP3   OH252483   5.441   1.255  16.613 -0.0265 -0.2459 -0.3168
10331TIP3    H152484   5.510   1.211  16.663 -0.2840 -2.0539 -1.4423
10331TIP3    H252485   5.403   1.318  16.674  1.1090 -0.8308  1.0447
10332TIP3   OH252486   2.837   5.540   5.714 -0.3148  0.1742 -0.0370
10332TIP3    H152487   2.919   5.502   5.684  0.3046  0.6279  1.0385
10332TIP3    H252488   2.811   5.487   5.789 -1.5239 -0.5613 -0.9298
10333TIP3   OH252489   5.975   5.745  11.901  0.0237  0.3383  0.4224
10333TIP3    H152490   5.965   5.747  11.996  2.3323  0.4827  0.7248
10333TIP3    H252491   5.984   5.837  11.876  1.7247  0.2007  0.4141
10334TIP3   OH252492   4.726   5.398  15.723 -0.2551  0.4647  0.2572
10334TIP3    H152493   4.651   5.381  15.780 -0.7481  0.5746 -0.3459
10334TIP3    H252494   4.760   5.482  15.753  0.7610 -0.4201  1.7266
10335TIP3   OH252495   4.590   5.505  16.816  0.3674  0.1946 -0.5401
10335TIP3    H152496   4.506   5.527  16.775 -0.0429 -0.0488  0.1530
10335TIP3    H252497   4.652   5.569  16.780 -0.1814  0.5863 -0.8028
10336TIP3   OH252498   1.823   4.420   6.520  0.0547  0.4052  0.4172
10336TIP3    H152499   1.816   4.488   6.588  1.2096 -0.1586  1.1349
10336TIP3    H252500   1.765   4.351   6.549 -1.5431  1.2682 -0.5912
10337TIP3   OH252501   4.150   4.208  12.865 -0.3681 -0.0784  0.1146
10337TIP3    H152502   4.110   4.237  12.783  0.8899  0.1531 -0.4428
10337TIP3    H252503   4.218   4.146  12.839 -0.4629 -0.5892  1.0402
10338TIP3   OH252504   1.746   3.195   3.407 -0.0418  0.5139 -0.3241
10338TIP3    H152505   1.767   3.270   3.463  0.7282 -0.7240  1.0936
10338TIP3    H252506   1.650   3.196   3.401 -0.2188  0.1295  1.8236
10339TIP3   OH252507   0.584   3.584  13.476 -0.0067 -0.3245 -0.5863
10339TIP3    H152508   0.596   3.665  13.428  2.4213 -0.2748  0.0035
10339TIP3    H252509   0.512   3.540  13.431 -1.3084  2.0587 -0.9839
10340TIP3   OH252510   3.041   4.618   6.128  0.0095  0.1924  1.2775
10340TIP3    H152511   2.946   4.624   6.126 -0.0743  0.2137  3.1322
10340TIP3    H252512   3.060   4.564   6.206  1.4496 -2.0902 -0.5043
10341TIP3   OH252513   5.575   3.102   0.932  0.1868  0.8321  0.1667
10341TIP3    H152514   5.605   3.030   0.987 -0.2535 -0.1583 -0.8519
10341TIP3    H252515   5.647   3.118   0.872 -0.3779  0.0370 -0.7480
10342TIP3   OH252516   0.089   2.260   6.083  0.0351  0.5294  0.6951
10342TIP3    H152517   0.096   2.249   5.988  0.6065  1.4439  0.6169
10342TIP3    H252518   0.162   2.210   6.119  0.9341  1.6748  0.5204
10343TIP3   OH252519   2.921   2.374   1.029  0.2864  0.6503 -0.3875
10343TIP3    H152520   2.871   2.407   1.104 -0.5219  1.3718 -1.2233
10343TIP3    H252521   2.912   2.279   1.035  0.6095  0.6649  0.6717
10344TIP3   OH252522   1.294   5.239   2.359 -0.5409  0.3361  0.0714
10344TIP3    H152523   1.218   5.187   2.387  0.0877 -0.8571 -0.3703
10344TIP3    H252524   1.312   5.209   2.270  0.3564  0.7160  0.1183
10345TIP3   OH252525   4.721   3.562   4.468  0.3095  0.2484  0.3068
10345TIP3    H152526   4.678   3.505   4.405 -0.1187  0.4878  0.3797
10345TIP3    H252527   4.677   3.646   4.459  1.2678  0.7179 -0.1545
10346TIP3   OH252528   0.699   4.195   5.595  0.5697 -0.2442  0.1248
10346TIP3    H152529   0.610   4.220   5.620  0.5411  0.5719 -0.7040
10346TIP3    H252530   0.745   4.279   5.586  0.7870 -0.5223 -1.6912
10347TIP3   OH252531   2.852   2.965  12.617 -0.0543 -0.9824  0.4671
10347TIP3    H152532   2.875   2.897  12.681  0.6606 -1.6196 -0.4536
10347TIP3    H252533   2.823   2.917  12.540  0.9044 -0.2645 -0.3651
10348TIP3   OH252534   1.965   1.122   5.418 -0.4632 -0.2515 -0.0666
10348TIP3    H152535   2.007   1.039   5.440 -1.0902 -0.3434  0.8370
10348TIP3    H252536   1.920   1.104   5.335  1.5996 -0.0142 -1.2970
10349TIP3   OH252537   6.810   6.488   0.089 -0.3906 -0.5642 -0.8705
10349TIP3    H152538   6.776   6.400   0.075 -0.7296 -0.2227 -2.4070
10349TIP3    H252539   6.733   6.542   0.107 -0.4316 -0.2437 -1.9039
10350TIP3   OH252540   6.050   0.443  14.118 -0.1398  0.0372 -0.5608
10350TIP3    H152541   6.089   0.530  14.127 -1.3687  0.5450  0.0201
10350TIP3    H252542   5.961   0.459  14.089 -1.2668 -0.8324  2.0783
10351TIP3   OH252543   4.450   3.070   3.206 -0.1031  0.2296  0.0632
10351TIP3    H152544   4.361   3.035   3.207 -0.5317  0.9647 -2.9086
10351TIP3    H252545   4.438   3.165   3.204  0.6584  0.3300 -1.1283
10352TIP3   OH252546   1.077   3.914  12.182  0.2230 -0.7477 -0.0169
10352TIP3    H152547   1.114   3.882  12.264 -0.7023  2.1511  1.7074
10352TIP3    H252548   0.987   3.882  12.182  0.4280 -1.3293 -0.2665
10353TIP3   OH252549   2.385   1.110   4.502 -0.1224 -0.6399 -0.0293
10353TIP3    H152550   2.383   1.187   4.446  0.6647 -0.4697  0.1680
10353TIP3    H252551   2.342   1.138   4.583  0.1707 -0.4093  0.0460
10354TIP3   OH252552   6.678   6.605   5.063 -0.3038 -0.2396 -0.3612
10354TIP3    H152553   6.662   6.638   4.975 -0.0314  0.6482 -0.0805
10354TIP3    H252554   6.766   6.634   5.084 -0.3698 -0.4397  0.2097
10355TIP3   OH252555   4.557   5.701  16.388  0.3541  0.1357 -0.0839
10355TIP3    H152556   4.469   5.721  16.356 -0.5744 -2.6038  0.4589
10355TIP3    H252557   4.567   5.754  16.466 -1.4679 -0.5638  0.6839
10356TIP3   OH252558   2.134   2.939   4.654 -0.3937  0.1490  0.3631
10356TIP3    H152559   2.110   2.992   4.578 -0.8398 -0.1792  0.2698
10356TIP3    H252560   2.058   2.942   4.711  0.2515  1.0834  1.1991
10357TIP3   OH252561   3.511   0.376  15.722  0.1223  0.7414 -0.0853
10357TIP3    H152562   3.593   0.360  15.770 -0.6923 -0.0531  1.0988
10357TIP3    H252563   3.539   0.422  15.643  1.9051 -0.9168 -0.5092
10358TIP3   OH252564   2.203   2.563  11.805 -0.3943  0.2241  0.1920
10358TIP3    H152565   2.296   2.555  11.784 -0.2543  0.5393  0.6819
10358TIP3    H252566   2.191   2.654  11.830 -0.8215  0.1652  0.2168
10359TIP3   OH252567   4.529   5.220  15.498 -0.1416  0.6224  0.5815
10359TIP3    H152568   4.492   5.308  15.495  1.1213  1.2004  1.0857
10359TIP3    H252569   4.603   5.223  15.437  0.2334  0.0697  1.0012
10360TIP3   OH252570   4.209   2.002   3.989  0.2221  0.3795 -0.7660
10360TIP3    H152571   4.253   1.993   4.073  0.1566  0.3648 -0.7337
10360TIP3    H252572   4.117   2.013   4.010  0.3537  1.6675 -0.7717
10361TIP3   OH252573   2.739   3.972   4.614 -0.6014  0.0676  0.2728
10361TIP3    H152574   2.722   4.030   4.688  0.1164 -0.1825  0.6382
10361TIP3    H252575   2.697   3.889   4.637  0.4742 -0.3285  0.8618
10362TIP3   OH252576   6.629   6.848  11.079  0.1778 -0.1856  0.4663
10362TIP3    H152577   6.695   6.897  11.129  0.3699 -1.4453  1.4899
10362TIP3    H252578   6.677   6.812  11.005 -0.0526  1.4748 -0.5448
10363TIP3   OH252579   2.417   2.283  13.826  0.2956 -0.0678 -0.0024
10363TIP3    H152580   2.429   2.358  13.884 -0.5812  0.5097 -0.5598
10363TIP3    H252581   2.338   2.302  13.777 -0.7522 -1.9802  0.8097
10364TIP3   OH252582   2.472   4.514  11.509 -0.2413 -0.0503  0.2052
10364TIP3    H152583   2.502   4.441  11.564 -0.2349  0.1441  0.4598
10364TIP3    H252584   2.483   4.592  11.564  0.7809  0.2823 -0.4577
10365TIP3   OH252585   5.413   2.173  11.980 -0.1076  0.0892  0.4257
10365TIP3    H152586   5.344   2.111  11.957  1.7416 -0.9174 -3.1802
10365TIP3    H252587   5.473   2.122  12.036  0.0835 -0.6201 -0.3920
10366TIP3   OH252588   2.399   3.937  14.522  0.1748  0.0776  0.0200
10366TIP3    H152589   2.466   4.000  14.497  0.5365 -0.8181 -1.3508
10366TIP3    H252590   2.431   3.899  14.604 -0.4248  2.1665  1.2974
10367TIP3   OH252591   1.695   4.025  12.188  0.4019 -0.1687  0.0696
10367TIP3    H152592   1.789   4.009  12.193  0.3152 -0.7863 -0.2154
10367TIP3    H252593   1.661   3.993  12.272  0.3803 -0.4108 -0.0314
10368TIP3   OH252594   1.687   1.582  14.731 -0.0201  0.0269 -0.4433
10368TIP3    H152595   1.651   1.494  14.723 -0.8929  0.4466 -1.3878
10368TIP3    H252596   1.672   1.606  14.823 -1.2977 -0.1818 -0.5801
10369TIP3   OH252597   6.247   1.610  12.682  0.3416  0.5175 -0.2886
10369TIP3    H152598   6.205   1.635  12.599 -1.1776 -0.4387  0.1693
10369TIP3    H252599   6.227   1.682  12.742 -1.9341 -0.5295  0.3251
10370TIP3   OH252600   3.931   3.487  10.728  0.5618  0.0355 -0.5891
10370TIP3    H152601   3.857   3.429  10.745  1.7737 -2.0266 -1.8708
10370TIP3    H252602   3.965   3.508  10.815  0.1067 -1.2438 -0.0755
10371TIP3   OH252603   2.351   6.597   4.960  0.2016 -0.3648  0.1158
10371TIP3    H152604   2.356   6.668   5.024  0.0507  0.1169 -0.3959
10371TIP3    H252605   2.379   6.638   4.878  0.0505 -0.8838 -0.1959
10372TIP3   OH252606   5.394   1.322   3.934 -0.1137  0.0196  0.2889
10372TIP3    H152607   5.332   1.249   3.938 -0.6565  0.2680 -2.1518
10372TIP3    H252608   5.362   1.378   3.863  1.9531  1.0666  0.0915
10373TIP3   OH252609   5.943   4.085   5.319  0.1007 -0.1715 -0.6791
10373TIP3    H152610   5.925   4.158   5.260  1.8593  0.2974 -0.6962
10373TIP3    H252611   5.870   4.085   5.381  0.5491  2.2361 -0.0841
10374TIP3   OH252612   5.048   0.187  11.979 -0.3269  0.6276  0.1442
10374TIP3    H152613   4.973   0.147  12.023  0.0507 -1.5964 -1.0763
10374TIP3    H252614   5.095   0.233  12.048 -1.2796 -0.3315  1.4822
10375TIP3   OH252615   3.574   3.724  13.790 -0.4698 -0.0334 -0.6646
10375TIP3    H152616   3.652   3.709  13.842 -0.5191  0.3182 -0.4869
10375TIP3    H252617   3.523   3.788  13.840 -2.0009 -1.9747  0.4167
10376TIP3   OH252618   4.957   1.125  15.344  0.1409 -0.1343 -0.1978
10376TIP3    H152619   4.873   1.156  15.310  1.6295  1.1651 -3.0855
10376TIP3    H252620   4.941   1.035  15.370 -1.9115 -0.2605 -1.6541
10377TIP3   OH252621   1.633   0.660  15.277  0.4686 -0.1915 -0.6126
10377TIP3    H152622   1.652   0.663  15.183 -1.5427 -1.7013 -1.1260
10377TIP3    H252623   1.538   0.674  15.282  0.0736 -2.8215  0.9346
10378TIP3   OH252624   4.705   2.595  11.605  0.5744  0.0777 -0.1341
10378TIP3    H152625   4.767   2.653  11.562 -1.4767  0.6324 -2.5330
10378TIP3    H252626   4.743   2.508  11.596  1.5003  0.5231 -0.6089
10379TIP3   OH252627   1.836   2.600   3.521  0.5644  0.1730 -0.0102
10379TIP3    H152628   1.788   2.630   3.444 -1.0224 -0.7815  0.5594
10379TIP3    H252629   1.802   2.653   3.593 -0.5551 -1.3115  0.6009
10380TIP3   OH252630   5.894   1.868   4.035  0.0850  0.8474 -0.4649
10380TIP3    H152631   5.857   1.800   4.091  0.8643 -0.4109 -1.4405
10380TIP3    H252632   5.859   1.950   4.071 -1.7053 -0.1143  0.0968
10381TIP3   OH252633   5.353   6.775  15.447 -0.2339  0.4190 -0.4278
10381TIP3    H152634   5.279   6.715  15.437 -0.3937  0.7407 -1.2807
10381TIP3    H252635   5.353   6.799  15.539 -0.1747 -0.8789 -0.0670
10382TIP3   OH252636   2.261   3.481   3.288 -0.1543  0.3666  0.2563
10382TIP3    H152637   2.186   3.422   3.286  0.1174  0.0317 -0.2091
10382TIP3    H252638   2.309   3.462   3.207  0.2451  0.8197  0.3804
10383TIP3   OH252639   0.908   3.233   3.707 -0.0925  0.2375  0.2711
10383TIP3    H152640   0.901   3.269   3.795  0.2301  0.2203  0.3037
10383TIP3    H252641   0.818   3.230   3.675 -0.6610 -2.8710  1.8192
10384TIP3   OH252642   3.095   2.699   3.623 -0.4057  0.0691  0.2345
10384TIP3    H152643   3.128   2.665   3.706  0.3928 -1.4812 -0.6888
10384TIP3    H252644   3.137   2.785   3.614  1.4519 -0.7867  0.2920
10385TIP3   OH252645   2.266   6.634  15.090  0.0027  0.0449 -0.1016
10385TIP3    H152646   2.222   6.716  15.065  1.9753  1.1834 -0.0099
10385TIP3    H252647   2.341   6.662  15.143  0.2156 -1.8938  0.6921
10386TIP3   OH252648   6.766   5.892   1.263  0.4028  0.6637 -0.3200
10386TIP3    H152649   6.704   5.949   1.309 -0.9660 -0.2269 -0.9850
10386TIP3    H252650   6.716   5.813   1.243  2.0915 -0.5628  0.0750
10387TIP3   OH252651   2.645   0.281  15.248 -0.4600  1.2577 -0.0788
10387TIP3    H152652   2.653   0.266  15.342  0.0090 -1.2035 -0.4255
10387TIP3    H252653   2.573   0.225  15.221  0.8521  0.1490 -1.4745
10388TIP3   OH252654   3.409   6.797   2.973  0.0140 -0.0793  0.4983
10388TIP3    H152655   3.354   6.825   3.046 -0.5906 -0.9705  0.4042
10388TIP3    H252656   3.370   6.715   2.944  0.5606 -0.0103 -0.4883
10389TIP3   OH252657   4.422   2.216   5.967 -0.7464 -0.0101 -0.0668
10389TIP3    H152658   4.470   2.178   6.041 -2.0455 -1.6481  0.0057
10389TIP3    H252659   4.378   2.293   6.004 -0.2771 -0.0074  0.5086
10390TIP3   OH252660   4.473   3.071  14.381 -0.0205  0.3422  0.2249
10390TIP3    H152661   4.479   3.054  14.287  0.4528  0.6891  0.1869
10390TIP3    H252662   4.563   3.093  14.407  0.2110 -1.4229  1.0838
10391TIP3   OH252663   5.541   3.659   4.263  0.0957 -0.0048 -0.4022
10391TIP3    H152664   5.472   3.677   4.326  0.8297 -1.1777  0.7979
10391TIP3    H252665   5.539   3.733   4.202 -1.5841  0.4344  0.1424
10392TIP3   OH252666   0.170   0.565   4.431 -0.3998 -0.4912  0.1942
10392TIP3    H152667   0.241   0.629   4.436  0.7266 -1.6924  0.0871
10392TIP3    H252668   0.106   0.605   4.373 -0.5752  1.3049  1.5184
10393TIP3   OH252669   5.455   0.405   2.862  0.3150 -0.1178 -0.1219
10393TIP3    H152670   5.369   0.447   2.865  0.7550  0.7741  0.5036
10393TIP3    H252671   5.491   0.419   2.949  1.4650  0.3364 -0.6488
10394TIP3   OH252672   4.553   5.708   2.449 -0.5068  0.5808 -0.9532
10394TIP3    H152673   4.516   5.670   2.529  0.1598 -0.3932 -1.0898
10394TIP3    H252674   4.551   5.637   2.385  0.0142  1.0094 -1.4627
10395TIP3   OH252675   2.010   0.784  15.476  0.1307  0.2955  0.4846
10395TIP3    H152676   1.917   0.781  15.497  0.6164 -3.9159  3.0296
10395TIP3    H252677   2.050   0.827  15.552  0.3662  2.4437 -0.7698
10396TIP3   OH252678   4.822   1.994  13.748 -0.1246 -0.1556  0.0995
10396TIP3    H152679   4.882   2.038  13.688 -0.3760 -1.3966 -1.1126
10396TIP3    H252680   4.735   2.005  13.708 -0.2853 -1.0603  0.1787
10397TIP3   OH252681   5.841   2.535   2.809 -0.6799  0.1979 -0.3911
10397TIP3    H152682   5.808   2.457   2.763 -0.7692 -0.0432  0.0800
10397TIP3    H252683   5.845   2.602   2.741  1.3661 -0.7572 -1.3293
10398TIP3   OH252684   0.852   2.665   2.395  0.1775 -0.2055  0.2269
10398TIP3    H152685   0.781   2.602   2.409  0.7402 -0.7111  0.8630
10398TIP3    H252686   0.810   2.741   2.355 -0.4596 -1.1138 -0.8497
10399TIP3   OH252687   3.533   2.438   5.079  0.4580  0.7661 -0.6888
10399TIP3    H152688   3.562   2.360   5.032 -1.9880 -0.2143 -0.7068
10399TIP3    H252689   3.465   2.407   5.138 -0.8927  2.9401 -0.9863
10400TIP3   OH252690   1.518   3.481   2.923  0.3924 -0.0586 -0.2655
10400TIP3    H152691   1.470   3.415   2.973  0.4519  0.1896  0.1265
10400TIP3    H252692   1.542   3.437   2.842  0.4518 -0.5284  0.0019
10401TIP3   OH252693   0.437   5.034  16.157 -0.0948  0.0111 -0.2927
10401TIP3    H152694   0.385   5.068  16.084  0.9721 -0.0443 -1.1087
10401TIP3    H252695   0.475   4.953  16.123  0.0892 -0.2255  0.4724
10402TIP3   OH252696   3.275   6.806  16.442 -0.5991 -0.0288  0.2572
10402TIP3    H152697   3.333   6.877  16.414 -0.4965  0.6848  2.1443
10402TIP3    H252698   3.316   6.727  16.408  0.4350  0.6268 -0.0868
10403TIP3   OH252699   0.416   2.176  11.090 -0.2049  0.5053  0.3518
10403TIP3    H152700   0.413   2.259  11.137  0.2711  0.1900  0.9608
10403TIP3    H252701   0.328   2.166  11.052 -1.2126 -0.0429  2.6558
10404TIP3   OH252702   6.839   0.141  13.570  0.1841  0.4881 -0.0130
10404TIP3    H152703   6.924   0.179  13.595  2.0747 -2.2572 -1.7373
10404TIP3    H252704   6.809   0.097  13.650  1.3838 -0.1598  0.1099
10405TIP3   OH252705   3.890   0.905  16.314  0.5065 -0.0064  0.1144
10405TIP3    H152706   3.910   0.826  16.364 -2.8253 -1.3180 -0.3967
10405TIP3    H252707   3.940   0.894  16.233  1.5003 -0.6433  0.7734
10406TIP3   OH252708   1.290   0.180  14.618 -0.0056 -0.0256 -0.2634
10406TIP3    H152709   1.241   0.115  14.669 -1.3485  1.2598  0.1565
10406TIP3    H252710   1.380   0.147  14.616 -0.5309 -1.5885  0.4250
10407TIP3   OH252711   1.445   3.559   0.951 -0.5211 -0.1351  0.1426
10407TIP3    H152712   1.394   3.505   1.010  0.1196 -0.2109  0.6339
10407TIP3    H252713   1.498   3.497   0.901  1.3303  0.0640  1.7416
10408TIP3   OH252714   0.076   2.583   6.341  0.0990  0.3356  0.3086
10408TIP3    H152715   0.162   2.544   6.355  1.2657  2.0513 -1.4782
10408TIP3    H252716   0.042   2.601   6.428  1.3061 -0.8260  1.0476
10409TIP3   OH252717   0.625   6.344   1.092  0.0305 -0.0118 -0.3875
10409TIP3    H152718   0.548   6.346   1.148 -0.8687 -2.8184 -1.3758
10409TIP3    H252719   0.591   6.331   1.004  1.5694 -3.4159 -0.6352
10410TIP3   OH252720   6.741   0.553  12.761 -0.6270  0.3785 -0.2371
10410TIP3    H152721   6.766   0.504  12.683 -0.0478  0.4929 -0.1226
10410TIP3    H252722   6.782   0.638  12.751  0.2221  0.0868  0.6258
10411TIP3   OH252723   3.754   4.497  11.840  0.1363  0.1925  0.3013
10411TIP3    H152724   3.723   4.549  11.914 -1.5857 -0.1838 -0.1043
10411TIP3    H252725   3.815   4.434  11.879 -0.2700  0.4052  1.3102
10412TIP3   OH252726   1.253   1.338  10.699  0.0724  0.0847 -0.2500
10412TIP3    H152727   1.348   1.328  10.706 -0.1268 -0.9747  2.0332
10412TIP3    H252728   1.220   1.310  10.785 -2.1856  1.9903 -0.4048
10413TIP3   OH252729   2.491   4.065   1.937 -0.3258 -0.9371  0.1328
10413TIP3    H152730   2.511   4.086   1.846  0.1696 -1.8353  0.0263
10413TIP3    H252731   2.557   4.113   1.988  0.3851 -1.6818 -0.0702
10414TIP3   OH252732   0.613   3.087   5.976  0.2807  0.2133 -0.0733
10414TIP3    H152733   0.608   3.162   5.917 -0.8786  0.7676  0.6952
10414TIP3    H252734   0.678   3.113   6.042 -0.2126  0.6256  0.2672
10415TIP3   OH252735   3.239   1.619   1.354 -0.0861 -0.0301  0.3907
10415TIP3    H152736   3.198   1.552   1.409  1.6569  0.6969  2.7045
10415TIP3    H252737   3.307   1.572   1.306  2.0328  0.1800  2.9979
10416TIP3   OH252738   3.511   2.850   2.588 -0.0885 -0.1131 -0.0660
10416TIP3    H152739   3.489   2.939   2.615  1.5863 -0.2491  1.9175
10416TIP3    H252740   3.578   2.861   2.521 -0.4068  0.1096 -0.3550
10417TIP3   OH252741   0.220   4.199  11.536 -0.1697  0.0933 -0.1319
10417TIP3    H152742   0.191   4.286  11.562  0.1737  0.2643 -0.3240
10417TIP3    H252743   0.154   4.140  11.574  1.0344  0.2110  2.3421
10418TIP3   OH252744   4.716   3.541   0.663  0.1060  0.2789 -0.4683
10418TIP3    H152745   4.703   3.447   0.651  1.3993  0.1014 -0.6538
10418TIP3    H252746   4.645   3.568   0.720 -0.5580 -0.7245 -0.7872
10419TIP3   OH252747   3.850   3.114  15.220  0.0866 -0.0142 -0.3684
10419TIP3    H152748   3.808   3.105  15.135  0.2165 -0.5601 -0.3790
10419TIP3    H252749   3.779   3.103  15.283 -0.3148  2.0170 -0.4003
10420TIP3   OH252750   4.352   5.698   1.182  0.8378  0.1288 -0.2824
10420TIP3    H152751   4.446   5.714   1.175  0.9315 -0.0290  0.4829
10420TIP3    H252752   4.339   5.671   1.273  0.1797 -0.7255 -0.6144
10421TIP3   OH252753   2.111   3.340  12.941 -0.1350 -0.9993  0.1180
10421TIP3    H152754   2.114   3.327  13.035 -0.5622 -0.1941  0.2537
10421TIP3    H252755   2.075   3.258  12.906 -0.3422 -1.1511  0.6860
10422TIP3   OH252756   3.842   1.706   4.607  0.2143  0.4528 -0.6431
10422TIP3    H152757   3.794   1.633   4.566 -0.2728  0.0569  0.5849
10422TIP3    H252758   3.934   1.686   4.590  0.1084 -0.6973  0.0412
10423TIP3   OH252759   5.415   4.630  16.915 -0.0773 -0.2210 -0.1874
10423TIP3    H152760   5.469   4.556  16.943  0.3347 -0.4827 -1.5578
10423TIP3    H252761   5.403   4.683  16.993  0.1510 -1.4146  0.6806
10424TIP3   OH252762   3.021   2.103  16.794 -0.0055  0.0950 -0.3641
10424TIP3    H152763   2.995   2.048  16.868 -0.6899  1.5051  0.4773
10424TIP3    H252764   3.052   2.041  16.728  0.4173 -1.2145  1.0142
10425TIP3   OH252765   3.343   5.301   0.215 -0.4492  0.7890 -0.0673
10425TIP3    H152766   3.251   5.288   0.192 -0.6710  1.4450  0.4068
10425TIP3    H252767   3.342   5.375   0.276  0.3806  0.7181  0.0439
10426TIP3   OH252768   1.478   6.132  12.653 -0.6110 -0.0722 -0.3191
10426TIP3    H152769   1.541   6.076  12.609 -0.6237  0.1040 -0.5640
10426TIP3    H252770   1.526   6.168  12.728 -1.1569 -1.9272  1.0082
10427TIP3   OH252771   1.629   6.576   1.721  0.0386  0.3005 -0.0511
10427TIP3    H152772   1.657   6.505   1.779 -0.4920 -0.4293 -0.6760
10427TIP3    H252773   1.644   6.543   1.633  0.6610  1.3293 -0.3490
10428TIP3   OH252774   4.009   0.082  13.497 -0.3863  0.1702  0.3896
10428TIP3    H152775   4.079   0.135  13.459  0.1213 -1.2759 -0.8161
10428TIP3    H252776   3.933   0.140  13.498  0.3448  1.1690 -0.0888
10429TIP3   OH252777   3.340   4.175   2.681 -1.0235  0.1898  0.8944
10429TIP3    H152778   3.331   4.125   2.763 -1.4298 -2.2616 -0.5374
10429TIP3    H252779   3.289   4.254   2.696 -1.1878 -0.2333  2.9616
10430TIP3   OH252780   5.635   3.913  12.779 -0.5439  0.3658  0.5717
10430TIP3    H152781   5.652   3.825  12.813 -1.1391 -0.8166 -1.9044
10430TIP3    H252782   5.549   3.906  12.737  0.5144  1.3234 -1.9419
10431TIP3   OH252783   5.915   0.670  15.724  0.1237  0.0573  0.7375
10431TIP3    H152784   5.967   0.739  15.682  0.3036 -0.8560 -0.6120
10431TIP3    H252785   5.835   0.666  15.673 -1.3622  1.4292  2.7863
10432TIP3   OH252786   0.869   3.739   4.427 -0.0062  0.0901 -0.1999
10432TIP3    H152787   0.778   3.758   4.407  0.3833  0.5237 -1.7234
10432TIP3    H252788   0.897   3.677   4.359  1.1509  0.9396 -0.5389
10433TIP3   OH252789   5.926   3.864   2.013 -0.5500 -0.2063 -0.0722
10433TIP3    H152790   6.011   3.830   2.041  0.2800  2.1234  0.4772
10433TIP3    H252791   5.916   3.946   2.061 -2.6543  0.0942 -0.9132
10434TIP3   OH252792   5.598   0.840   3.742  0.6788  0.1911 -0.5450
10434TIP3    H152793   5.611   0.788   3.663 -0.5284 -0.1125 -0.5650
10434TIP3    H252794   5.617   0.930   3.715  0.7908  0.0235 -1.0397
10435TIP3   OH252795   2.628   0.054  11.826 -0.4659  0.1306  0.4486
10435TIP3    H152796   2.722   0.040  11.833 -0.4544 -0.4037 -0.5819
10435TIP3    H252797   2.607   0.033  11.735 -1.9253 -1.7219  1.1543
10436TIP3   OH252798   2.862   4.017  12.876 -0.0959  0.5779  0.2416
10436TIP3    H152799   2.881   4.050  12.964 -0.8834  0.9693  0.2802
10436TIP3    H252800   2.799   3.946  12.890 -0.2337  0.6496  0.0042
10437TIP3   OH252801   4.144   6.209   1.109 -0.3808 -0.2710  0.0099
10437TIP3    H152802   4.163   6.119   1.132 -0.5483 -0.7983 -1.7836
10437TIP3    H252803   4.171   6.217   1.018 -2.1395  0.9376 -0.4532
10438TIP3   OH252804   6.514   6.531   2.356 -1.0369  0.8072 -0.0964
10438TIP3    H152805   6.542   6.619   2.332 -0.9837  0.6368 -0.6549
10438TIP3    H252806   6.594   6.479   2.354 -0.6195  1.2116  2.5036
10439TIP3   OH252807   0.680   4.521   0.061  0.0546 -0.1456  0.5920
10439TIP3    H152808   0.663   4.439   0.108  0.0243 -0.6216 -0.2380
10439TIP3    H252809   0.611   4.526  -0.005  2.0789 -1.3152 -1.7696
10440TIP3   OH252810   5.043   2.346  14.574 -0.0138  0.3592 -0.1333
10440TIP3    H152811   5.095   2.321  14.651 -1.8403  1.5089  1.5690
10440TIP3    H252812   5.024   2.438  14.588 -2.8030 -0.0993 -0.4707
10441TIP3   OH252813   3.921   0.069   2.982  0.4056 -0.2038 -0.1711
10441TIP3    H152814   3.939  -0.019   2.949  2.3846 -0.0258  0.3188
10441TIP3    H252815   3.937   0.126   2.906  0.2912 -0.1678 -0.1685
10442TIP3   OH252816   5.727   0.422  11.398 -0.3896 -0.0792  0.6441
10442TIP3    H152817   5.820   0.416  11.374 -0.3580  0.9465  0.4671
10442TIP3    H252818   5.683   0.365  11.334 -0.0556  0.8052 -0.4177
10443TIP3   OH252819   5.222   6.624   5.956 -0.3251  0.2954  0.4012
10443TIP3    H152820   5.300   6.598   5.906 -0.3279  0.3170  0.3856
10443TIP3    H252821   5.256   6.652   6.041 -0.4521 -1.2587  0.9898
10444TIP3   OH252822   0.518   5.106   0.765 -0.5723  0.3436 -0.8724
10444TIP3    H152823   0.479   5.023   0.737  2.4052 -2.0868  1.4882
10444TIP3    H252824   0.598   5.113   0.714  0.5012  0.3492  0.7450
10445TIP3   OH252825   0.671   3.009   5.347  0.0071  0.0062 -0.8771
10445TIP3    H152826   0.759   3.010   5.308  1.1001 -1.2920  1.3337
10445TIP3    H252827   0.668   3.087   5.402  0.2973 -0.6235  0.0500
10446TIP3   OH252828   5.650   5.804   4.254 -0.1349 -0.1696  0.4589
10446TIP3    H152829   5.628   5.716   4.286 -1.4223 -0.0240  0.0588
10446TIP3    H252830   5.565   5.842   4.230  0.6693 -0.1417 -2.8360
10447TIP3   OH252831   6.412   0.476  16.989  0.2134 -0.3066 -0.1463
10447TIP3    H152832   6.328   0.431  16.998 -0.7634  1.4465 -0.0328
10447TIP3    H252833   6.432   0.470  16.896 -0.5449  0.0665 -0.3462
10448TIP3   OH252834   4.698   5.014   2.055 -0.5189  0.3535  0.3954
10448TIP3    H152835   4.729   5.005   2.145 -0.5997  2.9457  0.7654
10448TIP3    H252836   4.603   5.028   2.064 -0.8357 -1.2545 -0.2558
10449TIP3   OH252837   6.372   3.451  12.866  0.3586 -0.1183  0.2229
10449TIP3    H152838   6.430   3.420  12.935  1.2084  1.8883  0.5049
10449TIP3    H252839   6.348   3.373  12.816  2.4999 -1.1444  0.7182
10450TIP3   OH252840   1.198   4.803  14.725  0.2956 -0.2176 -0.0275
10450TIP3    H152841   1.126   4.816  14.786  0.5299  1.0377 -0.0104
10450TIP3    H252842   1.188   4.872  14.660  0.4078 -1.1586 -1.0924
10451TIP3   OH252843   0.587   2.210  15.429 -0.7908  0.1189 -0.0781
10451TIP3    H152844   0.511   2.263  15.453 -1.9048 -1.4057 -0.0829
10451TIP3    H252845   0.560   2.120  15.448  2.0468 -0.3057  2.7628
10452TIP3   OH252846   5.160   6.804   2.689  0.3832 -0.6096  0.1730
10452TIP3    H152847   5.083   6.784   2.742 -0.0503  0.6789  0.0608
10452TIP3    H252848   5.134   6.879   2.635  2.1314  0.7252  1.0874
10453TIP3   OH252849   6.728   6.575   2.118  0.1349  0.3965  0.0674
10453TIP3    H152850   6.780   6.589   2.039  1.4578 -0.8551  0.6816
10453TIP3    H252851   6.702   6.663   2.144  2.5327  1.1822  0.0976
10454TIP3   OH252852   4.233   5.234  13.016 -0.0090  0.2136 -0.3403
10454TIP3    H152853   4.161   5.229  12.953  1.5152  0.6599 -2.2084
10454TIP3    H252854   4.249   5.143  13.041 -2.2594  0.1957  1.4809
10455TIP3   OH252855   4.114   0.979  15.743  0.0887  0.2611  0.3961
10455TIP3    H152856   4.081   0.891  15.722  1.2916  0.0207 -0.6480
10455TIP3    H252857   4.093   1.031  15.666  2.5765 -0.0595 -0.6111
10456TIP3   OH252858   5.806   3.663   3.895  0.0262  0.1575 -0.4393
10456TIP3    H152859   5.858   3.639   3.972 -1.1963 -1.7216 -0.1265
10456TIP3    H252860   5.871   3.676   3.825  1.0662  0.5011  0.5645
10457TIP3   OH252861   2.165   0.342  10.426 -0.4074 -0.1297  0.0790
10457TIP3    H152862   2.241   0.294  10.392 -2.0092 -2.7472 -0.0957
10457TIP3    H252863   2.200   0.394  10.498  1.9432  0.6433 -1.5054
10458TIP3   OH252864   1.969   2.937   0.697  0.4085  0.5341 -0.2317
10458TIP3    H152865   2.050   2.888   0.682  0.2068 -0.3465  1.3956
10458TIP3    H252866   1.928   2.941   0.610  0.9062 -1.3317 -0.6073
10459TIP3   OH252867   1.986   4.993  16.470  0.2167 -0.1462 -0.6636
10459TIP3    H152868   1.964   4.997  16.563  0.3636  1.3510 -0.6617
10459TIP3    H252869   2.082   4.984  16.469  0.0381 -2.5631 -0.6887
10460TIP3   OH252870   1.226   0.049   1.444 -0.0923 -0.2854  0.1368
10460TIP3    H152871   1.315   0.078   1.464 -0.4556  0.7479  0.3403
10460TIP3    H252872   1.237  -0.017   1.376  0.8147  0.0338 -0.0440
10461TIP3   OH252873   3.580   1.431   3.954  0.1567 -0.2554 -0.3290
10461TIP3    H152874   3.523   1.379   4.010  0.6916  0.4172  0.8736
10461TIP3    H252875   3.521   1.494   3.912 -0.0133  0.4566  0.9270
10462TIP3   OH252876   3.023   0.426  15.866  0.3434 -0.4307 -0.2494
10462TIP3    H152877   3.110   0.463  15.875  1.2368 -2.6608  1.2102
10462TIP3    H252878   3.022   0.353  15.928 -2.0054 -1.4755 -1.4070
10463TIP3   OH252879   6.059   1.751   5.610  0.2538  0.1284  0.0678
10463TIP3    H152880   5.977   1.719   5.573  1.0536 -1.8585 -0.1011
10463TIP3    H252881   6.063   1.712   5.697  0.6771  0.8256  0.3675
10464TIP3   OH252882   1.796   3.996   4.764 -0.1890 -0.4498  0.0824
10464TIP3    H152883   1.764   4.000   4.674 -1.5469  1.1488  0.5917
10464TIP3    H252884   1.717   3.999   4.818  0.6386 -0.4938  1.3385
10465TIP3   OH252885   3.721   6.470   0.155 -0.0041  0.1669  0.0171
10465TIP3    H152886   3.762   6.521   0.225  0.7551 -0.3724 -0.0276
10465TIP3    H252887   3.635   6.510   0.144  0.1682  0.7528  0.7229
10466TIP3   OH252888   4.782   3.132  13.933  0.2086 -0.3371  0.1177
10466TIP3    H152889   4.702   3.121  13.882  0.1322 -0.3495  0.2386
10466TIP3    H252890   4.773   3.216  13.977  0.6697  0.0813 -0.5790
10467TIP3   OH252891   3.173   3.431   5.385 -0.4890 -0.5239  0.4459
10467TIP3    H152892   3.169   3.343   5.347 -1.3606 -0.7801  1.0905
10467TIP3    H252893   3.193   3.416   5.477 -0.4750 -0.0369  0.5231
10468TIP3   OH252894   5.941   4.098   2.129  0.0086 -0.3524  0.1359
10468TIP3    H152895   5.928   4.129   2.219  0.7120  1.1534 -0.2373
10468TIP3    H252896   6.018   4.147   2.098  0.6646 -1.9119 -0.8206
10469TIP3   OH252897   1.054   1.862  11.397  0.3805  0.0241 -0.2249
10469TIP3    H152898   0.973   1.815  11.381  0.6250 -1.0501  1.4100
10469TIP3    H252899   1.120   1.814  11.345  0.1200  0.4410 -0.9566
10470TIP3   OH252900   5.156   2.703   0.924  0.8091  0.4369  0.2612
10470TIP3    H152901   5.074   2.742   0.895 -0.1427  1.7088  4.0984
10470TIP3    H252902   5.150   2.611   0.896 -1.3225  0.7834 -0.6376
10471TIP3   OH252903   6.049   6.800  15.543 -1.4006 -0.1220 -0.2617
10471TIP3    H152904   6.069   6.716  15.583  0.7463  0.9772  1.1632
10471TIP3    H252905   6.082   6.792  15.453  1.8480  0.1385  0.7671
10472TIP3   OH252906   4.227   2.546   6.685 -0.0229  1.0621 -0.3570
10472TIP3    H152907   4.202   2.638   6.677 -1.8251  0.6612  0.1812
10472TIP3    H252908   4.287   2.531   6.612 -1.0341  2.2467 -1.4805
10473TIP3   OH252909   1.117   4.240   0.957 -0.2066 -0.3120 -0.2874
10473TIP3    H152910   1.205   4.202   0.958 -0.9616 -2.1436  0.2729
10473TIP3    H252911   1.099   4.263   1.048 -0.2486  0.2777 -0.4359
10474TIP3   OH252912   4.422   0.232   2.713 -0.1358  0.1207 -0.4926
10474TIP3    H152913   4.362   0.294   2.755 -0.4133  1.3188 -2.4694
10474TIP3    H252914   4.505   0.279   2.708 -0.6323  0.9129 -3.0200
10475TIP3   OH252915   3.547   1.538   2.885 -0.5367  0.2991  0.1292
10475TIP3    H152916   3.540   1.541   2.980  2.2364 -0.6659  0.4361
10475TIP3    H252917   3.602   1.612   2.862  0.6303 -0.7097 -0.4584
10476TIP3   OH252918   1.315   0.065   3.659 -0.4591 -0.5796 -0.3569
10476TIP3    H152919   1.322  -0.024   3.624 -0.7521 -0.1656 -1.4793
10476TIP3    H252920   1.223   0.089   3.646 -0.6343 -0.4808  0.8889
10477TIP3   OH252921   3.394   1.210   0.060  0.7775 -0.5418  0.4060
10477TIP3    H152922   3.455   1.137   0.076  0.8320 -0.7673 -0.6902
10477TIP3    H252923   3.372   1.201  -0.033  1.0913  1.0877  0.1556
10478TIP3   OH252924   5.110   5.073   6.274 -0.5214 -0.9516  0.2650
10478TIP3    H152925   5.145   5.002   6.219 -0.4865 -0.5197 -0.2849
10478TIP3    H252926   5.101   5.147   6.214  0.4585 -0.1594  1.0473
10479TIP3   OH252927   6.859   0.556   3.773 -0.1455 -0.2339 -0.3950
10479TIP3    H152928   6.770   0.566   3.805 -0.1334  1.7029 -0.8233
10479TIP3    H252929   6.914   0.581   3.847  0.0742 -1.5851 -0.0772
10480TIP3   OH252930   4.467   5.468  10.907  0.0360  0.2489  0.2348
10480TIP3    H152931   4.387   5.471  10.959 -0.2609  0.4418 -0.2239
10480TIP3    H252932   4.466   5.550  10.858  1.0725  0.7685  1.0371
10481TIP3   OH252933   5.353   5.367  11.455  0.2633 -0.8928 -0.1247
10481TIP3    H152934   5.312   5.343  11.538 -2.0896 -1.4662 -1.3559
10481TIP3    H252935   5.335   5.461  11.445  1.6827 -0.5236  0.5742
10482TIP3   OH252936   5.318   4.177   1.514 -0.0972  0.2083 -0.0558
10482TIP3    H152937   5.376   4.122   1.462  0.8959  0.0815  1.1425
10482TIP3    H252938   5.372   4.205   1.588 -1.3669  0.6635  0.7257
10483TIP3   OH252939   1.931   3.804   1.174 -0.5126 -0.2222 -0.0868
10483TIP3    H152940   1.912   3.894   1.200 -0.8930 -1.0976  3.0895
10483TIP3    H252941   1.846   3.767   1.151 -0.5000 -0.0477 -0.4148
10484TIP3   OH252942   3.468   3.966   0.715  0.0728  0.2784  0.4346
10484TIP3    H152943   3.469   3.992   0.623 -0.7669  1.5158  0.7529
10484TIP3    H252944   3.557   3.982   0.746  0.5925 -0.9141 -0.3346
10485TIP3   OH252945   6.240   0.892   2.297 -0.8151 -0.3526  0.1827
10485TIP3    H152946   6.184   0.954   2.344 -0.6168  0.3732 -0.4965
10485TIP3    H252947   6.199   0.883   2.211  1.0302  1.6385 -1.0133
10486TIP3   OH252948   5.709   1.053   2.909  0.1776 -0.0427 -0.0782
10486TIP3    H152949   5.748   1.078   2.993  2.7689 -0.2372 -1.1191
10486TIP3    H252950   5.661   0.972   2.928 -0.2560  0.5415  1.4296
10487TIP3   OH252951   0.598   3.095  15.451  0.2827 -0.0672  0.8360
10487TIP3    H152952   0.687   3.085  15.415  0.5203  0.3592  1.2952
10487TIP3    H252953   0.556   3.157  15.392  0.8561  1.0740  1.5881
10488TIP3   OH252954   1.115   3.466   5.347  0.2256  0.0679  0.2166
10488TIP3    H152955   1.104   3.538   5.285 -0.1678 -1.9624 -2.2754
10488TIP3    H252956   1.034   3.415   5.339  1.0027 -1.3385  0.9379
10489TIP3   OH252957   4.371   0.485  11.257 -0.4933  0.3469 -0.7120
10489TIP3    H152958   4.448   0.483  11.314  0.1217 -0.0359 -1.5090
10489TIP3    H252959   4.388   0.557  11.196  0.0890 -0.8111 -1.9773
10490TIP3   OH252960   4.467   0.929   5.187 -0.4392  0.0441  0.3784
10490TIP3    H152961   4.461   0.925   5.092 -0.2514  1.2726  0.3001
10490TIP3    H252962   4.471   0.838   5.215 -3.8883 -0.5512 -0.5735
10491TIP3   OH252963   3.275   0.113   0.649  0.1724  0.1035 -0.0623
10491TIP3    H152964   3.229   0.047   0.597  0.0152  0.8037 -0.8294
10491TIP3    H252965   3.275   0.078   0.738 -0.4229 -0.6541 -0.3529
10492TIP3   OH252966   0.849   6.118   0.352 -0.3626 -0.1109  0.0948
10492TIP3    H152967   0.772   6.086   0.398 -0.9601 -0.4250 -1.0754
10492TIP3    H252968   0.866   6.052   0.285 -1.2407  1.6337 -1.9745
10493TIP3   OH252969   5.857   1.435  10.222  0.3280  0.0074 -0.2273
10493TIP3    H152970   5.923   1.491  10.262 -0.3586  2.3163 -2.1465
10493TIP3    H252971   5.827   1.483  10.145 -0.2835 -3.0436 -2.0713
10494TIP3   OH252972   3.101   2.422   2.724 -0.0708  0.5145 -0.0544
10494TIP3    H152973   3.025   2.384   2.769 -0.4004  0.4046 -0.7021
10494TIP3    H252974   3.070   2.506   2.691 -0.6068 -0.4663 -2.2457
10495TIP3   OH252975   5.366   5.652   3.060 -0.0553  0.1816  0.2360
10495TIP3    H152976   5.278   5.681   3.087 -0.3335 -1.1190  0.8012
10495TIP3    H252977   5.423   5.725   3.083 -0.7725  0.4232  1.3364
10496TIP3   OH252978   1.773   2.337   3.731 -0.1823  0.0658  0.4326
10496TIP3    H152979   1.703   2.307   3.673  0.5337  0.6556 -0.7518
10496TIP3    H252980   1.854   2.316   3.685  0.5431 -2.0104  2.4307
10497TIP3   OH252981   1.906   6.682  14.265 -0.0240  0.5095 -0.5527
10497TIP3    H152982   1.853   6.748  14.221 -2.7468 -1.2018 -0.0421
10497TIP3    H252983   1.974   6.659  14.201 -0.3337  2.2006 -1.5362
10498TIP3   OH252984   2.223   2.150   4.061 -0.2047  0.1591 -0.5384
10498TIP3    H152985   2.167   2.120   4.132 -1.6494 -0.2766 -1.7885
10498TIP3    H252986   2.170   2.137   3.982  1.8349 -0.7377 -1.8568
10499TIP3   OH252987   2.993   0.980   1.774 -0.1900  0.4599  0.5253
10499TIP3    H152988   2.898   0.971   1.775 -0.3593  0.3525 -3.2442
10499TIP3    H252989   3.023   0.908   1.719  2.0127  1.0190  0.8988
10500TIP3   OH252990   3.433   1.962   5.835  0.1338  0.1180 -0.8157
10500TIP3    H152991   3.423   2.048   5.794  1.0526 -0.0270 -1.3826
10500TIP3    H252992   3.477   1.980   5.918 -1.6425  0.4029  0.0939
10501TIP3   OH252993   2.535   2.990  16.359 -0.7429  0.6325  0.3258
10501TIP3    H152994   2.543   2.996  16.264  1.2529 -0.6836  0.3652
10501TIP3    H252995   2.571   2.904  16.381 -2.1685  0.4462  2.1937
10502TIP3   OH252996   1.305   6.697  15.683 -0.7188 -0.3565  0.1201
10502TIP3    H152997   1.243   6.641  15.730 -1.9316  1.5948  0.9776
10502TIP3    H252998   1.334   6.761  15.748 -0.4606  0.8574 -1.1295
10503TIP3   OH252999   3.896   6.325   1.268 -0.0104 -0.6129 -0.0804
10503TIP3    H153000   3.900   6.246   1.323 -0.6025  0.5542  1.7472
10503TIP3    H253001   3.971   6.317   1.210 -0.2661 -2.6949 -0.2327
10504TIP3   OH253002   4.981   4.620   0.812 -0.0050  0.1907 -0.0845
10504TIP3    H153003   4.904   4.628   0.869 -0.6514  0.2328 -0.9423
10504TIP3    H253004   4.947   4.631   0.723  1.1930  1.5032 -0.4169
10505TIP3   OH253005   4.634   1.043   5.903  0.1868  0.0350  0.0293
10505TIP3    H153006   4.592   1.098   5.969  1.9310  1.3359  0.1258
10505TIP3    H253007   4.634   1.097   5.824 -0.8148 -1.0462 -0.7333
10506TIP3   OH253008   5.503   0.844   2.878  0.0321 -0.2004  0.4327
10506TIP3    H153009   5.417   0.883   2.867  1.1036  2.4623  0.7160
10506TIP3    H253010   5.529   0.817   2.789 -0.7018 -0.1086  0.1878
10507TIP3   OH253011   5.417   0.495  10.999  0.7336 -0.0023 -0.5427
10507TIP3    H153012   5.478   0.456  11.061  0.2982 -1.8839 -1.2399
10507TIP3    H253013   5.457   0.482  10.913 -0.1386 -0.2983 -0.9192
10508TIP3   OH253014   2.430   5.938  15.721 -0.4154  0.2060  0.1651
10508TIP3    H153015   2.476   6.017  15.691 -0.5682  0.4731  0.6240
10508TIP3    H253016   2.340   5.950  15.691 -0.3576  0.0354 -0.0789
10509TIP3   OH253017   1.550   1.793  13.097 -0.2667 -0.6670  0.0132
10509TIP3    H153018   1.622   1.784  13.159  1.6257  1.2804 -1.7003
10509TIP3    H253019   1.535   1.705  13.063 -0.2580 -1.4765  2.0071
10510TIP3   OH253020   4.382   3.702  16.653 -0.1797  0.3176  0.0375
10510TIP3    H153021   4.469   3.738  16.634 -0.2975  0.4306 -0.2826
10510TIP3    H253022   4.397   3.645  16.729  0.2783 -0.1304 -0.3838
10511TIP3   OH253023   2.938   4.914   0.273  0.6296  0.1932 -0.3831
10511TIP3    H153024   2.946   4.873   0.359 -0.2625  0.6158 -0.0883
10511TIP3    H253025   3.020   4.961   0.261  0.8935 -0.1403  0.0985
10512TIP3   OH253026   3.182   3.754   2.278 -0.2947  0.1954 -0.1430
10512TIP3    H153027   3.212   3.758   2.188  2.6895  2.3587  0.7732
10512TIP3    H253028   3.111   3.818   2.283 -1.0656 -0.5625 -1.0934
10513TIP3   OH253029   0.590   3.384   1.094  0.1052  0.7497  0.0506
10513TIP3    H153030   0.500   3.380   1.126  0.3138 -0.1336  0.5548
10513TIP3    H253031   0.583   3.423   1.007 -0.8168  0.2339 -0.1179
10514TIP3   OH253032   4.484   5.165   5.860 -0.0826 -0.2461  0.5500
10514TIP3    H153033   4.442   5.138   5.942  0.8895 -0.9942  0.8250
10514TIP3    H253034   4.568   5.202   5.888  1.0267 -2.0461 -0.1608
10515TIP3   OH253035   6.183   1.073   0.469  0.2049 -0.0726 -0.6259
10515TIP3    H153036   6.268   1.041   0.441 -0.1672 -0.9634 -0.7804
10515TIP3    H253037   6.145   1.114   0.392  0.4966  0.3285 -0.5547
10516TIP3   OH253038   4.530   1.791   3.054  0.4097 -0.1608  0.2808
10516TIP3    H153039   4.535   1.886   3.043  0.3320 -0.2835 -0.8558
10516TIP3    H253040   4.498   1.780   3.144  2.4128  0.8560  1.1897
10517TIP3   OH253041   2.051   2.669   0.882  0.2624  0.3815 -0.6632
10517TIP3    H153042   2.114   2.727   0.925  1.2504 -1.2510  0.1897
10517TIP3    H253043   2.062   2.585   0.926 -1.0292 -0.5022 -1.9413
10518TIP3   OH253044   5.516   1.329  14.850 -0.3119  0.2140 -0.2981
10518TIP3    H153045   5.527   1.336  14.756  0.1236  1.6904 -0.1731
10518TIP3    H253046   5.441   1.271  14.862  2.3476 -3.8819 -1.4153
10519TIP3   OH253047   2.563   0.717  10.742 -0.2010 -0.4366 -0.0555
10519TIP3    H153048   2.577   0.800  10.696 -0.9753 -0.3695 -0.1757
10519TIP3    H253049   2.469   0.701  10.735 -0.3369 -0.4492  1.4771
10520TIP3   OH253050   1.044   3.570  11.101  0.0460  0.2349  0.5762
10520TIP3    H153051   0.960   3.615  11.108  0.3309  0.9190 -0.2184
10520TIP3    H253052   1.021   3.477  11.091 -0.6110  0.4111  0.3837
10521TIP3   OH253053   1.223   6.110  12.768  0.5186 -0.7761 -0.2888
10521TIP3    H153054   1.299   6.142  12.720  0.0756  1.5949  0.4478
10521TIP3    H253055   1.151   6.167  12.740 -0.1057 -0.3894  1.9022
10522TIP3   OH253056   2.045   6.700  13.540  0.1019 -0.0453 -0.3830
10522TIP3    H153057   2.071   6.608  13.543  1.5064  0.3572  1.2835
10522TIP3    H253058   2.005   6.716  13.626 -0.1051  0.9170 -0.6524
10523TIP3   OH253059   0.972   6.177   3.325  0.8242 -0.0419 -0.3669
10523TIP3    H153060   1.036   6.164   3.255 -0.1744 -0.1289 -1.2850
10523TIP3    H253061   0.918   6.098   3.323 -0.8666  1.0881 -1.2824
10524TIP3   OH253062   5.153   3.253  14.145 -0.3748 -0.0302  0.5759
10524TIP3    H153063   5.153   3.170  14.098 -1.4024  0.2929 -0.0222
10524TIP3    H253064   5.061   3.273  14.160 -0.1814  1.2888  0.1792
10525TIP3   OH253065   1.386   1.122  14.366 -0.4959  0.3308 -0.1373
10525TIP3    H153066   1.465   1.073  14.388 -1.6521 -0.8913  1.6599
10525TIP3    H253067   1.393   1.139  14.272  1.5168 -0.4057 -0.1686
10526TIP3   OH253068   0.465   0.957  11.981  0.0064  0.0508 -0.4276
10526TIP3    H153069   0.428   0.911  11.906  1.1505 -0.8611 -0.4592
10526TIP3    H253070   0.560   0.949  11.970  0.2490  2.1010 -0.2220
10527TIP3   OH253071   4.727   0.358  12.208 -0.1273 -0.1383  0.2759
10527TIP3    H153072   4.745   0.282  12.154  0.2774 -0.1904  0.4807
10527TIP3    H253073   4.808   0.409  12.206  0.3674 -0.7920  1.8958
10528TIP3   OH253074   0.003   0.415  16.455  0.1504  0.5513  0.5048
10528TIP3    H153075   0.076   0.356  16.472 -1.0815 -0.7498  1.5898
10528TIP3    H253076  -0.001   0.421  16.359  0.6646 -0.6989  0.3910
10529TIP3   OH253077   3.061   3.364  14.248 -0.0684 -0.4996 -0.2165
10529TIP3    H153078   3.000   3.401  14.312  0.0726  0.9609 -0.9110
10529TIP3    H253079   3.123   3.313  14.302  0.6605  1.5178  0.9606
10530TIP3   OH253080   0.704   3.567  11.680  0.3983 -0.1801  0.1644
10530TIP3    H153081   0.687   3.496  11.742 -2.5774 -0.9830 -1.3906
10530TIP3    H253082   0.664   3.644  11.720  1.1706  0.0183  0.5782
10531TIP3   OH253083   2.923   1.267  15.212 -0.1589 -0.0073 -0.4734
10531TIP3    H153084   2.973   1.293  15.134 -0.0095  1.1625 -0.0122
10531TIP3    H253085   2.951   1.329  15.280  0.8697 -1.9502  0.9772
10532TIP3   OH253086   1.217   2.146  12.069 -0.1664  0.8209 -0.5137
10532TIP3    H153087   1.157   2.073  12.088  0.3453  0.6930  0.6546
10532TIP3    H253088   1.210   2.204  12.144 -0.7412  2.1372 -1.5321
10533TIP3   OH253089   3.172   3.662   2.649  0.1311 -0.0721  0.0797
10533TIP3    H153090   3.225   3.741   2.631 -1.3629  1.0195  0.3016
10533TIP3    H253091   3.084   3.685   2.619 -0.3300 -1.7204  0.0619
10534TIP3   OH253092   3.109   5.349  11.141  0.4281 -0.2615  0.3055
10534TIP3    H153093   3.123   5.355  11.047 -0.3265  0.6855  0.2419
10534TIP3    H253094   3.103   5.440  11.170  2.0069 -0.5019  1.4836
10535TIP3   OH253095   4.935   3.841   0.165  0.3041  0.0753 -0.1010
10535TIP3    H153096   5.000   3.889   0.114  0.6150  1.4540  1.5200
10535TIP3    H253097   4.857   3.897   0.163 -0.1251 -0.5114 -0.1856
10536TIP3   OH253098   3.861   6.282   3.112  0.1852 -0.1051 -0.0925
10536TIP3    H153099   3.924   6.295   3.041  0.6441 -1.2470  0.0755
10536TIP3    H253100   3.833   6.191   3.102  1.0097 -0.5985  1.7696
10537TIP3   OH253101   6.047   5.413   0.005  0.3442  0.6008 -0.2956
10537TIP3    H153102   6.067   5.451  -0.080  1.2856  1.7612  0.3940
10537TIP3    H253103   6.133   5.393   0.043 -0.0420  0.3662  0.4846
10538TIP3   OH253104   4.024   1.274  12.920  0.3100 -0.2718  0.3124
10538TIP3    H153105   3.970   1.288  12.998 -0.0468  1.5098 -0.1997
10538TIP3    H253106   3.992   1.192  12.883 -1.8151  0.4791  0.2839
10539TIP3   OH253107   2.149   0.180  11.542  1.0132  0.3513 -0.2265
10539TIP3    H153108   2.103   0.145  11.466 -2.5930 -1.2732  2.4040
10539TIP3    H253109   2.159   0.273  11.524 -0.6419  0.1854 -2.2696
10540TIP3   OH253110   0.913   1.704   5.376  0.4673  0.2627 -0.4111
10540TIP3    H153111   0.927   1.620   5.419  0.2079 -0.9506 -2.5904
10540TIP3    H253112   1.001   1.740   5.364  0.5982  0.1842  0.2515
10541TIP3   OH253113   4.695   5.084   4.826  0.3915 -0.0198  0.7583
10541TIP3    H153114   4.658   5.171   4.805 -0.9143 -0.6067  0.4888
10541TIP3    H253115   4.716   5.089   4.919 -1.3718  0.0442  1.2021
10542TIP3   OH253116   6.440   2.999  16.993  0.6215 -0.5770  0.3809
10542TIP3    H153117   6.477   2.985  16.906  0.1082 -0.0914  0.0852
10542TIP3    H253118   6.457   3.091  17.013 -0.3387 -0.3629  0.2747
10543TIP3   OH253119   2.758   3.197   0.967  0.4328 -0.0593  0.8312
10543TIP3    H153120   2.728   3.278   0.925 -0.3193  1.1525  3.5163
10543TIP3    H253121   2.852   3.195   0.951  0.2227  0.4778 -0.6149
10544TIP3   OH253122   4.216   1.309  11.365  0.2977 -0.0459 -0.3080
10544TIP3    H153123   4.275   1.302  11.440  0.0400 -2.0724 -0.2467
10544TIP3    H253124   4.129   1.315  11.405  0.1893 -0.7536 -0.4339
10545TIP3   OH253125   5.286   0.180  12.452 -0.1759  0.4589  0.2103
10545TIP3    H153126   5.273   0.115  12.521 -0.0437  0.2667  0.0564
10545TIP3    H253127   5.377   0.208  12.464 -1.0492  2.8159  2.1592
10546TIP3   OH253128   2.393   1.533   0.355 -0.3614 -0.4212 -0.1193
10546TIP3    H153129   2.353   1.616   0.330  1.2235 -0.2015 -2.2078
10546TIP3    H253130   2.318   1.474   0.368 -1.4487  0.8332 -0.4178
10547TIP3   OH253131   0.121   4.911   1.382  0.1532  0.4383 -0.2907
10547TIP3    H153132   0.201   4.871   1.348  0.6010 -0.0028  1.1888
10547TIP3    H253133   0.071   4.838   1.418 -0.5940  0.8040 -0.5534
10548TIP3   OH253134   2.417   0.204  12.702 -0.3501 -0.3836 -0.1963
10548TIP3    H153135   2.489   0.267  12.695  0.0683 -0.7033  1.0901
10548TIP3    H253136   2.363   0.222  12.625 -0.9441  2.4318  0.7455
10549TIP3   OH253137   4.098   1.252   4.086  0.1521 -0.0971  0.1141
10549TIP3    H153138   4.013   1.267   4.046 -0.0181  0.3519  0.6256
10549TIP3    H253139   4.147   1.201   4.022  1.2088  3.5901 -2.3189
10550TIP3   OH253140   6.522   3.833   4.165  0.2071 -0.1924 -0.2772
10550TIP3    H153141   6.485   3.823   4.252  0.1945  0.7670 -0.1642
10550TIP3    H253142   6.459   3.886   4.117  0.6211  0.0116 -0.6089
10551TIP3   OH253143   4.492   4.092  11.381  0.3087 -0.0703 -0.5757
10551TIP3    H153144   4.522   4.148  11.310  0.1565 -1.7318 -2.0058
10551TIP3    H253145   4.398   4.110  11.388 -0.2051 -1.6356 -2.5278
10552TIP3   OH253146   3.268   6.052   0.891 -0.0515  0.3047 -0.2126
10552TIP3    H153147   3.201   6.055   0.960  0.1239  0.8801 -0.0669
10552TIP3    H253148   3.349   6.079   0.934 -0.4014  3.2124 -1.1706
10553TIP3   OH253149   1.246   0.329  12.387  0.5769  0.0981  0.5072
10553TIP3    H153150   1.310   0.385  12.342  1.5661  0.8510  2.6812
10553TIP3    H253151   1.229   0.375  12.470 -0.3311 -1.6974  1.3651
10554TIP3   OH253152   3.241   2.246   0.563  0.1119  0.3920  0.3386
10554TIP3    H153153   3.198   2.330   0.551 -1.5792 -0.1318  2.2028
10554TIP3    H253154   3.209   2.214   0.647 -0.7616 -2.9523 -1.0993
10555TIP3   OH253155   1.844   4.953   1.482  0.0577 -0.4578  0.0446
10555TIP3    H153156   1.778   5.020   1.464 -0.3811 -0.5335  1.2778
10555TIP3    H253157   1.911   4.999   1.534  0.0684 -0.8125  0.3490
10556TIP3   OH253158   1.271   2.770   4.977  0.0423  0.3510  0.4006
10556TIP3    H153159   1.352   2.777   4.926 -0.5038  0.0560 -0.5448
10556TIP3    H253160   1.298   2.737   5.062  0.9397  0.4580  0.1664
10557TIP3   OH253161   3.997   2.924   1.441  0.1390 -0.5479 -0.2160
10557TIP3    H153162   3.929   2.860   1.459 -0.4691  0.4331  1.1323
10557TIP3    H253163   4.037   2.942   1.526  0.0263  1.1476 -0.4893
10558TIP3   OH253164   0.350   5.260   2.634  0.0379 -0.8178 -0.4175
10558TIP3    H153165   0.400   5.227   2.708 -0.8073  1.1879  1.1486
10558TIP3    H253166   0.269   5.293   2.673 -1.1998 -1.2461 -2.4769
10559TIP3   OH253167   4.744   5.679   2.145  0.0039 -0.2551 -0.4816
10559TIP3    H153168   4.718   5.587   2.139  0.4240 -0.4449  0.3657
10559TIP3    H253169   4.745   5.710   2.055  0.5922 -1.2958 -0.8481
10560TIP3   OH253170   3.759   0.626   6.258 -0.3999 -0.3944 -0.3637
10560TIP3    H153171   3.761   0.691   6.328 -3.0824  1.8109 -2.0855
10560TIP3    H253172   3.691   0.563   6.284  1.2439 -1.8204  0.6672
10561TIP3   OH253173   1.710   1.257   3.977 -0.2848 -0.0921 -0.0546
10561TIP3    H153174   1.721   1.176   3.927 -0.9684 -0.6404  0.6692
10561TIP3    H253175   1.668   1.317   3.916 -0.4735 -0.5275 -0.3605
10562TIP3   OH253176   4.702   4.488  11.884 -0.4386  0.0552  0.3841
10562TIP3    H153177   4.638   4.424  11.853 -2.8527  2.2816  0.4201
10562TIP3    H253178   4.721   4.542  11.808  0.7940 -0.0297  0.6059
10563TIP3   OH253179   5.585   3.718  15.851 -0.5456 -0.2807 -0.0074
10563TIP3    H153180   5.608   3.698  15.760  1.5349  2.3451 -0.1944
10563TIP3    H253181   5.490   3.732  15.849 -0.6282 -0.8478 -1.6268
10564TIP3   OH253182   0.015   4.731   4.454 -0.1117  1.4879 -0.0083
10564TIP3    H153183  -0.077   4.708   4.450  0.2479  0.1258 -1.6343
10564TIP3    H253184   0.061   4.651   4.426  1.4636  2.6280 -0.8586
10565TIP3   OH253185   4.859   0.332  14.956 -0.4863 -0.4067 -0.2346
10565TIP3    H153186   4.798   0.360  14.889 -0.2207 -0.0247 -0.3229
10565TIP3    H253187   4.833   0.243  14.978 -1.0344 -0.2667 -0.3119
10566TIP3   OH253188   3.258   0.301  17.002  0.0018 -0.1593  0.1801
10566TIP3    H153189   3.285   0.259  16.920  0.2314 -0.6198  0.4821
10566TIP3    H253190   3.210   0.232  17.049  0.3335 -0.0668  0.6611
10567TIP3   OH253191   3.692   1.014  13.114  0.5282 -0.0961  0.0156
10567TIP3    H153192   3.654   1.004  13.201  2.8501  0.8689  1.2174
10567TIP3    H253193   3.699   1.109  13.101 -1.7767 -0.1091 -2.2336
10568TIP3   OH253194   1.962   0.547  12.550 -0.0670 -0.1646  0.2284
10568TIP3    H153195   2.040   0.582  12.508 -0.6275  0.2324 -0.5180
10568TIP3    H253196   1.916   0.499  12.481  0.3546 -1.8847  1.0636
10569TIP3   OH253197   5.529   1.126   6.247  0.1826  0.0943 -0.5157
10569TIP3    H153198   5.620   1.098   6.257  1.5202  2.6097 -3.7010
10569TIP3    H253199   5.515   1.189   6.316  1.6877  1.2991 -1.2450
10570TIP3   OH253200   5.262   0.304   4.527 -0.5638 -0.9971 -0.4242
10570TIP3    H153201   5.181   0.317   4.478 -0.6243  0.9660  0.1312
10570TIP3    H253202   5.233   0.270   4.611 -1.2228  2.5504  0.9581
10571TIP3   OH253203   1.505   5.861   5.838 -0.2717 -0.1450  0.5499
10571TIP3    H153204   1.517   5.865   5.932  1.7572  1.4205  0.3016
10571TIP3    H253205   1.593   5.870   5.802 -1.1182  0.6167 -1.5066
10572TIP3   OH253206   1.088   1.727   0.542 -0.3580  0.1921 -0.1346
10572TIP3    H153207   1.176   1.757   0.519 -0.7220  1.0649 -0.4230
10572TIP3    H253208   1.032   1.803   0.529 -1.8596 -1.3340 -4.0250
10573TIP3   OH253209   6.670   0.614  13.480  0.0842 -0.2122 -0.3153
10573TIP3    H153210   6.655   0.529  13.522  1.0737  0.5581  1.6886
10573TIP3    H253211   6.765   0.625  13.481 -0.0818  1.3292  0.3034
10574TIP3   OH253212   6.069   5.089   3.015 -0.5398  0.3394  0.1125
10574TIP3    H153213   6.164   5.076   3.013 -0.5654  0.2340 -0.4475
10574TIP3    H253214   6.038   5.051   2.933 -1.3071 -1.4930  1.1994
10575TIP3   OH253215   3.771   6.511   2.476 -0.4634  0.0053 -0.5376
10575TIP3    H153216   3.770   6.417   2.493 -1.4663 -0.0409 -0.7774
10575TIP3    H253217   3.711   6.523   2.402 -0.7197  0.8834 -0.2061
10576TIP3   OH253218   5.430   1.059   4.136 -0.1674 -0.0017 -0.5442
10576TIP3    H153219   5.484   0.993   4.094 -3.1396 -1.7231 -1.9557
10576TIP3    H253220   5.340   1.029   4.123 -1.4997  1.5059  3.5722
10577TIP3   OH253221   2.017   1.802  13.153 -0.0532 -0.4790 -0.0815
10577TIP3    H153222   2.079   1.859  13.107 -0.9775  0.7645  0.1610
10577TIP3    H253223   2.014   1.722  13.100  2.2559 -0.8689  0.2682
10578TIP3   OH253224   0.334   4.084  16.390  0.0313 -0.4666  0.6734
10578TIP3    H153225   0.383   4.002  16.384 -1.6826 -1.5691  1.1708
10578TIP3    H253226   0.376   4.131  16.461  1.5648 -0.5121 -0.1572
10579TIP3   OH253227   4.189   4.520   2.488 -0.1768  0.6609 -0.1634
10579TIP3    H153228   4.249   4.472   2.431 -2.4761 -1.3607 -1.0349
10579TIP3    H253229   4.198   4.611   2.460  2.4296  0.4422 -0.2461
10580TIP3   OH253230   3.756   1.180   0.330  0.2433 -0.0940 -0.5711
10580TIP3    H153231   3.817   1.106   0.330 -0.1818 -0.4515  0.2408
10580TIP3    H253232   3.802   1.249   0.281  0.9544 -0.6337 -0.6743
10581TIP3   OH253233   3.620   1.274  13.097 -0.0525 -0.3111  0.1009
10581TIP3    H153234   3.551   1.297  13.035 -0.4993 -0.6512  0.4652
10581TIP3    H253235   3.687   1.341  13.084  0.3725 -0.9894 -1.5243
10582TIP3   OH253236   2.217   0.605  11.670  0.6291  0.5798 -0.1015
10582TIP3    H153237   2.155   0.606  11.742  0.3122  0.8006 -0.3724
10582TIP3    H253238   2.286   0.666  11.695  0.0647  1.3420 -0.3782
10583TIP3   OH253239   5.907   1.267  10.836  0.5266  0.0037 -0.2994
10583TIP3    H153240   5.919   1.304  10.924 -2.4158  1.0732 -0.2330
10583TIP3    H253241   5.968   1.316  10.781  1.5656  0.1469  0.9376
10584TIP3   OH253242   1.514   4.944   3.450 -0.3104  0.4418 -0.1999
10584TIP3    H153243   1.559   4.890   3.385  2.7747 -0.0425  2.0705
10584TIP3    H253244   1.430   4.901   3.463  0.4467 -1.5425 -1.3057
10585TIP3   OH253245   0.418   0.014   0.777 -0.3626 -0.1059 -0.3844
10585TIP3    H153246   0.400   0.096   0.823  0.4861  0.3665 -0.8736
10585TIP3    H253247   0.511   0.018   0.757 -0.1124 -1.5828  0.3348
10586TIP3   OH253248   4.086   5.071  12.829 -0.0284 -0.1293  0.0614
10586TIP3    H153249   4.012   5.120  12.864  0.9274  1.1142  0.4403
10586TIP3    H253250   4.070   5.067  12.735 -0.3166  0.6004  0.0720
10587TIP3   OH253251   0.258   1.433   2.029  0.4222 -0.0390 -0.1861
10587TIP3    H153252   0.352   1.453   2.024  0.4981 -0.4994 -0.7728
10587TIP3    H253253   0.255   1.341   2.055  0.1047  0.3190  1.0914
10588TIP3   OH253254   3.778   5.050  12.983  0.3228  0.1873  0.2307
10588TIP3    H153255   3.687   5.070  13.007  0.1349 -0.2280 -0.1081
10588TIP3    H253256   3.812   5.001  13.057 -0.0863 -0.6208 -0.0946
10589TIP3   OH253257   5.194   4.733   2.191  0.0775  0.1651 -0.1762
10589TIP3    H153258   5.202   4.639   2.177  0.8404  0.4564 -1.9504
10589TIP3    H253259   5.230   4.748   2.278  0.2119 -1.1416  0.0036
10590TIP3   OH253260   3.710   3.055  13.308 -0.2469 -0.1812  0.1008
10590TIP3    H153261   3.701   3.127  13.370  2.0065 -0.0999  0.4287
10590TIP3    H253262   3.798   3.021  13.324  0.9287  0.5748 -3.7979
10591TIP3   OH253263   6.755   1.505  16.088  0.4260  0.4340 -0.2292
10591TIP3    H153264   6.736   1.556  16.009  1.6606 -0.1029 -0.9028
10591TIP3    H253265   6.810   1.433  16.057 -0.4390 -0.7299  0.8714
10592TIP3   OH253266   4.689   6.162   4.460  0.2016  0.1873 -0.2021
10592TIP3    H153267   4.655   6.215   4.388 -0.4584  0.5950  0.3905
10592TIP3    H253268   4.777   6.195   4.476  0.9091 -0.8371 -1.7258
10593TIP3   OH253269   5.597   6.206   3.284 -0.1610 -0.1508 -0.6047
10593TIP3    H153270   5.682   6.168   3.305  0.3818  0.4186 -1.7257
10593TIP3    H253271   5.577   6.262   3.360  0.2102 -0.6816 -0.1045
10594TIP3   OH253272   3.577   6.580  15.698  0.1228  0.0616  0.4582
10594TIP3    H153273   3.592   6.648  15.763 -2.4732  1.7176 -0.4988
10594TIP3    H253274   3.514   6.619  15.637  0.3192 -2.3956 -1.4786
10595TIP3   OH253275   6.435   2.976  11.096 -0.2577 -0.1379 -0.2448
10595TIP3    H153276   6.392   2.935  11.021  0.9492  2.0846 -2.2510
10595TIP3    H253277   6.501   2.912  11.123 -1.7609 -1.6492  0.0334
10596TIP3   OH253278   6.619   2.199  13.007 -0.3744 -0.2989 -0.0740
10596TIP3    H153279   6.607   2.153  12.924  0.7459  0.2293 -0.5534
10596TIP3    H253280   6.544   2.258  13.013 -0.6327 -0.5726 -0.5544
10597TIP3   OH253281   1.735   1.781  13.276 -0.1630  0.0640  0.2788
10597TIP3    H153282   1.814   1.834  13.280  0.8163 -1.3350  0.4540
10597TIP3    H253283   1.709   1.770  13.368  0.9538 -1.5645  0.4516
10598TIP3   OH253284   5.795   3.699  12.134  0.0686  0.3381 -0.0517
10598TIP3    H153285   5.725   3.723  12.074 -0.5199  1.5080  1.0451
10598TIP3    H253286   5.851   3.776  12.138  0.3899  0.0835  0.4885
10599TIP3   OH253287   5.235   3.647   1.704  0.7394 -0.3745 -0.1603
10599TIP3    H153288   5.142   3.626   1.700  1.0111 -1.8586  0.3889
10599TIP3    H253289   5.243   3.708   1.776  0.2668 -0.7590  0.2243
10600TIP3   OH253290   3.001   3.675   4.575  0.4186  0.1108 -0.2096
10600TIP3    H153291   3.004   3.770   4.566 -0.5018  0.2399  0.6279
10600TIP3    H253292   2.916   3.651   4.537  1.1505 -0.5345 -1.5150
10601TIP3   OH253293   3.553   5.137   2.598  0.4199  0.1140 -0.5254
10601TIP3    H153294   3.561   5.053   2.553  0.3789  0.8584 -1.9670
10601TIP3    H253295   3.575   5.117   2.689  1.7714 -1.1816 -1.1017
10602TIP3   OH253296   3.674   5.591   5.333 -0.2017  0.9908 -0.2794
10602TIP3    H153297   3.662   5.682   5.308 -0.3616  0.5770 -1.8609
10602TIP3    H253298   3.586   5.555   5.339 -0.1167  0.5388 -1.4058
10603TIP3   OH253299   6.281   5.564   3.407 -0.3880 -0.8222 -0.1410
10603TIP3    H153300   6.338   5.498   3.368 -0.9522 -1.5185  0.1706
10603TIP3    H253301   6.237   5.606   3.333  0.5200 -0.2765 -0.3807
10604TIP3   OH253302   6.328   0.040   0.298 -0.5264  0.1549  0.0838
10604TIP3    H153303   6.286   0.007   0.219  0.5740 -0.7451 -0.1634
10604TIP3    H253304   6.277   0.002   0.370 -1.1373  0.4462 -0.1876
10605TIP3   OH253305   5.210   3.235  13.563  0.0751 -0.3045 -0.5208
10605TIP3    H153306   5.259   3.310  13.597 -0.8700  0.7236 -1.3779
10605TIP3    H253307   5.277   3.180  13.522  1.0421 -0.8584  1.6262
10606TIP3   OH253308   0.416   5.624  12.088  0.4006 -0.1385  0.4588
10606TIP3    H153309   0.492   5.646  12.035  0.5314 -1.3035  0.1483
10606TIP3    H253310   0.343   5.666  12.043  0.8334  0.9158  0.7164
10607TIP3   OH253311   2.144   1.716  13.723 -0.3956  0.3190  0.4945
10607TIP3    H153312   2.149   1.754  13.635 -1.0771  1.2623  0.8443
10607TIP3    H253313   2.051   1.718  13.745 -0.7290 -3.0999 -0.0893
10608TIP3   OH253314   0.043   2.961   1.651 -0.0252  0.0801 -0.4018
10608TIP3    H153315   0.017   2.992   1.738 -1.4949  1.5513 -1.3032
10608TIP3    H253316   0.138   2.968   1.651  0.0892 -0.8570  1.3885
10609TIP3   OH253317   2.650   4.239  16.698  0.3780 -0.5498 -0.4351
10609TIP3    H153318   2.583   4.219  16.763 -0.2122  0.3886 -0.7322
10609TIP3    H253319   2.667   4.333  16.709 -0.0488 -0.2713 -1.8971
10610TIP3   OH253320   1.128   6.825  14.441  0.4835  0.3923 -0.7189
10610TIP3    H153321   1.121   6.920  14.447 -0.4731  0.3129 -0.3975
10610TIP3    H253322   1.176   6.809  14.359  0.1763  1.1363 -1.0494
10611TIP3   OH253323   3.127   1.942   6.286  0.4395  0.1324 -0.2950
10611TIP3    H153324   3.204   1.981   6.246  1.5965  1.9328  3.2431
10611TIP3    H253325   3.162   1.879   6.350 -1.2662 -2.4185 -1.6886
10612TIP3   OH253326   0.647   1.647   3.230 -0.4465  0.4156 -0.4858
10612TIP3    H153327   0.661   1.608   3.317  0.4704 -0.9712 -1.2206
10612TIP3    H253328   0.575   1.709   3.243  0.2799  0.9317  1.4597
10613TIP3   OH253329   5.891   0.220  12.081 -0.0510  0.0003 -0.1012
10613TIP3    H153330   5.982   0.248  12.071  1.0425 -2.6440  1.3719
10613TIP3    H253331   5.844   0.268  12.014  2.2692  2.0448 -0.4346
10614TIP3   OH253332   2.089   3.619   1.064  0.4243  0.2102 -0.1289
10614TIP3    H153333   2.146   3.666   1.002 -0.7460  0.3422 -1.1357
10614TIP3    H253334   2.027   3.686   1.094 -1.7084 -0.7666 -2.1062
10615TIP3   OH253335   0.041   3.293   4.626 -0.0780 -0.3774 -0.0257
10615TIP3    H153336  -0.026   3.291   4.694  0.8320 -1.1208  0.8760
10615TIP3    H253337   0.050   3.202   4.598  1.5671 -0.5307  0.8990
10616TIP3   OH253338   0.259   0.594   6.122  0.2499  0.5927 -0.6500
10616TIP3    H153339   0.224   0.511   6.154  2.6813 -0.3389 -0.1787
10616TIP3    H253340   0.184   0.637   6.080 -1.5923 -0.8424  0.9726
10617TIP3   OH253341   5.409   6.600  13.126 -0.0699 -0.0821 -0.8112
10617TIP3    H153342   5.485   6.547  13.148  1.4520  2.2157 -0.2090
10617TIP3    H253343   5.363   6.548  13.059  2.5696 -1.1203 -1.9765
10618TIP3   OH253344   0.213   6.258  12.369 -0.2551  0.0151 -0.1313
10618TIP3    H153345   0.135   6.311  12.353 -0.8781 -1.1582 -1.1875
10618TIP3    H253346   0.209   6.236  12.462 -1.8098 -0.9597 -0.4035
10619TIP3   OH253347   6.071   0.674   3.923 -0.3096 -0.4393  0.6973
10619TIP3    H153348   6.087   0.764   3.894  0.7199 -0.8585 -0.1234
10619TIP3    H253349   6.060   0.625   3.842 -2.3998 -0.8158  1.1685
10620TIP3   OH253350   6.642   5.205   1.665  0.3552  0.3221  0.2053
10620TIP3    H153351   6.662   5.121   1.623  1.9919  1.7395 -2.1016
10620TIP3    H253352   6.576   5.246   1.609  0.5496  1.1300  0.5451
10621TIP3   OH253353   4.522   0.425   1.460 -0.2160  0.2190 -0.5957
10621TIP3    H153354   4.505   0.441   1.367  0.2330  2.1187 -0.3883
10621TIP3    H253355   4.602   0.475   1.478  0.7047 -1.5135  0.4421
10622TIP3   OH253356   4.295   4.814   1.742  0.0822 -0.1433 -0.0818
10622TIP3    H153357   4.390   4.815   1.754  0.2905 -0.1406 -1.6009
10622TIP3    H253358   4.268   4.728   1.773  0.3482  0.3701  1.7337
10623TIP3   OH253359   5.414   1.109  13.853  0.5199 -0.4929 -0.7654
10623TIP3    H153360   5.450   1.025  13.880  1.0779  0.1318  0.5385
10623TIP3    H253361   5.328   1.113  13.894  0.4097 -0.5029 -0.9912
10624TIP3   OH253362   6.601   4.590  16.913  0.4154  0.5560 -0.1399
10624TIP3    H153363   6.672   4.576  16.850  1.2858  2.7512  0.2750
10624TIP3    H253364   6.628   4.666  16.964 -1.8800  0.9854  0.5638
10625TIP3   OH253365   5.658   3.697   0.920 -1.0526 -0.5487  0.0616
10625TIP3    H153366   5.583   3.683   0.863 -0.7036 -0.2225 -0.4887
10625TIP3    H253367   5.622   3.697   1.008 -1.7856  0.2469 -0.2320
10626TIP3   OH253368   1.623   4.208   6.115 -0.1695  0.0452  0.3336
10626TIP3    H153369   1.626   4.159   6.197  0.1523  0.8167  0.8008
10626TIP3    H253370   1.694   4.170   6.062 -0.5155 -0.5959  0.3178
10627TIP3   OH253371   4.852   3.934   5.836  0.0664  0.1534  0.2217
10627TIP3    H153372   4.784   3.973   5.782 -0.1267  1.0307  1.0817
10627TIP3    H253373   4.804   3.878   5.898  0.2456 -0.3892 -0.1187
10628TIP3   OH253374   0.965   4.921   5.938 -0.0846 -0.5930  0.4369
10628TIP3    H153375   0.965   5.009   5.977  2.2062  0.1717 -1.1101
10628TIP3    H253376   0.951   4.936   5.845 -1.4648 -2.0751  0.3533
10629TIP3   OH253377   0.268   1.739   3.644 -0.1290 -0.3513  0.3101
10629TIP3    H153378   0.237   1.718   3.732  1.1646  1.1111  1.1752
10629TIP3    H253379   0.196   1.787   3.604  0.4568  1.9593  1.8508
10630TIP3   OH253380   5.779   0.152  14.538  0.5677  0.5106 -0.1467
10630TIP3    H153381   5.717   0.161  14.610  0.4656 -1.9475  0.1876
10630TIP3    H253382   5.853   0.104  14.576  0.0509 -1.7902 -1.8363
10631TIP3   OH253383   5.048   4.115   2.817  0.4883  0.4344 -0.3456
10631TIP3    H153384   5.050   4.150   2.906 -0.1447  1.3869 -0.6977
10631TIP3    H253385   4.974   4.055   2.815 -1.2729  2.5225 -0.9711
10632TIP3   OH253386   6.073   1.281   4.635 -0.4742  0.4012  0.1268
10632TIP3    H153387   6.152   1.282   4.582 -2.0016  0.3693 -2.3070
10632TIP3    H253388   6.039   1.370   4.629 -0.0767  0.7579  2.1665
10633TIP3   OH253389   5.941   0.827  16.724 -0.0894 -0.1366 -0.0642
10633TIP3    H153390   6.032   0.796  16.723  0.2153  0.7544 -0.8183
10633TIP3    H253391   5.945   0.916  16.689 -1.4148 -0.5320 -1.3275
10634TIP3   OH253392   3.291   2.620  16.894 -0.2109 -0.0572 -0.5867
10634TIP3    H153393   3.285   2.665  16.810 -1.7490 -1.6646 -1.4080
10634TIP3    H253394   3.283   2.527  16.872 -0.8340 -0.5219  1.3585
10635TIP3   OH253395   3.838   6.831  15.092 -0.5126 -0.3014 -0.1655
10635TIP3    H153396   3.873   6.916  15.119  1.0849 -0.8611 -0.3945
10635TIP3    H253397   3.894   6.804  15.020 -0.1285 -2.1912  0.7888
10636TIP3   OH253398   2.729   4.432  12.877 -0.2198  0.5374 -0.2680
10636TIP3    H153399   2.707   4.462  12.789 -2.8359 -2.7397 -0.9542
10636TIP3    H253400   2.792   4.361  12.863 -0.7056 -0.0508  0.4576
10637TIP3   OH253401   2.176   3.565  15.833 -0.0760  0.2815  0.2097
10637TIP3    H153402   2.104   3.597  15.888 -0.3040 -1.5981  1.0742
10637TIP3    H253403   2.242   3.536  15.896  0.6801  0.2978 -0.5646
10638TIP3   OH253404   0.771   0.058  15.890 -0.0792 -0.0943  0.3607
10638TIP3    H153405   0.720  -0.015  15.926 -0.2996 -0.5907 -0.8912
10638TIP3    H253406   0.859   0.022  15.878  0.1256  0.2270  0.8850
10639TIP3   OH253407   1.330   5.832  16.084 -0.2686 -0.1937  0.7740
10639TIP3    H153408   1.356   5.905  16.140 -0.0961 -1.3546  2.2641
10639TIP3    H253409   1.368   5.852  15.999 -1.1036  1.9621  0.8488
10640TIP3   OH253410   6.831   4.985   1.953 -0.2688 -0.3624 -0.4923
10640TIP3    H153411   6.740   5.008   1.969 -0.7147 -2.0936 -0.3290
10640TIP3    H253412   6.831   4.945   1.866 -0.0727 -2.1564  0.2733
10641TIP3   OH253413   3.464   2.400   0.862  0.1697 -0.2613  0.0826
10641TIP3    H153414   3.548   2.398   0.816 -0.0670  0.9597 -0.4494
10641TIP3    H253415   3.415   2.470   0.819 -0.6457 -0.1070  1.2129
10642TIP3   OH253416   0.024   0.178  10.994  0.3117  0.4592 -0.4402
10642TIP3    H153417  -0.038   0.250  10.985  0.0056  0.3044  0.3622
10642TIP3    H253418   0.057   0.164  10.905 -0.2974  0.9899 -0.7593
10643TIP3   OH253419   1.766   1.517   1.924  0.2457  0.0453  0.0285
10643TIP3    H153420   1.788   1.545   1.835 -1.1830  0.3628 -0.2495
10643TIP3    H253421   1.755   1.598   1.973  2.1790 -0.1252  0.8354
10644TIP3   OH253422   0.528   2.104  16.174 -0.5009  0.0934 -0.5663
10644TIP3    H153423   0.564   2.142  16.254  0.1900  0.5004 -1.0607
10644TIP3    H253424   0.593   2.039  16.147  0.2115  1.2455 -1.7927
10645TIP3   OH253425   5.200   4.784  12.444 -0.1731 -0.0030  0.0154
10645TIP3    H153426   5.201   4.704  12.391  2.4387  0.3416 -0.6275
10645TIP3    H253427   5.110   4.816  12.438 -0.8553 -1.9595 -1.1490
10646TIP3   OH253428   1.289   1.867  13.767 -0.1060 -0.4901  0.2580
10646TIP3    H153429   1.280   1.871  13.672  3.2441  1.7387 -0.1121
10646TIP3    H253430   1.380   1.842  13.782  0.1191  1.4175  2.8089
10647TIP3   OH253431   3.817   2.539   5.358  0.2462 -0.3163  0.2826
10647TIP3    H153432   3.900   2.491   5.359 -0.4359 -1.5980 -0.7533
10647TIP3    H253433   3.751   2.473   5.378 -0.5436  0.6805  1.0813
10648TIP3   OH253434   5.758   1.585   5.146 -0.0252 -0.1954 -0.3715
10648TIP3    H153435   5.851   1.578   5.168  0.0590  2.3916  0.5236
10648TIP3    H253436   5.722   1.641   5.215 -2.1075 -0.5934 -1.0773
10649TIP3   OH253437   6.832   1.446   4.296 -0.4013  0.4677  0.5847
10649TIP3    H153438   6.880   1.415   4.373 -0.0448  2.7454  1.3353
10649TIP3    H253439   6.741   1.420   4.313 -0.1687  0.0741  1.2849
10650TIP3   OH253440   5.053   6.175   1.816 -0.2672 -0.6284 -0.3341
10650TIP3    H153441   5.026   6.265   1.800 -0.1508 -0.4505  0.4171
10650TIP3    H253442   5.147   6.175   1.800 -0.1920 -0.5067  0.0817
10651TIP3   OH253443   0.995   2.515  13.301  0.0441 -0.2419 -0.0451
10651TIP3    H153444   1.044   2.580  13.251 -0.0813  0.1341  0.3224
10651TIP3    H253445   0.914   2.558  13.325  0.6645  0.0556  1.6435
10652TIP3   OH253446   0.873   4.032  11.085 -0.3857 -0.1120 -0.1871
10652TIP3    H153447   0.885   4.107  11.027  3.6126 -0.8739 -0.5901
10652TIP3    H253448   0.907   4.061  11.170 -1.8489 -0.5025  0.5730
10653TIP3   OH253449   4.856   1.957   0.664  0.1789  0.1209  0.1742
10653TIP3    H153450   4.824   1.869   0.683  3.1981 -0.5311  3.4834
10653TIP3    H253451   4.814   2.012   0.730 -1.7064  1.3038 -1.8887
10654TIP3   OH253452   4.582   0.488  11.428 -0.4480  0.7338  0.0919
10654TIP3    H153453   4.530   0.439  11.491 -1.0942  0.5130 -0.6023
10654TIP3    H253454   4.668   0.446  11.431  0.2163  2.0391  2.3377
10655TIP3   OH253455   0.427   6.696   2.534  0.2823  0.1795  0.0527
10655TIP3    H153456   0.335   6.709   2.556 -0.5072 -0.3734 -2.5812
10655TIP3    H253457   0.452   6.618   2.584 -0.5285  0.5767  1.1306
10656TIP3   OH253458   5.795   5.485   2.523 -0.5328 -0.3154  0.7939
10656TIP3    H153459   5.726   5.496   2.588 -1.6021  0.8186 -0.4651
10656TIP3    H253460   5.824   5.395   2.533 -0.2323 -0.0287  3.2203
10657TIP3   OH253461   5.730   3.117  10.566  0.3175 -0.2871  0.1298
10657TIP3    H153462   5.792   3.091  10.634  0.4676 -1.2090 -0.3434
10657TIP3    H253463   5.779   3.108  10.484  0.3221  1.3543 -0.0825
10658TIP3   OH253464   0.321   0.553  16.873  0.4771  0.1843 -0.1997
10658TIP3    H153465   0.243   0.569  16.821  0.8299  1.5942 -0.3363
10658TIP3    H253466   0.336   0.459  16.867 -0.4984  0.0802 -1.1789
10659TIP3   OH253467   5.201   6.828   0.868 -0.2814  0.2841  0.2270
10659TIP3    H153468   5.228   6.908   0.913  0.6677  0.0408  0.1191
10659TIP3    H253469   5.109   6.842   0.846  0.1439  1.7843 -0.7137
10660TIP3   OH253470   5.938   3.346  14.387 -0.2245  0.1412 -0.4157
10660TIP3    H153471   5.862   3.293  14.363  0.1932 -0.0887 -1.2524
10660TIP3    H253472   5.984   3.361  14.305 -0.1569  1.5425 -0.1461
10661TIP3   OH253473   2.688   4.715   2.230  0.1973 -0.2046 -0.0049
10661TIP3    H153474   2.607   4.760   2.253  0.1870 -0.8458  1.2999
10661TIP3    H253475   2.734   4.776   2.173 -0.1048  1.1995  1.2019
10662TIP3   OH253476   0.191   4.363   3.635 -0.0173  0.0456  0.2589
10662TIP3    H153477   0.234   4.409   3.706 -0.5948  0.6001  0.2566
10662TIP3    H253478   0.192   4.271   3.661  0.3510  0.1668  0.6749
10663TIP3   OH253479   4.269   3.964   2.167 -0.2950 -0.2360  0.2064
10663TIP3    H153480   4.338   3.998   2.109 -1.0319  1.0445  0.0370
10663TIP3    H253481   4.271   3.869   2.153 -0.6228  0.0424 -2.1602
10664TIP3   OH253482   0.565   5.331   3.985 -0.3865 -0.3321 -0.1674
10664TIP3    H153483   0.545   5.308   4.075 -0.9709  0.6499 -0.0362
10664TIP3    H253484   0.564   5.247   3.938  1.8429 -1.1194  1.0501
10665TIP3   OH253485   4.438   5.537   0.506  0.1637 -0.1844 -0.8196
10665TIP3    H153486   4.516   5.510   0.458  1.1223 -0.7737  0.9668
10665TIP3    H253487   4.449   5.632   0.517  1.1191 -0.3891  0.1874
10666TIP3   OH253488   5.379   6.657   3.311 -0.2219 -0.1429  0.2175
10666TIP3    H153489   5.350   6.602   3.238  0.5871  2.1484 -1.9655
10666TIP3    H253490   5.469   6.679   3.290 -0.7109  2.5190  0.6350
10667TIP3   OH253491   4.453   2.641   3.431 -0.2350  0.2074  0.3738
10667TIP3    H153492   4.415   2.671   3.513 -0.2492  0.0326  0.4314
10667TIP3    H253493   4.539   2.607   3.455  0.2597  1.2528  0.1421
10668TIP3   OH253494   5.443   6.880  14.503  0.3765  0.5356  0.3241
10668TIP3    H153495   5.408   6.964  14.535 -1.7120 -0.9564  2.3547
10668TIP3    H253496   5.414   6.875  14.412  1.0531  2.2419 -0.0244
10669TIP3   OH253497   1.523   5.555  15.784 -0.3129  0.1636 -0.3630
10669TIP3    H153498   1.578   5.517  15.715  0.8436  0.5152  0.3382
10669TIP3    H253499   1.439   5.570  15.742 -0.1295 -1.1432 -1.2507
10670TIP3   OH253500   1.831   3.426   2.645 -0.0429  0.1561  0.2244
10670TIP3    H153501   1.827   3.332   2.632  0.1034  0.0609  0.8407
10670TIP3    H253502   1.916   3.441   2.686 -0.3290  0.4797  0.7121
10671TIP3   OH253503   3.467   3.523  11.427 -0.6383 -0.4298  0.5917
10671TIP3    H153504   3.524   3.566  11.364  0.3901  0.5168  2.0868
10671TIP3    H253505   3.418   3.595  11.467 -0.5979 -0.8969  1.5024
10672TIP3   OH253506   5.559   3.911   4.173  0.5961 -0.2173 -0.8244
10672TIP3    H153507   5.591   3.991   4.132  1.8176 -1.9277 -3.5132
10672TIP3    H253508   5.464   3.914   4.160  0.6450  0.7066 -1.0131
10673TIP3   OH253509   5.424   1.566  12.348 -0.2299 -0.2078  0.3276
10673TIP3    H153510   5.416   1.513  12.268  1.2250  2.1573 -1.5089
10673TIP3    H253511   5.334   1.593  12.367 -0.6199 -0.9031 -0.4087
10674TIP3   OH253512   4.228   6.818   0.786  0.4112 -0.2107  0.1427
10674TIP3    H153513   4.320   6.802   0.763  0.4647  0.6032 -0.2589
10674TIP3    H253514   4.197   6.734   0.820  1.1691 -0.6257 -0.1542
10675TIP3   OH253515   5.600   5.844  14.318  0.0737 -0.6018 -0.3006
10675TIP3    H153516   5.546   5.907  14.270  1.0826 -0.0255 -0.6981
10675TIP3    H253517   5.596   5.873  14.409  0.2251 -0.1816 -0.4244
10676TIP3   OH253518   4.898   1.777  16.400 -0.6004  1.2721 -0.6743
10676TIP3    H153519   4.912   1.826  16.481 -0.9032  0.4077 -0.0839
10676TIP3    H253520   4.843   1.834  16.347 -0.2190  1.9405 -0.3597
10677TIP3   OH253521   0.656   2.434  13.583  0.4177  0.2558  0.4864
10677TIP3    H153522   0.643   2.436  13.678 -0.1821 -3.1011  0.5958
10677TIP3    H253523   0.751   2.430  13.572  0.4784  0.1992  0.9933
10678TIP3   OH253524   1.256   3.877   5.720  0.6304 -0.2857  0.1147
10678TIP3    H153525   1.248   3.796   5.668  0.8063 -1.6201  2.0770
10678TIP3    H253526   1.166   3.900   5.742  0.6640 -0.8011  0.8026
10679TIP3   OH253527   3.736   4.002   3.531  0.5087  0.3338  0.2785
10679TIP3    H153528   3.699   3.917   3.505  1.6842 -0.1836  0.2304
10679TIP3    H253529   3.662   4.050   3.567 -0.1318 -0.8157  0.5544
10680TIP3   OH253530   2.400   1.723  13.810  0.0538 -0.0244  0.4804
10680TIP3    H153531   2.437   1.801  13.769 -0.0657  0.5389  1.4292
10680TIP3    H253532   2.308   1.725  13.786  0.2357 -0.3966 -0.2862
10681TIP3   OH253533   1.186   6.753   4.116  0.4118 -0.4862  0.1841
10681TIP3    H153534   1.223   6.737   4.203 -0.9455  1.0092  1.0972
10681TIP3    H253535   1.246   6.817   4.076  0.6843 -0.6773  0.2895
10682TIP3   OH253536   3.138   4.420  13.543 -0.1501  0.9527 -0.2631
10682TIP3    H153537   3.155   4.463  13.627  3.7106 -0.9502  0.1728
10682TIP3    H253538   3.197   4.463  13.481  1.5935 -1.5555 -0.4801
10683TIP3   OH253539   2.868   1.980  14.431  0.4285  0.3283  0.1152
10683TIP3    H153540   2.810   1.904  14.433  1.5295 -0.5286  1.2615
10683TIP3    H253541   2.845   2.030  14.510  0.9179  0.2217  0.3303
10684TIP3   OH253542   3.031   2.253   4.518 -0.6283 -0.1976  0.4402
10684TIP3    H153543   3.060   2.330   4.565 -1.3867  0.5593 -0.2899
10684TIP3    H253544   3.085   2.251   4.439 -0.8133 -0.2255  0.3105
10685TIP3   OH253545   3.047   5.389   0.851  0.0023  0.0938 -0.3205
10685TIP3    H153546   3.052   5.456   0.919 -1.6452  1.0574 -1.0694
10685TIP3    H253547   2.971   5.337   0.874  0.6552 -0.8821 -0.3272
10686TIP3   OH253548   1.488   1.409   3.074 -0.1804  0.3458 -0.1712
10686TIP3    H153549   1.525   1.461   3.146 -1.9047  1.3891  0.0199
10686TIP3    H253550   1.476   1.321   3.111  0.2718  0.5073  0.3675
10687TIP3   OH253551   6.870   6.073   1.046  0.2763  0.9958 -0.1499
10687TIP3    H153552   6.893   5.994   0.996  0.1712  1.6630 -1.2821
10687TIP3    H253553   6.806   6.042   1.110  0.6505  0.0498 -0.2057
10688TIP3   OH253554   1.267   2.371   5.056 -0.2399  0.0598 -0.1076
10688TIP3    H153555   1.191   2.423   5.029 -0.1966 -0.1137 -0.5745
10688TIP3    H253556   1.325   2.434   5.099 -0.6084  0.2096  0.1778
10689TIP3   OH253557   2.063   1.754   0.598  0.3634 -0.2069  0.0349
10689TIP3    H153558   2.115   1.801   0.533  1.5986  0.2511  1.3099
10689TIP3    H253559   2.078   1.662   0.579  0.5015 -0.0806 -0.4830
10690TIP3   OH253560   4.458   1.684  14.544  0.3010 -0.9398  0.0675
10690TIP3    H153561   4.424   1.605  14.585 -1.6045 -0.8151 -1.1736
10690TIP3    H253562   4.463   1.747  14.615 -1.5221 -1.1685  0.4475
10691TIP3   OH253563   6.749   2.283   6.252 -0.6350 -0.1094 -0.2958
10691TIP3    H153564   6.834   2.293   6.209 -1.1608 -0.3209 -1.4072
10691TIP3    H253565   6.753   2.197   6.294 -0.4663 -0.3152 -0.7311
10692TIP3   OH253566   5.019   5.612   1.233 -0.1334 -0.6053 -0.3437
10692TIP3    H153567   5.100   5.589   1.279 -0.5913  0.4933  1.1213
10692TIP3    H253568   5.045   5.679   1.170  0.3618 -1.4709 -1.0657
10693TIP3   OH253569   3.245   6.747  14.618  0.0837 -0.4906  0.0752
10693TIP3    H153570   3.223   6.655  14.637 -2.1107 -0.3390 -1.3426
10693TIP3    H253571   3.286   6.744  14.532  1.0291 -0.2165  0.5036
10694TIP3   OH253572   5.185   0.006  11.654 -0.4592 -0.5971  0.3411
10694TIP3    H153573   5.158  -0.086  11.645  0.4465 -0.8843  0.5381
10694TIP3    H253574   5.256   0.004  11.717  2.0442 -0.2530 -2.2502
10695TIP3   OH253575   4.585   4.761   1.419  0.1090  0.4427 -0.2817
10695TIP3    H153576   4.611   4.853   1.413 -1.4169  0.8611 -0.9740
10695TIP3    H253577   4.530   4.747   1.342 -0.0175 -0.9443  0.0436
10696TIP3   OH253578   2.311   4.909   5.306  0.7138 -0.3195  0.1120
10696TIP3    H153579   2.327   4.954   5.389 -0.0290 -0.6153  0.4269
10696TIP3    H253580   2.360   4.827   5.313  0.2313 -0.5799  0.4802
10697TIP3   OH253581   5.625   1.333  14.577 -0.5019  0.1104 -0.4037
10697TIP3    H153582   5.697   1.384  14.616 -0.1568 -0.7733  0.1301
10697TIP3    H253583   5.668   1.278  14.511 -0.5757 -0.8778  0.3512
10698TIP3   OH253584   6.059   3.021  15.660  0.1323 -0.5302  0.6350
10698TIP3    H153585   6.035   3.001  15.750  0.2455 -2.1054  0.3456
10698TIP3    H253586   6.152   3.001  15.655 -0.1566 -1.8649 -0.1545
10699TIP3   OH253587   1.517   5.091  11.133 -0.2738  0.1345  0.1376
10699TIP3    H153588   1.437   5.060  11.176 -0.2836  0.6577  0.5063
10699TIP3    H253589   1.579   5.018  11.144 -0.5031 -0.0265  0.3986
10700TIP3   OH253590   1.913   2.361   2.209 -0.1816  0.1052 -0.0810
10700TIP3    H153591   1.992   2.307   2.212  0.4679  0.8237 -2.3566
10700TIP3    H253592   1.868   2.341   2.291  0.9546 -2.4370  0.0337
10701TIP3   OH253593   5.379   4.629  11.314 -0.7305  0.5594 -0.0657
10701TIP3    H153594   5.308   4.624  11.250  1.6393 -1.1821 -2.8268
10701TIP3    H253595   5.439   4.694  11.277  1.3547 -1.4614 -0.4842
10702TIP3   OH253596   0.187   4.210  13.873  0.4428 -0.1078 -0.5056
10702TIP3    H153597   0.281   4.209  13.852  0.4840  1.2988 -0.4642
10702TIP3    H253598   0.150   4.140  13.818  1.2570  0.4407 -1.8125
10703TIP3   OH253599   0.038   2.102   2.369  0.5388 -0.3816 -0.7300
10703TIP3    H153600   0.036   2.008   2.385  1.2313 -0.6677 -2.2459
10703TIP3    H253601   0.130   2.123   2.357  0.5810  0.8138  1.2274
10704TIP3   OH253602   5.959   3.591  16.376 -0.0911 -0.3524 -0.0840
10704TIP3    H153603   5.869   3.600  16.409  0.1642  3.2151  0.0982
10704TIP3    H253604   6.014   3.603  16.454  0.5117  0.2543 -0.5947
10705TIP3   OH253605   4.025   6.079  10.668  0.0347 -0.1284 -0.1696
10705TIP3    H153606   4.019   6.041  10.756  1.9866  1.2121  0.5958
10705TIP3    H253607   4.002   6.172  10.681  0.7208  0.1601 -1.0014
10706TIP3   OH253608   5.250   0.314  11.419  0.1120  0.2347 -0.5156
10706TIP3    H153609   5.197   0.238  11.394 -1.2151  1.0526 -0.2441
10706TIP3    H253610   5.188   0.387  11.422  0.6795  0.7199  2.5536
10707TIP3   OH253611   3.384   4.872  13.948  0.2773  0.3967  0.1901
10707TIP3    H153612   3.321   4.942  13.928 -0.3866  0.2827  1.7426
10707TIP3    H253613   3.379   4.862  14.043  1.8313 -0.4080  0.2063
10708TIP3   OH253614   2.482   0.960  13.390  0.2064 -0.3703 -0.1128
10708TIP3    H153615   2.544   0.975  13.462 -0.4826  0.0175  0.4118
10708TIP3    H253616   2.427   0.888  13.421 -0.5406  0.2602  0.0496
10709TIP3   OH253617   2.056   6.324  10.661 -0.3277 -0.1297  0.3120
10709TIP3    H153618   1.997   6.399  10.658 -0.9573 -0.5828 -3.1387
10709TIP3    H253619   2.136   6.355  10.618  1.0347 -0.2998  2.5776
10710TIP3   OH253620   0.395   0.608   5.432  0.1947  0.0855  0.0086
10710TIP3    H153621   0.450   0.606   5.353 -0.9603 -0.1673 -0.8157
10710TIP3    H253622   0.392   0.517   5.460  0.2544  0.1109  0.0971
10711TIP3   OH253623   0.587   1.367  11.489 -0.3000  0.4288  0.2835
10711TIP3    H153624   0.663   1.387  11.435  0.2533 -0.7143  0.5958
10711TIP3    H253625   0.552   1.285  11.451 -1.9428  1.3947 -0.4273
10712TIP3   OH253626   4.521   5.960   1.599  0.2600  0.2201 -0.1272
10712TIP3    H153627   4.534   5.874   1.559 -0.8762 -0.7020  1.4002
10712TIP3    H253628   4.449   5.999   1.550  0.1733 -0.0799 -0.2385
10713TIP3   OH253629   3.318   4.894   5.615 -0.6612  0.2170 -0.7310
10713TIP3    H153630   3.245   4.835   5.636 -2.2282  2.2607 -0.1066
10713TIP3    H253631   3.391   4.836   5.597 -1.8339 -1.9031  0.8845
10714TIP3   OH253632   4.939   4.789  14.994 -0.0588 -0.3727  0.0594
10714TIP3    H153633   4.959   4.702  15.030  0.1307 -0.5114 -0.3773
10714TIP3    H253634   4.899   4.771  14.909  0.7164 -0.0081 -0.3905
10715TIP3   OH253635   3.886   3.266   0.177  0.2201  0.4368  0.3438
10715TIP3    H153636   3.921   3.214   0.250 -1.4625 -0.9285  0.2329
10715TIP3    H253637   3.793   3.275   0.195 -0.1344  0.5685 -1.3388
10716TIP3   OH253638   3.140   0.009  10.898  0.0759  0.0639 -0.5074
10716TIP3    H153639   3.170   0.050  10.817 -1.2431 -0.7561 -1.4475
10716TIP3    H253640   3.160  -0.084  10.886 -1.1637 -0.2372 -0.4111
10717TIP3   OH253641   1.884   0.474   3.791 -0.3481  0.1734  0.5200
10717TIP3    H153642   1.883   0.553   3.738  0.8396 -0.3924 -0.4031
10717TIP3    H253643   1.808   0.423   3.761  0.9477 -0.6654 -1.5366
10718TIP3   OH253644   2.510   4.304  16.103 -0.1864  0.1701 -0.2217
10718TIP3    H153645   2.532   4.213  16.121  0.7256  0.2776 -0.7377
10718TIP3    H253646   2.523   4.349  16.187  1.2754  0.1660 -0.4268
10719TIP3   OH253647   0.686   1.299   0.151 -0.4211 -0.4842 -0.3519
10719TIP3    H153648   0.636   1.282   0.071 -2.2819 -0.7351  0.7883
10719TIP3    H253649   0.776   1.276   0.128 -0.5081  1.2999 -2.9166
10720TIP3   OH253650   4.441   1.051   3.462 -0.2952 -0.4956  0.5546
10720TIP3    H153651   4.514   1.024   3.518 -0.6560 -1.6961  0.4721
10720TIP3    H253652   4.377   0.981   3.472 -1.5050  0.6150  0.7402
10721TIP3   OH253653   4.596   0.434  11.857 -0.2009 -0.5780  0.1916
10721TIP3    H153654   4.590   0.522  11.893 -0.6023 -0.5069 -0.0511
10721TIP3    H253655   4.688   0.425  11.830  0.2364 -0.8279  1.7091
10722TIP3   OH253656   5.672   4.702  12.054 -0.7633 -0.0694 -0.0735
10722TIP3    H153657   5.635   4.759  12.123  0.0530  0.9577 -0.4679
10722TIP3    H253658   5.750   4.748  12.024 -0.7494 -0.8236 -1.2498
10723TIP3   OH253659   3.956   2.560  10.892 -0.4919 -0.6058  0.2643
10723TIP3    H153660   3.969   2.466  10.883  2.2065 -0.1408 -2.0094
10723TIP3    H253661   4.018   2.587  10.958  1.7028  0.0013 -1.9042
10724TIP3   OH253662   4.866   2.881  13.177  0.3815 -0.1539  0.0590
10724TIP3    H153663   4.782   2.869  13.222  0.1709  1.8109  0.2805
10724TIP3    H253664   4.891   2.793  13.148 -2.4359 -0.5998 -1.2881
10725TIP3   OH253665   5.216   5.783  15.197 -0.1576 -0.1705 -0.4046
10725TIP3    H153666   5.187   5.726  15.268  2.0161 -2.0020 -0.8825
10725TIP3    H253667   5.256   5.858  15.242  0.1559 -0.7489  0.3001
10726TIP3   OH253668   4.118   4.118   3.081 -0.1792 -0.5725  0.2565
10726TIP3    H153669   4.170   4.038   3.071 -0.0483 -0.5681  0.9031
10726TIP3    H253670   4.058   4.099   3.153 -0.4083 -0.2218  0.1601
10727TIP3   OH253671   0.033   2.566  12.271 -0.7426  0.2990 -0.4681
10727TIP3    H153672   0.093   2.492  12.277 -0.8715  0.1540 -0.9902
10727TIP3    H253673  -0.037   2.537  12.213  0.1522  1.4467 -2.2137
10728TIP3   OH253674   5.490   3.788   3.355 -0.2247  0.6377  0.0591
10728TIP3    H153675   5.421   3.758   3.414  1.2637 -2.1777  0.5176
10728TIP3    H253676   5.446   3.797   3.270 -1.8745  2.5046  1.0092
10729TIP3   OH253677   6.242   4.145  16.928 -0.1334  0.4203 -0.6258
10729TIP3    H153678   6.290   4.179  17.003 -0.4126  2.0797 -1.1550
10729TIP3    H253679   6.310   4.118  16.866  0.1077  0.3809 -0.3408
10730TIP3   OH253680   2.219   5.805  14.950 -0.1287 -0.1087  0.4178
10730TIP3    H153681   2.192   5.713  14.952  0.5203 -0.2922  1.2735
10730TIP3    H253682   2.260   5.816  14.864  0.5136 -0.8453  0.6112
10731TIP3   OH253683   4.608   6.636   5.151 -0.4076  0.0380 -0.3729
10731TIP3    H153684   4.557   6.634   5.070 -0.1898 -2.6755 -0.5429
10731TIP3    H253685   4.543   6.635   5.221 -0.6366 -0.9743 -0.5771
10732TIP3   OH253686   6.653   2.191   2.737  1.4168 -0.1850 -0.7429
10732TIP3    H153687   6.654   2.153   2.649  0.4611  0.9445 -1.2853
10732TIP3    H253688   6.695   2.277   2.726 -1.3736  1.2882 -0.8194
10733TIP3   OH253689   0.892   1.069   2.918 -0.3610 -0.1193  0.4436
10733TIP3    H153690   0.856   1.001   2.861 -0.7099  0.4858 -0.0748
10733TIP3    H253691   0.975   1.093   2.877 -0.4098  0.0155  0.4205
10734TIP3   OH253692   3.084   4.846  14.075 -0.2379  0.3947 -0.0820
10734TIP3    H153693   3.072   4.914  14.142  4.4550  0.7824  0.6993
10734TIP3    H253694   3.097   4.766  14.125 -0.4200 -0.0438 -0.7320
10735TIP3   OH253695   3.902   5.581  13.657  0.5029  0.3810  0.4566
10735TIP3    H153696   3.822   5.633  13.665 -0.5513 -1.3411  2.5374
10735TIP3    H253697   3.957   5.611  13.729 -0.1896 -1.3205  1.7916
10736TIP3   OH253698   1.694   2.813  14.423 -0.5303 -0.7876 -0.8945
10736TIP3    H153699   1.759   2.883  14.415  2.2809 -2.7356  2.2783
10736TIP3    H253700   1.616   2.856  14.458  0.4251  1.0395 -0.8673
10737TIP3   OH253701   5.761   5.201  11.109 -0.5541  0.0290  0.3524
10737TIP3    H153702   5.702   5.155  11.049 -0.2821 -0.0537  0.1485
10737TIP3    H253703   5.836   5.225  11.055 -0.3686  0.0717  0.6298
10738TIP3   OH253704   3.457   5.267  10.923 -0.3735  0.6696 -0.7005
10738TIP3    H153705   3.493   5.201  10.982  0.1362  0.1352 -1.5843
10738TIP3    H253706   3.365   5.274  10.947 -0.1425  0.5475  0.2256
10739TIP3   OH253707   5.329   4.847  14.424  0.1273  0.2419  1.1612
10739TIP3    H153708   5.328   4.752  14.418 -0.4006  0.3386 -1.2712
10739TIP3    H253709   5.283   4.867  14.506 -3.0219 -1.5485  0.0057
10740TIP3   OH253710   6.567   5.990   4.471 -0.0125 -0.3656 -0.2079
10740TIP3    H153711   6.607   5.912   4.508 -1.3899 -1.1874 -0.4036
10740TIP3    H253712   6.599   5.993   4.380  0.2407 -0.5517 -0.1236
10741TIP3   OH253713   0.730   3.762   0.044  0.1472 -0.1145 -0.0922
10741TIP3    H153714   0.699   3.736  -0.043  0.1552  0.0572 -0.1474
10741TIP3    H253715   0.822   3.737   0.045  0.1595 -0.0718 -0.1515
10742TIP3   OH253716   0.849   5.177  11.092  0.2650 -0.1362 -0.0133
10742TIP3    H153717   0.837   5.097  11.143 -1.1500  0.1817  0.1930
10742TIP3    H253718   0.852   5.247  11.157  1.5603  0.0120 -0.1861
10743TIP3   OH253719   1.403   1.796  16.358 -0.5789 -0.2299  0.3307
10743TIP3    H153720   1.418   1.701  16.360  0.6691 -0.0318  1.4146
10743TIP3    H253721   1.490   1.834  16.346 -1.2571  0.7744 -2.0841
10744TIP3   OH253722   0.624   3.218  16.376  0.3441 -0.0337  0.1198
10744TIP3    H153723   0.589   3.284  16.436 -2.4739  0.1733 -1.5941
10744TIP3    H253724   0.577   3.137  16.398  1.0876 -0.5636 -0.1995
10745TIP3   OH253725   3.166   4.355   2.514 -0.2924  0.3231  0.3658
10745TIP3    H153726   3.139   4.446   2.499  0.9022  0.7668  0.7644
10745TIP3    H253727   3.186   4.321   2.427 -2.1370 -0.0628  0.0341
10746TIP3   OH253728   2.052   2.455   4.176  0.3955 -0.2093  0.3566
10746TIP3    H153729   2.044   2.462   4.081  1.1665 -0.0529  0.3027
10746TIP3    H253730   2.128   2.399   4.190 -0.2612 -0.9886  0.8773
10747TIP3   OH253731   4.389   3.272   2.179 -0.2763  0.0349  0.7506
10747TIP3    H153732   4.441   3.350   2.196  0.5901 -0.0716 -1.1401
10747TIP3    H253733   4.432   3.230   2.104 -2.0930 -0.9800  0.2146
10748TIP3   OH253734   4.347   6.812   1.107 -0.5806  0.2981  0.4009
10748TIP3    H153735   4.408   6.807   1.033 -0.3170 -0.2849  0.6538
10748TIP3    H253736   4.391   6.869   1.170 -1.1267  1.3992 -0.1767
10749TIP3   OH253737   0.730   2.377  14.804 -0.9108 -0.2905  0.0468
10749TIP3    H153738   0.650   2.348  14.848 -0.7496 -2.0399 -0.7459
10749TIP3    H253739   0.700   2.419  14.724 -1.0363 -1.0480 -0.3057
10750TIP3   OH253740   5.039   4.242   2.554  0.5766  0.8865 -0.1419
10750TIP3    H153741   5.075   4.217   2.639 -0.8344 -2.0703 -0.2894
10750TIP3    H253742   4.945   4.235   2.565  0.2897  2.2269 -1.4834
10751TIP3   OH253743   0.434   6.526   5.711  0.2520  0.2369  0.1324
10751TIP3    H153744   0.474   6.454   5.664  2.1508 -0.5085  2.6460
10751TIP3    H253745   0.398   6.486   5.790 -1.6995  1.5797  0.0082
10752TIP3   OH253746   4.033   0.929   4.096 -0.4278 -0.0023 -0.1063
10752TIP3    H153747   4.016   0.850   4.045  2.7159 -1.8393  1.3818
10752TIP3    H253748   4.069   0.991   4.032 -1.8711 -0.1464 -1.0902
10753TIP3   OH253749   2.576   2.389  16.334 -0.1573 -0.0926  0.4406
10753TIP3    H153750   2.640   2.437  16.386 -0.2718  1.2135 -0.5758
10753TIP3    H253751   2.603   2.297  16.342  1.1780  0.3180  0.9163
10754TIP3   OH253752   4.365   5.258  14.676 -0.4971 -0.1249  0.1963
10754TIP3    H153753   4.351   5.167  14.650 -1.2709  0.1604 -0.4346
10754TIP3    H253754   4.458   5.264  14.695 -0.3585 -0.9388 -0.2019
10755TIP3   OH253755   1.189   5.419  14.699 -0.3109  0.5210  0.3561
10755TIP3    H153756   1.201   5.324  14.705  2.0732  0.7657  0.3479
10755TIP3    H253757   1.212   5.452  14.786 -0.4283  1.1692  0.1521
10756TIP3   OH253758   0.925   3.136   2.211 -0.3345  0.0035  1.1139
10756TIP3    H153759   0.864   3.195   2.167 -1.3980 -0.2518  2.1987
10756TIP3    H253760   0.954   3.184   2.288 -0.3539 -0.4750  1.4203
10757TIP3   OH253761   2.193   2.777   6.211  0.4331 -0.1092 -1.0164
10757TIP3    H153762   2.159   2.778   6.300 -0.6958  0.1223 -1.4288
10757TIP3    H253763   2.271   2.721   6.215  0.9882  0.7184  0.3063
10758TIP3   OH253764   6.389   1.308   2.564  0.0321 -0.7042  0.9856
10758TIP3    H153765   6.449   1.342   2.630  0.2897  2.5197 -0.6732
10758TIP3    H253766   6.439   1.308   2.482 -0.7476 -3.0237  0.4215
10759TIP3   OH253767   6.418   3.438   1.939 -0.1953  0.4225 -0.0460
10759TIP3    H153768   6.349   3.432   1.872 -0.6447  0.4922  0.4016
10759TIP3    H253769   6.495   3.401   1.896 -0.7083 -0.3970 -0.3048
10760TIP3   OH253770   4.797   4.077   1.399  0.6248  0.0518  0.2552
10760TIP3    H153771   4.846   4.054   1.479  0.3087 -1.1976  0.0982
10760TIP3    H253772   4.865   4.102   1.337  0.9033  0.6208  0.7700
10761TIP3   OH253773   0.136   0.398  11.570 -0.1009  0.2963 -0.6229
10761TIP3    H153774   0.211   0.380  11.627 -1.3629 -1.4921  0.6011
10761TIP3    H253775   0.172   0.398  11.482  1.3881 -0.1626 -0.0452
10762TIP3   OH253776   4.234   4.306  16.544  0.0713 -0.4277 -0.6919
10762TIP3    H153777   4.270   4.388  16.576  2.7006 -0.7150 -2.5598
10762TIP3    H253778   4.245   4.245  16.617 -1.6658  0.7288  0.6189
10763TIP3   OH253779   2.893   5.061  12.794  0.1726 -0.0479  0.4147
10763TIP3    H153780   2.960   4.992  12.803 -1.5402 -1.8958 -0.1607
10763TIP3    H253781   2.864   5.078  12.883  3.5214  3.1756  1.1254
10764TIP3   OH253782   5.237   5.494   0.414 -0.3253  0.5148  0.6524
10764TIP3    H153783   5.268   5.435   0.483 -1.3979 -1.5724 -0.5673
10764TIP3    H253784   5.163   5.540   0.454  1.7376  2.6636  2.2811
10765TIP3   OH253785   5.159   5.715  16.206  0.0008 -0.2693  0.3904
10765TIP3    H153786   5.193   5.743  16.291  0.5900 -0.8156  0.3476
10765TIP3    H253787   5.236   5.680  16.160 -0.4852 -0.8578  0.0053
10766TIP3   OH253788   3.269   5.805  12.697 -0.1162 -0.0137  0.4289
10766TIP3    H153789   3.359   5.786  12.723 -0.3063 -0.2325  0.9242
10766TIP3    H253790   3.225   5.831  12.777 -0.4836  0.1501  0.1783
10767TIP3   OH253791   1.648   6.257   5.746 -0.3008 -0.6696 -0.3462
10767TIP3    H153792   1.685   6.343   5.729  1.1197 -1.0305  0.6926
10767TIP3    H253793   1.659   6.210   5.663 -1.1218  0.1303 -0.9306
10768TIP3   OH253794   5.944   4.224  15.826  0.0411  0.1121 -0.3130
10768TIP3    H153795   5.953   4.304  15.775  1.6938 -0.7750 -1.4967
10768TIP3    H253796   5.937   4.254  15.917 -0.2356  1.6185 -0.8075
10769TIP3   OH253797   4.713   2.071   3.473 -0.1939 -0.2592  0.1534
10769TIP3    H153798   4.786   2.071   3.535 -0.7087 -1.4251  0.7805
10769TIP3    H253799   4.637   2.048   3.526 -1.0254  0.8303 -0.5119
10770TIP3   OH253800   3.144   0.348   4.632 -0.2328 -0.7662  0.2268
10770TIP3    H153801   3.081   0.391   4.574  1.5993  0.4910 -0.9611
10770TIP3    H253802   3.182   0.278   4.579 -0.9830 -1.8863  1.1235
10771TIP3   OH253803   4.874   4.329   3.262 -0.2513  0.5597 -0.1684
10771TIP3    H153804   4.795   4.382   3.251 -1.5407 -1.4997 -1.6431
10771TIP3    H253805   4.865   4.290   3.349 -2.3946 -1.8078 -1.3082
10772TIP3   OH253806   6.477   2.763   3.097 -0.7870 -0.2545 -0.2789
10772TIP3    H153807   6.393   2.728   3.129 -1.1715  0.7991 -0.1115
10772TIP3    H253808   6.541   2.696   3.122 -1.6388 -1.3046 -0.8427
10773TIP3   OH253809   2.684   4.902   5.296 -0.1892  0.1190 -0.2245
10773TIP3    H153810   2.627   4.969   5.334 -0.3899 -0.8490  1.2494
10773TIP3    H253811   2.773   4.932   5.318 -0.0362  1.6268 -2.5221
10774TIP3   OH253812   6.418   1.648  12.236  0.8759 -0.1247 -0.7889
10774TIP3    H153813   6.419   1.728  12.182 -3.6577 -0.9660 -2.5787
10774TIP3    H253814   6.437   1.679  12.324  0.7411  2.7273 -1.6525
10775TIP3   OH253815   6.753   5.211  14.464 -0.2344  0.6205 -0.8663
10775TIP3    H153816   6.709   5.132  14.434  0.4815  0.1209 -0.6246
10775TIP3    H253817   6.708   5.233  14.546 -0.3716  0.4084 -0.8836
10776TIP3   OH253818   1.469   2.148   3.214  0.2178  0.7734 -0.0294
10776TIP3    H153819   1.530   2.221   3.203 -1.0916  1.7514 -1.0788
10776TIP3    H253820   1.482   2.093   3.137  0.0712  0.7724 -0.0547
10777TIP3   OH253821   1.779   5.785  14.611 -0.1462  0.7227  0.6348
10777TIP3    H153822   1.702   5.732  14.631  0.9661 -1.4685 -0.6032
10777TIP3    H253823   1.853   5.728  14.628  1.1351  1.9232 -0.6318
10778TIP3   OH253824   1.798   0.846   3.451  0.0855  0.3110  0.2698
10778TIP3    H153825   1.745   0.907   3.502  1.4735  1.1730  0.7543
10778TIP3    H253826   1.738   0.777   3.425 -0.9108  0.3965  2.1841
10779TIP3   OH253827   5.681   6.660   3.335 -0.4588  0.1042 -0.3516
10779TIP3    H153828   5.761   6.613   3.314 -1.2709 -2.0118  0.8960
10779TIP3    H253829   5.710   6.740   3.378  0.9842 -0.0247 -1.0447
10780TIP3   OH253830   0.965   0.873  13.408  0.3708 -0.0956 -0.3594
10780TIP3    H153831   1.046   0.888  13.360  0.6512 -0.1964  0.0789
10780TIP3    H253832   0.912   0.951  13.391 -0.0146 -0.6291 -1.7886
10781TIP3   OH253833   0.211   4.959   2.629  0.0806 -0.4105  0.6021
10781TIP3    H153834   0.299   4.997   2.623  0.7708 -2.1185 -1.4787
10781TIP3    H253835   0.183   4.979   2.718  2.4361  0.5067  1.2334
10782TIP3   OH253836   6.574   1.366   4.261  0.1024 -0.2671 -0.3240
10782TIP3    H153837   6.488   1.339   4.229  0.0600 -0.1852 -0.2763
10782TIP3    H253838   6.582   1.457   4.234  0.2692 -0.3404 -0.5299
10783TIP3   OH253839   0.752   6.271  14.301 -0.0328 -0.4556 -0.5541
10783TIP3    H153840   0.835   6.270  14.349 -0.9629  0.6882  1.2023
10783TIP3    H253841   0.730   6.178  14.291 -0.5292 -0.8477  2.7850
10784TIP3   OH253842   5.402   5.377   1.588  0.4598 -0.3751  0.3906
10784TIP3    H153843   5.384   5.363   1.681 -1.2360  0.6545  0.2565
10784TIP3    H253844   5.406   5.472   1.578 -3.0344 -0.2250 -1.1176
10785TIP3   OH253845   4.857   2.006   2.186  0.5796 -0.5068 -0.2686
10785TIP3    H153846   4.862   1.996   2.281 -2.3298 -0.2492  0.0257
10785TIP3    H253847   4.872   2.100   2.171 -0.4885 -0.2526  0.1496
10786TIP3   OH253848   1.078   2.327  16.535 -0.2312 -0.3707  0.5542
10786TIP3    H153849   1.091   2.403  16.479 -1.7793 -0.4163  0.0922
10786TIP3    H253850   0.983   2.322  16.547 -0.1174 -1.9301  0.9883
10787TIP3   OH253851   6.704   3.014  16.118  0.4494 -0.1314 -1.0092
10787TIP3    H153852   6.784   3.058  16.090  0.4759 -0.2195 -1.0739
10787TIP3    H253853   6.633   3.065  16.079  0.2882  1.8221  1.5281
10788TIP3   OH253854   3.569   5.376  15.025  0.3604  0.2872  0.7112
10788TIP3    H153855   3.652   5.327  15.027  1.0046  1.1117 -1.5731
10788TIP3    H253856   3.595   5.467  15.042  0.2984  0.8431 -1.7229
10789TIP3   OH253857   1.575   2.889  11.131  0.8512  0.3101  0.2903
10789TIP3    H153858   1.585   2.807  11.082  1.3354  1.0865 -0.9646
10789TIP3    H253859   1.510   2.869  11.198 -0.5735 -0.5406 -1.2699
10790TIP3   OH253860   2.007   1.722  13.480  0.2444  0.0369  0.1920
10790TIP3    H153861   2.031   1.750  13.392  1.8406 -1.1038  0.2223
10790TIP3    H253862   1.951   1.792  13.513 -1.6039 -0.1585 -2.2337
10791TIP3   OH253863   5.282   0.201   0.637  0.4086 -0.0097  0.0148
10791TIP3    H153864   5.260   0.273   0.578  1.0104 -0.4323 -0.7381
10791TIP3    H253865   5.240   0.224   0.720 -2.5596 -0.6335 -1.2175
10792TIP3   OH253866   1.265   0.387  11.396 -0.2644  0.1101 -0.4894
10792TIP3    H153867   1.343   0.363  11.447 -1.4007  0.4179  1.5134
10792TIP3    H253868   1.210   0.308  11.397 -0.6569  0.3787 -0.5162
10793TIP3   OH253869   1.261   5.556  12.357  0.5574  0.3827 -0.2532
10793TIP3    H153870   1.227   5.554  12.446  0.2286  0.8506 -0.3631
10793TIP3    H253871   1.356   5.543  12.367  0.3678 -0.8229  0.0602
10794TIP3   OH253872   4.546   2.278  16.646 -0.0671  0.0534 -0.0765
10794TIP3    H153873   4.571   2.370  16.640 -1.0248  0.2728 -0.8405
10794TIP3    H253874   4.569   2.253  16.736  2.6274  0.2859 -0.6330
10795TIP3   OH253875   6.874   2.434   0.123 -0.2621 -0.2428  0.7319
10795TIP3    H153876   6.886   2.496   0.194 -0.5318 -0.4747  0.9841
10795TIP3    H253877   6.937   2.460   0.056 -0.0762  0.0326  1.0173
10796TIP3   OH253878   4.376   6.502  12.317 -0.1535 -0.2619 -0.4187
10796TIP3    H153879   4.331   6.479  12.398  1.1857 -1.0304  0.1432
10796TIP3    H253880   4.322   6.571  12.278 -1.9817 -1.3730  0.0266
10797TIP3   OH253881   0.141   6.493   1.929  0.2041 -0.2717  0.1437
10797TIP3    H153882   0.110   6.410   1.891  1.6651 -1.6095  1.6889
10797TIP3    H253883   0.207   6.524   1.867 -1.4076  0.6097 -1.2222
10798TIP3   OH253884   5.448   3.299   1.741 -0.3019 -0.0776 -0.9052
10798TIP3    H153885   5.432   3.214   1.701  0.7524  0.1119 -1.7685
10798TIP3    H253886   5.528   3.287   1.791 -1.0611 -0.0325  0.3658
10799TIP3   OH253887   4.833   5.136  15.704  0.6712  0.0013 -0.1541
10799TIP3    H153888   4.759   5.085  15.674  0.9700 -0.5823  0.0798
10799TIP3    H253889   4.799   5.225  15.713 -0.4865 -0.5494  1.5926
10800TIP3   OH253890   5.419   0.613   1.866 -0.5232  0.5518  0.3041
10800TIP3    H153891   5.384   0.700   1.850 -0.1792  0.6698  0.1859
10800TIP3    H253892   5.366   0.555   1.813 -0.3749  0.7596 -0.0729
10801TIP3   OH253893   1.574   0.473  12.225 -0.2570  0.2329 -0.2356
10801TIP3    H153894   1.555   0.380  12.230  0.5464  0.0996  3.3014
10801TIP3    H253895   1.655   0.484  12.275  1.0312  2.5807 -2.5464
10802TIP3   OH253896   5.463   6.571   5.868 -0.1193  0.1073 -0.2097
10802TIP3    H153897   5.501   6.523   5.942 -0.6362 -0.0622 -0.0538
10802TIP3    H253898   5.538   6.588   5.811  0.0646 -1.0008 -0.3275
10803TIP3   OH253899   6.474   6.232  11.348  0.4195 -0.2256 -0.0984
10803TIP3    H153900   6.433   6.163  11.297  1.0154 -0.6031 -0.0716
10803TIP3    H253901   6.546   6.263  11.293  0.9071 -0.4611  0.4039
10804TIP3   OH253902   1.145   6.148  16.609  0.3769  0.5229  0.2531
10804TIP3    H153903   1.113   6.086  16.543 -0.0431 -0.2943  1.1979
10804TIP3    H253904   1.240   6.135  16.610  0.3418  0.2441  0.1037
10805TIP3   OH253905   5.481   5.238   1.128  0.2351 -0.4964  0.4001
10805TIP3    H153906   5.532   5.317   1.147 -0.3467 -0.2393  0.9276
10805TIP3    H253907   5.442   5.214   1.212 -0.9373 -0.3806 -0.0947
10806TIP3   OH253908   6.711   6.234   0.059 -0.2280  0.4223  0.4875
10806TIP3    H153909   6.739   6.151   0.098  1.8536  0.1307 -1.3755
10806TIP3    H253910   6.630   6.213   0.013  0.6762 -0.8555 -0.6255
10807TIP3   OH253911   2.884   5.277  15.153  0.3607 -0.4723  0.4656
10807TIP3    H153912   2.823   5.324  15.210 -0.4831 -1.0505  0.0583
10807TIP3    H253913   2.962   5.333  15.150  0.4361 -0.4303  2.1743
10808TIP3   OH253914   5.093   6.628   5.441 -0.3281  0.0601 -0.0041
10808TIP3    H153915   5.112   6.585   5.357  2.1154  2.9779 -1.1184
10808TIP3    H253916   5.176   6.623   5.489 -1.6900 -1.5807  2.3944
10809TIP3   OH253917   3.862   5.531   1.156 -0.2192  0.2240  0.6095
10809TIP3    H153918   3.936   5.475   1.136  0.1050  0.9357 -0.2853
10809TIP3    H253919   3.892   5.619   1.134 -1.6213  0.4237 -0.6632
10810TIP3   OH253920   5.080   2.447  14.967 -0.4109  0.0154 -0.2048
10810TIP3    H153921   5.124   2.387  15.027 -0.5144  0.0652 -0.0764
10810TIP3    H253922   5.059   2.523  15.022  0.4199  0.5015 -0.5444
10811TIP3   OH253923   1.274   2.498   4.595 -0.4538 -0.0082  0.6166
10811TIP3    H153924   1.348   2.528   4.543 -0.4616 -0.7103  0.1887
10811TIP3    H253925   1.247   2.575   4.646  0.7774  0.1622  1.0322
10812TIP3   OH253926   3.035   5.268   2.924 -0.5192  0.4041  0.0228
10812TIP3    H153927   2.986   5.348   2.903  0.3670  0.7541 -0.7708
10812TIP3    H253928   3.063   5.280   3.014 -1.8504  0.2106  0.4862
10813TIP3   OH253929   1.248   1.527  11.553  0.2321  0.2282  0.8513
10813TIP3    H153930   1.269   1.579  11.631  0.5056  0.1466  0.8324
10813TIP3    H253931   1.281   1.440  11.573 -0.2375  0.0516  0.8863
10814TIP3   OH253932   5.411   1.350   0.537  0.3503  0.5892  0.1600
10814TIP3    H153933   5.349   1.421   0.554  0.5792  0.9344 -0.4355
10814TIP3    H253934   5.386   1.316   0.452  0.5596  0.2801  0.2202
10815TIP3   OH253935   4.047   1.580   5.251 -0.0607 -0.2331  0.5208
10815TIP3    H153936   4.036   1.557   5.159 -3.5290 -0.5654  0.9077
10815TIP3    H253937   4.103   1.658   5.250 -1.6909  1.0361 -2.0730
10816TIP3   OH253938   4.742   2.768   4.308 -0.3083 -0.4959  0.7447
10816TIP3    H153939   4.648   2.786   4.305 -0.2913 -0.3726  0.9550
10816TIP3    H253940   4.753   2.689   4.255 -0.2023  0.8916 -1.4285
10817TIP3   OH253941   1.369   4.117   3.430 -0.4344  0.4294  0.2520
10817TIP3    H153942   1.287   4.097   3.474 -0.1771 -1.0034  0.1280
10817TIP3    H253943   1.436   4.107   3.498 -0.3280  1.3842  0.3012
10818TIP3   OH253944   6.821   0.492  15.494 -0.1294  0.2308 -0.6458
10818TIP3    H153945   6.780   0.462  15.575  1.5114 -0.6605 -0.0929
10818TIP3    H253946   6.867   0.572  15.518  1.8223 -0.9436 -0.1699
10819TIP3   OH253947   6.766   6.858  13.355 -0.1842 -0.0844  0.5863
10819TIP3    H153948   6.776   6.927  13.421  0.5967  0.3588  0.0288
10819TIP3    H253949   6.732   6.904  13.278  0.6410 -0.2513  0.1105
10820TIP3   OH253950   2.975   3.269  16.736  0.0730 -0.2699  0.2524
10820TIP3    H153951   2.889   3.256  16.696  0.1043 -0.5454  0.2745
10820TIP3    H253952   3.036   3.269  16.663  0.0714 -0.2231  0.2504
10821TIP3   OH253953   5.208   6.542  15.181 -0.4460  0.0079  0.6797
10821TIP3    H153954   5.293   6.577  15.152 -1.2924  0.4538 -1.4436
10821TIP3    H253955   5.212   6.449  15.158 -0.2210 -0.1747  1.4167
10822TIP3   OH253956   4.497   3.899   0.152 -0.3788  0.1478 -0.3313
10822TIP3    H153957   4.452   3.829   0.199  0.7467 -0.8246 -0.6475
10822TIP3    H253958   4.449   3.907   0.069  0.7980 -1.8612 -1.2852
10823TIP3   OH253959   3.363   3.203  14.927  0.7276  0.5121 -0.0404
10823TIP3    H153960   3.393   3.263  14.858 -0.3098  0.8362 -0.2236
10823TIP3    H253961   3.282   3.243  14.960  0.2192 -0.6047  0.0848
10824TIP3   OH253962   0.078   3.320  13.597  0.1404  0.2404  0.4204
10824TIP3    H153963   0.085   3.340  13.690  0.7785 -1.9449  0.9019
10824TIP3    H253964  -0.013   3.294  13.584 -0.2183  1.5613  0.1838
10825TIP3   OH253965   0.833   5.867  14.716 -0.1644 -0.2452  0.6093
10825TIP3    H153966   0.912   5.904  14.755  2.0686  0.1930 -3.7486
10825TIP3    H253967   0.788   5.942  14.678  1.3521 -1.0800 -3.2513
10826TIP3   OH253968   6.800   0.251   5.065  0.2128  0.3058 -0.8032
10826TIP3    H153969   6.773   0.286   4.980 -0.5168  2.7356  0.3352
10826TIP3    H253970   6.874   0.305   5.091  1.0319 -1.0164 -0.2623
10827TIP3   OH253971   4.435   1.998  16.363  0.0969 -0.2479  0.1644
10827TIP3    H153972   4.399   2.018  16.449 -0.1794  0.4441 -0.1070
10827TIP3    H253973   4.525   1.971  16.380  0.1667  0.2798  0.6309
10828TIP3   OH253974   3.149   2.412  14.308 -0.1248 -0.2678  0.3743
10828TIP3    H153975   3.244   2.399  14.307 -0.3428 -2.3348  1.3589
10828TIP3    H253976   3.113   2.328  14.278 -1.6582  0.2117  0.7784
10829TIP3   OH253977   4.755   5.159   2.845 -0.0561 -0.1757 -0.5159
10829TIP3    H153978   4.841   5.199   2.838  0.0806 -0.0070  1.4299
10829TIP3    H253979   4.768   5.068   2.817  1.0273 -0.4297  0.7074
10830TIP3   OH253980   3.701   6.743  12.074 -0.3290 -0.6332 -0.4772
10830TIP3    H153981   3.646   6.699  12.139 -1.5520  0.5662 -0.6529
10830TIP3    H253982   3.642   6.762  12.001 -0.1249  1.9984 -0.0704
10831TIP3   OH253983   3.227   4.591  16.065 -0.1830 -0.4743  0.7131
10831TIP3    H153984   3.257   4.674  16.029  1.3516 -1.8360 -1.4247
10831TIP3    H253985   3.251   4.595  16.158 -0.6550  1.6332  0.7956
10832TIP3   OH253986   4.628   2.568  15.700  0.2289 -0.2543  0.1798
10832TIP3    H153987   4.677   2.581  15.619 -0.6218  0.5745 -0.2171
10832TIP3    H253988   4.609   2.474  15.702  2.7378 -0.8490  0.9031
10833TIP3   OH253989   4.593   1.238  14.463  0.2866  0.3660 -0.0774
10833TIP3    H153990   4.555   1.304  14.404 -1.9282  0.7404  1.6277
10833TIP3    H253991   4.553   1.256  14.548  0.9457 -2.1276  0.8518
10834TIP3   OH253992   2.095   2.133   2.875  0.6145  0.9996 -0.0481
10834TIP3    H153993   2.137   2.082   2.805 -0.3148  0.3843 -0.1832
10834TIP3    H253994   2.149   2.118   2.952  0.2152 -0.4321 -0.0225
10835TIP3   OH253995   2.548   5.624   6.078 -0.3825 -0.0708  0.0807
10835TIP3    H153996   2.542   5.708   6.034  0.6061  1.0809  1.9963
10835TIP3    H253997   2.461   5.610   6.116  0.2113  1.5962  2.2269
10836TIP3   OH253998   6.783   2.479  15.319  0.1198  0.0118  0.4625
10836TIP3    H153999   6.720   2.494  15.248  1.4548  0.9340 -0.5897
10836TIP3    H254000   6.859   2.439  15.275  0.3407 -0.9469  1.6664
10837TIP3   OH254001   2.905   6.629  11.329 -0.2526  0.5912  0.7262
10837TIP3    H154002   2.863   6.614  11.414  1.0167  1.6583  1.5846
10837TIP3    H254003   2.969   6.558  11.321 -1.2277 -0.2451  0.0440
10838TIP3   OH254004   4.442   5.665   5.818  0.5669 -0.1901  0.4344
10838TIP3    H154005   4.450   5.600   5.888  2.1369 -1.3821 -0.7488
10838TIP3    H254006   4.533   5.687   5.797  0.1266  0.2775 -1.0767
10839TIP3   OH254007   2.503   2.489   3.665  0.0339  0.3188 -0.2567
10839TIP3    H154008   2.479   2.397   3.656  0.1481  0.2972 -0.3427
10839TIP3    H254009   2.450   2.534   3.599 -0.1300  0.3340 -0.1153
10840TIP3   OH254010   6.159   5.849  14.027  0.5900 -0.4132  0.0509
10840TIP3    H154011   6.105   5.850  13.948 -0.6794 -1.0757  0.8806
10840TIP3    H254012   6.227   5.784  14.008  0.2319 -0.6504 -0.4431
10841TIP3   OH254013   3.824   5.834   4.434 -0.5518 -0.4434  0.1229
10841TIP3    H154014   3.810   5.827   4.340  0.9312 -0.2610 -0.1340
10841TIP3    H254015   3.749   5.790   4.473 -2.1308  1.0437 -1.0899
10842TIP3   OH254016   1.293   3.700   0.621 -0.3865 -0.3200 -0.2103
10842TIP3    H154017   1.351   3.760   0.667 -0.2986 -0.8579  0.3921
10842TIP3    H254018   1.259   3.751   0.547 -1.9026  1.1257  1.4075
10843TIP3   OH254019   1.125   1.822   2.976 -0.3217  0.0924 -0.2598
10843TIP3    H154020   1.067   1.893   2.948 -2.1162 -0.6383  1.3537
10843TIP3    H254021   1.134   1.834   3.070 -0.1694 -1.4345 -0.0507
10844TIP3   OH254022   3.532   0.503   3.006  0.5340  0.0673  0.1482
10844TIP3    H154023   3.508   0.447   2.932  1.6627  0.0373 -0.2021
10844TIP3    H254024   3.466   0.573   3.006  0.7489  0.2873 -1.1250
10845TIP3   OH254025   3.269   4.106  12.926  0.1353  0.0340  0.1820
10845TIP3    H154026   3.208   4.037  12.955  1.4412 -0.9790  0.6042
10845TIP3    H254027   3.263   4.103  12.830  0.6154 -1.1034  0.1700
10846TIP3   OH254028   5.122   2.395  13.769 -0.6852 -0.2785 -0.0870
10846TIP3    H154029   5.202   2.447  13.763 -1.1170  0.3001 -1.3155
10846TIP3    H254030   5.111   2.376  13.862 -0.4901  1.8259  0.4056
10847TIP3   OH254031   0.348   0.803   5.656  0.4442  0.0967  0.0526
10847TIP3    H154032   0.355   0.721   5.608  0.0543  0.0681  0.0416
10847TIP3    H254033   0.287   0.856   5.604 -3.6598 -1.5466  2.6635
10848TIP3   OH254034   4.503   5.613   3.769 -0.0970  0.6619 -0.4525
10848TIP3    H154035   4.443   5.580   3.703 -2.1837  1.6235  0.8591
10848TIP3    H254036   4.478   5.705   3.780  0.6722  0.7077  1.1429
10849TIP3   OH254037   6.181   5.339  12.938  0.1023 -0.2635 -0.3902
10849TIP3    H154038   6.103   5.356  12.992  0.0780  0.8656 -0.7539
10849TIP3    H254039   6.201   5.247  12.955 -1.0523 -0.4656  0.0463
10850TIP3   OH254040   4.653   4.724   2.799 -0.1439  0.1171 -0.4825
10850TIP3    H154041   4.606   4.797   2.759 -0.9967  0.2988  0.7674
10850TIP3    H254042   4.650   4.743   2.893  0.9681 -0.7510 -0.2450
10851TIP3   OH254043   0.754   3.556   3.125 -0.1995 -0.0897  0.4241
10851TIP3    H154044   0.754   3.573   3.219  0.3762  1.8985  0.0971
10851TIP3    H254045   0.783   3.465   3.118  1.5327  0.2697  2.0944
10852TIP3   OH254046   0.958   5.615   3.290  0.2663  0.4494 -0.2063
10852TIP3    H154047   0.965   5.537   3.235 -1.0478  1.0823 -1.3220
10852TIP3    H254048   0.991   5.686   3.235 -1.7848  1.2204 -0.5121
10853TIP3   OH254049   6.851   1.695  16.789 -0.0248 -0.0255 -0.0656
10853TIP3    H154050   6.882   1.652  16.869  2.5644 -0.4099 -1.1805
10853TIP3    H254051   6.791   1.762  16.820  1.1020  0.0069  2.2427
10854TIP3   OH254052   5.978   4.702   6.157 -0.1207 -0.6017  0.0036
10854TIP3    H154053   5.883   4.694   6.165 -0.0006 -1.3821  0.7142
10854TIP3    H254054   6.013   4.621   6.193  0.8093 -0.4574 -0.5359
10855TIP3   OH254055   2.608   0.778   3.198  0.3113 -0.3828 -0.1092
10855TIP3    H154056   2.556   0.710   3.156  0.1610 -0.7401  0.6363
10855TIP3    H254057   2.625   0.841   3.129 -2.8681  0.8170  0.0231
10856TIP3   OH254058   5.819   6.761  12.580  0.3162  0.5103  0.2533
10856TIP3    H154059   5.797   6.821  12.651 -0.2651 -1.9017  2.2788
10856TIP3    H254060   5.763   6.787  12.507  0.8740  3.0371  0.6581
10857TIP3   OH254061   1.496   0.350  11.759  0.2355  0.1634 -0.3372
10857TIP3    H154062   1.579   0.302  11.763 -0.7599 -1.6061  0.1561
10857TIP3    H254063   1.518   0.438  11.790  1.7282 -0.5226  0.6891
10858TIP3   OH254064   6.577   1.619  13.150  0.6630 -0.4136 -1.4627
10858TIP3    H154065   6.553   1.569  13.228 -0.9577  0.7839 -1.1344
10858TIP3    H254066   6.619   1.555  13.092 -2.0741 -2.4112 -1.4370
10859TIP3   OH254067   1.241   5.080   6.457 -0.3117 -0.3892  0.3674
10859TIP3    H154068   1.325   5.054   6.494  0.4477  1.1753 -0.1689
10859TIP3    H254069   1.182   5.084   6.532  0.6088  0.4332  1.0714
10860TIP3   OH254070   3.441   0.658  15.208  0.4340 -0.6264  0.5848
10860TIP3    H154071   3.425   0.735  15.154  3.8462 -0.4413 -0.4065
10860TIP3    H254072   3.403   0.680  15.293 -1.1861  0.9244 -0.4714
10861TIP3   OH254073   5.668   3.965   2.394 -0.1689  0.1918 -0.0974
10861TIP3    H154074   5.687   3.888   2.447  0.6312  0.8547  0.6279
10861TIP3    H254075   5.749   4.017   2.399 -0.2541  0.4885 -1.5931
10862TIP3   OH254076   2.217   6.404   2.602  0.1770  0.1907 -0.0250
10862TIP3    H154077   2.276   6.347   2.553 -1.0509 -0.0823 -1.2365
10862TIP3    H254078   2.186   6.350   2.675 -2.3195 -1.4321 -2.1003
10863TIP3   OH254079   1.958   1.905  15.783 -0.6846  0.0514  0.4262
10863TIP3    H154080   1.996   1.870  15.702  0.9237  0.7258  0.8332
10863TIP3    H254081   1.897   1.837  15.813 -0.1756 -0.8675 -0.5686
10864TIP3   OH254082   3.410   2.716   5.434 -0.2896 -0.0379 -0.1255
10864TIP3    H154083   3.322   2.723   5.471 -0.2104  1.2643 -0.1362
10864TIP3    H254084   3.399   2.662   5.356 -0.9647 -0.3954  0.2050
10865TIP3   OH254085   6.640   1.762  15.358  0.2791 -0.9377  0.1833
10865TIP3    H154086   6.679   1.849  15.356  1.7180 -1.5566 -0.2914
10865TIP3    H254087   6.627   1.743  15.450  0.6273 -0.4907  0.3290
10866TIP3   OH254088   3.588   6.364   4.979  0.6325 -0.1605 -0.0911
10866TIP3    H154089   3.592   6.367   5.074 -0.7731 -0.5376  0.0101
10866TIP3    H254090   3.670   6.323   4.952  1.3836  0.6482  0.8964
10867TIP3   OH254091   6.236   6.873  11.685  0.5630  0.4549  0.0304
10867TIP3    H154092   6.319   6.892  11.729  0.3290 -0.9672  1.1613
10867TIP3    H254093   6.258   6.816  11.612  0.7862  1.7323 -0.9465
10868TIP3   OH254094   6.874   0.978  15.514 -0.2421 -0.0773  0.2791
10868TIP3    H154095   6.782   0.972  15.488 -0.3807 -0.1811  0.8018
10868TIP3    H254096   6.905   0.888  15.518 -0.0647 -0.0366 -0.0655
10869TIP3   OH254097   0.547   5.810  10.661  0.5571  0.0345 -0.3251
10869TIP3    H154098   0.503   5.894  10.674  2.2299  0.7506  1.2184
10869TIP3    H254099   0.476   5.747  10.651 -0.8480  1.1764  1.6537
10870TIP3   OH254100   4.173   5.414  10.395 -0.2318  0.1725  0.1427
10870TIP3    H154101   4.263   5.387  10.416 -0.0633  1.8346  1.8846
10870TIP3    H254102   4.118   5.354  10.446 -0.0313  0.2148  0.4129
10871TIP3   OH254103   2.297   1.412  12.872  0.3352 -0.2229  0.6805
10871TIP3    H154104   2.366   1.421  12.938  0.5770 -1.3127  0.5917
10871TIP3    H254105   2.333   1.453  12.793  0.8331 -0.6488  0.6810
10872TIP3   OH254106   4.420   6.298   1.195  0.1777  0.0923 -0.1496
10872TIP3    H154107   4.437   6.289   1.289  0.6484  1.4444 -0.0811
10872TIP3    H254108   4.326   6.318   1.190  0.0717 -0.3512 -0.0037
10873TIP3   OH254109   1.300   4.964  11.421  0.1011 -0.0862 -0.2949
10873TIP3    H154110   1.264   4.878  11.400 -0.9662  0.7894 -2.3367
10873TIP3    H254111   1.394   4.956  11.405  0.1405 -1.1124  0.4311
10874TIP3   OH254112   6.040   0.793   1.089 -0.2789 -0.1835  0.2601
10874TIP3    H154113   6.096   0.870   1.097 -0.2229 -0.1422 -0.4707
10874TIP3    H254114   5.993   0.806   1.006 -1.7634  0.0464  1.0860
10875TIP3   OH254115   5.775   4.824  15.656  0.1390  0.4550  0.7005
10875TIP3    H154116   5.719   4.900  15.639 -0.4706 -0.0961  0.1412
10875TIP3    H254117   5.736   4.754  15.603  1.7662  0.2258 -0.2553
10876TIP3   OH254118   5.503   5.912   2.157 -0.2779  0.4970  0.4810
10876TIP3    H154119   5.587   5.922   2.201 -0.1956  0.5943  0.2981
10876TIP3    H254120   5.464   5.835   2.198  0.4346 -0.3059 -0.3096
10877TIP3   OH254121   4.580   1.298  13.321  0.0722 -0.7061 -0.0444
10877TIP3    H154122   4.601   1.207  13.344  0.5840 -0.5508  0.1209
10877TIP3    H254123   4.607   1.306  13.230 -1.4141 -1.1544 -0.5470
10878TIP3   OH254124   5.385   0.613  16.261  0.0231 -0.3771  0.6716
10878TIP3    H154125   5.401   0.519  16.269  1.9507 -0.1538  0.0913
10878TIP3    H254126   5.401   0.632  16.168  1.2916  0.7483  1.0829
10879TIP3   OH254127   5.981   0.114   6.475 -0.7620  0.1379 -0.5156
10879TIP3    H154128   5.907   0.174   6.467 -2.0550 -1.5141 -2.0983
10879TIP3    H254129   5.970   0.073   6.560 -2.0816 -0.5186 -0.9713
10880TIP3   OH254130   4.611   2.128  15.803  0.2869 -0.0907  0.1230
10880TIP3    H154131   4.660   2.136  15.885 -0.5781 -1.9169  0.8746
10880TIP3    H254132   4.543   2.064  15.822  0.3227 -0.9053 -2.1492
10881TIP3   OH254133   1.491   3.130   3.388  0.0852  0.4693  0.0037
10881TIP3    H154134   1.418   3.167   3.438  1.0317  0.5667  1.3737
10881TIP3    H254135   1.472   3.036   3.384  0.2237  0.3858  0.9914
10882TIP3   OH254136   4.366   4.818   1.235 -0.3850 -0.4212 -0.2780
10882TIP3    H154137   4.308   4.892   1.251  0.6487  0.7232 -1.5298
10882TIP3    H254138   4.407   4.838   1.151 -1.0122 -3.0600 -1.3130
10883TIP3   OH254139   1.933   4.859  11.179  1.0492  0.3201  0.9763
10883TIP3    H154140   1.901   4.814  11.257 -0.4866 -1.3047 -0.4824
10883TIP3    H254141   1.880   4.939  11.174 -0.9524 -0.9779  0.1201
10884TIP3   OH254142   5.811   5.756  14.004 -0.1808 -0.2207 -0.1145
10884TIP3    H154143   5.855   5.671  14.002 -0.3410 -0.2987 -1.0328
10884TIP3    H254144   5.835   5.794  14.088 -1.2504 -1.7640  0.9440
10885TIP3   OH254145   0.242   3.931   0.499  0.2023 -0.1683  0.1113
10885TIP3    H154146   0.159   3.938   0.453  0.0845  1.3362  0.5177
10885TIP3    H254147   0.224   3.874   0.574 -0.6056  0.5767  0.4950
10886TIP3   OH254148   4.932   1.633   4.311 -0.4683  0.4086  0.1540
10886TIP3    H154149   4.881   1.634   4.230  1.1377  0.5395 -0.8935
10886TIP3    H254150   4.959   1.541   4.321 -1.2385  0.2535  0.9383
10887TIP3   OH254151   0.421   6.506  15.180 -0.4220  0.2327  0.3474
10887TIP3    H154152   0.470   6.431  15.212 -0.3792  0.2650  0.3575
10887TIP3    H254153   0.487   6.572  15.159 -0.5320  1.0720  2.3421
10888TIP3   OH254154   6.507   6.312  12.520 -0.0127  0.5181  0.3511
10888TIP3    H154155   6.450   6.306  12.443 -1.4888  0.7054  1.3920
10888TIP3    H254156   6.566   6.237  12.512  0.5040  1.0495 -1.4325
10889TIP3   OH254157   6.873   2.669  14.249  0.2905  0.5330 -0.0648
10889TIP3    H154158   6.819   2.666  14.169 -1.7711  0.7561  1.2478
10889TIP3    H254159   6.821   2.623  14.315  2.5178 -0.8069  0.8940
10890TIP3   OH254160   6.064   1.760  11.409 -0.1814  0.2482  0.1967
10890TIP3    H154161   5.996   1.792  11.468  0.1412  2.4017 -0.5226
10890TIP3    H254162   6.141   1.749  11.464 -0.4796  0.0483  0.5788
10891TIP3   OH254163   4.032   6.681  15.717 -0.2674 -0.0907  0.2498
10891TIP3    H154164   4.069   6.607  15.668  0.4538 -0.1209  0.8249
10891TIP3    H254165   4.015   6.646  15.804 -0.2286  0.3337  0.4272
10892TIP3   OH254166   5.738   5.705  15.102 -0.0274  0.3933  0.3235
10892TIP3    H154167   5.802   5.713  15.173 -1.0439 -0.4901  1.3990
10892TIP3    H254168   5.777   5.640  15.043  0.4589  0.5014  0.5166
10893TIP3   OH254169   3.624   6.846   5.542 -0.1255 -0.3054 -0.2151
10893TIP3    H154170   3.665   6.869   5.625 -0.6370  0.5252 -0.1876
10893TIP3    H254171   3.672   6.768   5.513 -1.9145 -2.5299  2.3256
10894TIP3   OH254172   0.047   6.792  11.039  0.0191 -0.1567 -0.3215
10894TIP3    H154173   0.039   6.886  11.022 -0.8109 -0.2592 -0.5387
10894TIP3    H254174   0.020   6.750  10.957  1.0267 -0.5870 -0.4561
10895TIP3   OH254175   6.671   4.779   0.059  0.1849 -0.1224  0.7279
10895TIP3    H154176   6.761   4.771   0.028  0.5092  3.7223  0.1120
10895TIP3    H254177   6.680   4.813   0.148 -0.6647 -0.6283  1.0163
10896TIP3   OH254178   0.221   2.718   1.021  0.3957 -0.9259  0.4859
10896TIP3    H154179   0.185   2.761   1.098  1.4023  1.2889 -0.2068
10896TIP3    H254180   0.278   2.650   1.057  0.4580 -0.2746  1.6898
10897TIP3   OH254181   1.638   5.981  15.488  0.0864 -0.1022  0.3068
10897TIP3    H154182   1.703   6.050  15.499  0.1143 -0.1696  0.5687
10897TIP3    H254183   1.660   5.916  15.555 -1.6075  0.8873  1.8925
10898TIP3   OH254184   6.003   3.891   3.508 -0.1898 -0.3038  0.0525
10898TIP3    H154185   5.989   3.980   3.538 -0.6042 -0.6175  0.8094
10898TIP3    H254186   6.088   3.893   3.463  0.6610  0.0705  1.6313
10899TIP3   OH254187   0.923   6.188  16.401  0.3766 -0.6334  0.2702
10899TIP3    H154188   0.868   6.188  16.479  1.5206 -0.7451  1.1058
10899TIP3    H254189   0.960   6.100  16.398 -0.1836 -0.8427 -0.7971
10900TIP3   OH254190   3.126   6.337  10.827  0.3312 -0.8398 -0.5671
10900TIP3    H154191   3.098   6.246  10.829  0.4756 -0.9381 -2.1403
10900TIP3    H254192   3.191   6.341  10.757  1.4278  0.1793  0.4577
10901TIP3   OH254193   2.044   4.692  15.795 -0.0452 -0.1836 -0.1638
10901TIP3    H154194   2.063   4.651  15.879 -1.9303 -1.1460 -0.1609
10901TIP3    H254195   2.131   4.710  15.757  0.9511 -3.7853  0.0324
10902TIP3   OH254196   0.145   4.712   3.122  0.2851 -0.2125 -0.3588
10902TIP3    H154197   0.151   4.663   3.204 -0.4385 -1.4766 -1.0294
10902TIP3    H254198   0.215   4.676   3.067 -0.1040 -0.3444 -0.7767
10903TIP3   OH254199   2.760   0.871   5.332 -0.2314 -0.2401  0.0310
10903TIP3    H154200   2.710   0.909   5.404  1.0835 -0.9638  1.3841
10903TIP3    H254201   2.824   0.814   5.374 -0.3513 -1.8451 -1.7785
10904TIP3   OH254202   3.329   2.462   2.928  0.9868 -0.0214  0.2172
10904TIP3    H154203   3.311   2.408   3.005  0.7922  1.4316  1.2372
10904TIP3    H254204   3.254   2.447   2.871  0.4344 -0.0768  0.9363
10905TIP3   OH254205   4.187   2.158  12.087  0.0834 -0.0459  0.1330
10905TIP3    H154206   4.239   2.099  12.142  1.0571 -0.6213 -1.3403
10905TIP3    H254207   4.236   2.163  12.005  0.1989  3.0844  0.3021
10906TIP3   OH254208   1.448   0.172  14.897 -0.0232 -0.3882  0.7229
10906TIP3    H154209   1.374   0.155  14.838  0.2479 -0.3578  0.3761
10906TIP3    H254210   1.485   0.085  14.914  0.0504 -0.3715  0.6495
10907TIP3   OH254211   0.351   6.463   5.373  0.0443 -0.0332 -0.2388
10907TIP3    H154212   0.406   6.458   5.295 -1.2201  1.8646 -1.3320
10907TIP3    H254213   0.265   6.434   5.344 -0.5728  1.1910  0.2989
10908TIP3   OH254214   2.048   4.032   4.909 -0.0659 -0.0549 -0.4992
10908TIP3    H154215   1.971   4.024   4.853  0.7451  2.0440 -2.0653
10908TIP3    H254216   2.122   4.027   4.848  0.9382  0.5404  0.6228
10909TIP3   OH254217   4.390   1.593   5.302  0.0919  0.4877  0.4761
10909TIP3    H154218   4.349   1.574   5.386 -1.3822 -0.6509 -0.4322
10909TIP3    H254219   4.393   1.688   5.297 -1.7984  0.6075  0.9276
10910TIP3   OH254220   0.604   5.926   3.436 -0.2261 -0.0486 -0.4060
10910TIP3    H154221   0.651   5.965   3.362 -1.0450 -0.3815 -1.1138
10910TIP3    H254222   0.586   5.836   3.407 -1.6765  0.2044 -0.3225
10911TIP3   OH254223   5.209   2.445  12.877 -0.6493  0.5051 -0.3401
10911TIP3    H154224   5.227   2.369  12.822  0.0477 -0.6858  1.4754
10911TIP3    H254225   5.214   2.412  12.966 -0.9974  2.5524  0.4800
10912TIP3   OH254226   2.762   6.798  12.138 -0.1198  0.2772 -0.1436
10912TIP3    H154227   2.850   6.798  12.101 -0.1476  0.9378 -0.2168
10912TIP3    H254228   2.709   6.752  12.073  0.2194 -0.3830  0.0364
10913TIP3   OH254229   5.803   6.071  12.527  0.8889 -0.2111  0.2025
10913TIP3    H154230   5.714   6.063  12.491  0.5051 -0.0296  1.0702
10913TIP3    H254231   5.857   6.097  12.453  0.3696 -1.1652 -0.5161
10914TIP3   OH254232   1.312   0.099  13.926  0.6173 -0.0168  0.3535
10914TIP3    H154233   1.289   0.010  13.897 -1.4578  0.5986 -0.0453
10914TIP3    H254234   1.404   0.093  13.950  0.6367 -2.1833 -0.0519
10915TIP3   OH254235   3.495   6.282  11.988 -0.2097  0.2612 -0.3994
10915TIP3    H154236   3.519   6.292  11.896 -1.3080  0.3391 -0.6877
10915TIP3    H254237   3.489   6.371  12.022  3.1231  0.2552  0.5908
10916TIP3   OH254238   2.037   2.967  11.145 -0.7090  0.4236 -0.6751
10916TIP3    H154239   2.128   2.940  11.159 -0.8216  0.0117 -0.7371
10916TIP3    H254240   2.034   2.993  11.052 -0.7243  0.1579 -0.7494
10917TIP3   OH254241   0.073   1.251  13.439  0.2202 -0.7059  0.5121
10917TIP3    H154242   0.134   1.269  13.367  0.3819 -2.8543  0.0620
10917TIP3    H254243   0.008   1.322  13.434  0.1204 -0.9035 -1.8664
10918TIP3   OH254244   1.574   1.059   0.373  0.0044 -0.2511 -0.3325
10918TIP3    H154245   1.493   1.085   0.328  1.8157  1.9116 -2.6127
10918TIP3    H254246   1.607   0.985   0.321 -0.1142 -0.6564  0.1610
10919TIP3   OH254247   3.082   5.871  12.190  0.7332  0.2141 -0.2635
10919TIP3    H154248   3.121   5.790  12.222  0.9504  0.2209 -0.5034
10919TIP3    H254249   3.134   5.893  12.112 -2.5176 -2.2052 -3.4227
10920TIP3   OH254250   3.552   4.852  14.958  0.0826 -0.0811  0.7663
10920TIP3    H154251   3.609   4.924  14.932 -1.3922  0.6272 -0.6426
10920TIP3    H254252   3.612   4.785  14.991  1.7585  0.4700 -1.0131
10921TIP3   OH254253   1.931   5.437  11.392 -0.1498 -0.0896 -0.1220
10921TIP3    H154254   1.990   5.509  11.417 -1.3566  0.9879 -0.2874
10921TIP3    H254255   1.986   5.358  11.398  0.9164  0.7034  1.0906
10922TIP3   OH254256   6.576   5.164  11.179 -0.2879 -0.2107  0.0755
10922TIP3    H154257   6.482   5.177  11.168 -0.1148  0.4123 -0.7707
10922TIP3    H254258   6.588   5.152  11.273 -1.1365  0.4266  0.2746
10923TIP3   OH254259   2.729   0.837  14.611 -0.2168  0.1102 -0.2596
10923TIP3    H154260   2.667   0.765  14.600  0.2473 -0.2502 -0.5261
10923TIP3    H254261   2.703   0.879  14.693 -1.7477  0.8818 -1.0934
10924TIP3   OH254262   4.828   5.681  16.746  0.9883 -0.4940 -0.5735
10924TIP3    H154263   4.846   5.709  16.656  2.6805  0.3388 -0.0091
10924TIP3    H254264   4.816   5.763  16.795  0.6005 -0.9231  0.0650
10925TIP3   OH254265   4.700   1.692   4.901  0.6861 -0.2657  0.3003
10925TIP3    H154266   4.745   1.675   4.983 -0.4559 -1.1427  0.7690
10925TIP3    H254267   4.609   1.671   4.918  0.2117  0.7337 -0.8449
10926TIP3   OH254268   5.298   1.128  16.981 -0.6599 -0.6393 -0.0724
10926TIP3    H154269   5.341   1.045  16.964 -1.7558 -1.0443 -0.9522
10926TIP3    H254270   5.370   1.190  16.993  0.1792 -1.1948 -1.9753
10927TIP3   OH254271   1.772   2.361  13.412  0.1804 -0.4670  0.8845
10927TIP3    H154272   1.730   2.299  13.353  1.3958  0.1125 -0.6575
10927TIP3    H254273   1.865   2.346  13.400  0.4705  0.4814  1.7946
10928TIP3   OH254274   2.142   4.234   5.711  0.0130  0.2535 -0.0746
10928TIP3    H154275   2.208   4.302   5.700  0.8126 -0.4335  0.3123
10928TIP3    H254276   2.090   4.264   5.786  0.8775  0.0620  0.6271
10929TIP3   OH254277   2.768   6.021   4.689 -0.0160  0.2925  0.6028
10929TIP3    H154278   2.736   6.082   4.622 -1.1812 -0.6892  0.2182
10929TIP3    H254279   2.688   5.981   4.724  0.7389 -1.6003  0.2665
10930TIP3   OH254280   5.502   3.358  10.273  0.2254  0.0820 -0.1119
10930TIP3    H154281   5.415   3.322  10.260 -0.4586  2.0854 -1.4893
10930TIP3    H254282   5.488   3.451  10.288  2.0900  0.3225  0.4323
10931TIP3   OH254283   1.201   5.862   2.358 -0.0202  0.3010  0.1030
10931TIP3    H154284   1.260   5.902   2.294  2.2598  0.4672  2.1903
10931TIP3    H254285   1.230   5.772   2.365 -0.3058  0.2575  0.8147
10932TIP3   OH254286   6.321   4.521  15.155 -0.0913  0.7063  0.0499
10932TIP3    H154287   6.403   4.505  15.109  0.8794 -0.0138  1.9628
10932TIP3    H254288   6.264   4.449  15.128  0.8677 -0.3778  0.8488
10933TIP3   OH254289   1.414   0.963  15.164 -0.4144  0.3132 -0.6583
10933TIP3    H154290   1.394   0.910  15.087 -2.9104  3.9252 -2.8073
10933TIP3    H254291   1.334   0.958  15.217  0.3060 -0.0476  0.4225
10934TIP3   OH254292   2.023   5.355  10.972  0.3768 -0.0175  0.5241
10934TIP3    H154293   2.057   5.277  10.928 -0.2372  0.0743 -0.1261
10934TIP3    H254294   1.928   5.348  10.965  0.1618 -0.7912  3.2148
10935TIP3   OH254295   6.451   3.084  10.734  0.0342  0.4270  0.1444
10935TIP3    H154296   6.368   3.087  10.782 -0.2836  0.9770 -0.4168
10935TIP3    H254297   6.425   3.074  10.642  0.5185  1.9782 -0.1957
10936TIP3   OH254298   3.996   1.476  12.330 -0.5013 -0.6446 -0.1709
10936TIP3    H154299   3.997   1.572  12.320  0.9516 -0.6962 -0.6616
10936TIP3    H254300   3.949   1.462  12.413 -2.8605  0.3475 -1.2417
10937TIP3   OH254301   5.402   0.700   0.734 -0.1042  0.3738  0.3799
10937TIP3    H154302   5.437   0.764   0.673  1.2263  0.3099  1.0368
10937TIP3    H254303   5.331   0.746   0.779 -1.2189  0.3674 -1.2838
10938TIP3   OH254304   1.462   1.915   1.161 -0.4825  0.0258  0.0633
10938TIP3    H154305   1.538   1.860   1.147 -0.4860  0.1441 -0.4440
10938TIP3    H254306   1.393   1.876   1.107 -0.5478  0.3926 -0.1271
10939TIP3   OH254307   0.740   6.567   1.571 -0.2558 -0.6505  0.3081
10939TIP3    H154308   0.831   6.551   1.596 -0.2710 -0.8209  0.2502
10939TIP3    H254309   0.717   6.647   1.619 -0.4434 -1.2482  1.2358
10940TIP3   OH254310   0.077   4.774  11.391  0.0961  0.5174  0.1017
10940TIP3    H154311   0.142   4.778  11.321  1.6896  2.6626  1.5617
10940TIP3    H254312   0.040   4.862  11.396 -2.2149 -0.3743  0.0405
10941TIP3   OH254313   1.059   2.454  12.696 -0.4729 -0.6125 -0.1499
10941TIP3    H154314   1.030   2.476  12.785 -0.3013  0.4003 -0.3367
10941TIP3    H254315   1.099   2.367  12.705 -1.7453 -1.1561  0.4837
10942TIP3   OH254316   1.381   4.870   3.198  0.3464  0.1724  0.6085
10942TIP3    H154317   1.442   4.802   3.227 -0.0351 -1.0718 -1.3207
10942TIP3    H254318   1.409   4.891   3.109  0.5370  2.7011  1.1968
10943TIP3   OH254319   1.404   6.038  11.382  0.5324 -0.2259 -0.6629
10943TIP3    H154320   1.319   6.071  11.412  1.0716  0.8516 -0.2776
10943TIP3    H254321   1.455   6.027  11.463  0.5857 -1.3954 -0.8426
10944TIP3   OH254322   2.887   1.857   0.948 -0.0840 -0.2107 -0.3380
10944TIP3    H154323   2.805   1.819   0.918 -0.9403  0.4368  1.0435
10944TIP3    H254324   2.890   1.836   1.042  0.8640  0.5865 -0.1696
10945TIP3   OH254325   5.379   3.342  14.057 -0.0573 -0.4730 -0.3663
10945TIP3    H154326   5.292   3.315  14.085  0.0878 -1.4997 -0.8284
10945TIP3    H254327   5.384   3.435  14.077 -1.2262 -0.4219 -0.2651
10946TIP3   OH254328   5.807   6.467  16.830  0.0177 -0.4534  0.4673
10946TIP3    H154329   5.784   6.559  16.842 -0.9394 -0.7492  1.0392
10946TIP3    H254330   5.902   6.465  16.832  0.0225  0.3546  1.7540
10947TIP3   OH254331   3.537   6.306   4.697 -0.6734  0.6513  0.3850
10947TIP3    H154332   3.516   6.308   4.791  0.4981  2.1259  0.6542
10947TIP3    H254333   3.599   6.234   4.689 -0.4804  0.7629  0.8208
10948TIP3   OH254334   4.512   4.691   2.437 -0.2219 -0.3455 -0.6475
10948TIP3    H154335   4.450   4.716   2.506 -0.2566 -0.3677 -0.6706
10948TIP3    H254336   4.460   4.639   2.376 -0.4750  0.6202 -1.2774
10949TIP3   OH254337   4.794   3.873   4.269 -0.2987 -0.8304 -0.1082
10949TIP3    H154338   4.804   3.959   4.310 -1.4573 -0.6201 -0.2443
10949TIP3    H254339   4.866   3.821   4.306 -0.1677 -0.0889  0.7166
10950TIP3   OH254340   5.197   3.963  16.749 -0.1526 -0.2524  0.0776
10950TIP3    H154341   5.195   4.053  16.717  0.0256 -0.1226  0.4392
10950TIP3    H254342   5.288   3.936  16.740 -0.8001 -1.8803 -4.1750
10951TIP3   OH254343   6.554   6.366   2.099  0.0165 -0.7531 -0.1961
10951TIP3    H154344   6.609   6.444   2.104  1.6133 -1.8654  0.2851
10951TIP3    H254345   6.467   6.396   2.127  0.1304  1.2187 -1.7277
10952TIP3   OH254346   1.425   1.754  12.414 -0.5079  0.3000 -0.3805
10952TIP3    H154347   1.479   1.818  12.368  0.0788 -0.0316 -0.1606
10952TIP3    H254348   1.481   1.719  12.483 -0.6156 -0.8919 -0.8715
10953TIP3   OH254349   4.011   3.263   0.432  0.3997 -0.1691  0.3592
10953TIP3    H154350   3.926   3.300   0.458 -0.7689 -1.5544 -1.2415
10953TIP3    H254351   4.073   3.297   0.496 -1.4442  0.5142  1.8715
10954TIP3   OH254352   1.777   2.344   3.410  0.4120 -0.3414 -0.2504
10954TIP3    H154353   1.780   2.423   3.464  0.1057 -1.5549  1.6517
10954TIP3    H254354   1.866   2.309   3.414 -0.2196 -1.9574  2.0035
10955TIP3   OH254355   2.967   3.862   3.546 -0.0869 -0.0843 -0.0571
10955TIP3    H154356   2.935   3.804   3.615 -1.1869  1.7028  1.0101
10955TIP3    H254357   3.062   3.867   3.560 -0.1001 -0.8829  0.3838
10956TIP3   OH254358   2.188   6.705  14.688  0.2733  0.2120  0.1501
10956TIP3    H154359   2.255   6.675  14.749  0.6210  0.7885  0.0573
10956TIP3    H254360   2.238   6.748  14.618 -0.2073  0.7935  0.1670
10957TIP3   OH254361   1.186   5.394   3.744  0.0753  0.1609 -0.3154
10957TIP3    H154362   1.123   5.444   3.692  1.0351  0.7138 -0.9633
10957TIP3    H254363   1.184   5.306   3.706  0.0344  0.2949 -0.6232
10958TIP3   OH254364   6.202   0.129  14.666 -0.1506  0.4535  0.1904
10958TIP3    H154365   6.136   0.059  14.657  0.6000 -0.4755  1.5473
10958TIP3    H254366   6.206   0.168  14.579 -0.7960 -1.0229 -0.5568
10959TIP3   OH254367   1.133   2.878   0.393 -0.2891 -0.2899  0.2202
10959TIP3    H154368   1.207   2.856   0.335 -0.4601  1.5929 -0.7770
10959TIP3    H254369   1.068   2.811   0.374  0.7774 -1.4313  0.4267
10960TIP3   OH254370   0.695   3.773  11.464 -0.1660 -0.4410  0.1260
10960TIP3    H154371   0.632   3.813  11.404  2.1065  1.1097 -1.3653
10960TIP3    H254372   0.649   3.773  11.548 -1.1817  3.5052 -0.1851
10961TIP3   OH254373   5.104   5.108   1.004  0.2667  0.2570 -0.5215
10961TIP3    H154374   5.179   5.142   0.956  1.9606 -0.0791  1.7097
10961TIP3    H254375   5.094   5.018   0.973  1.1984  0.1073 -0.4145
10962TIP3   OH254376   0.920   5.977   3.732  0.2561 -0.7467  0.4512
10962TIP3    H154377   0.863   5.904   3.754 -0.7636 -0.3884 -0.8801
10962TIP3    H254378   0.863   6.054   3.733  0.4721 -0.4949 -1.7262
10963TIP3   OH254379   3.472   1.623   1.831 -0.1774 -0.0362  0.0374
10963TIP3    H154380   3.555   1.664   1.856 -0.2895  0.6934 -0.7475
10963TIP3    H254381   3.478   1.612   1.736 -1.3057  0.7797 -0.1453
10964TIP3   OH254382   1.792   1.065  14.646  0.0823 -0.1841  0.4903
10964TIP3    H154383   1.878   1.043  14.681  0.5412  0.8677  0.0591
10964TIP3    H254384   1.763   0.985  14.603  1.7406  0.0113 -1.1159
10965TIP3   OH254385   5.461   5.143   4.004 -0.0440  0.2599 -0.1115
10965TIP3    H154386   5.542   5.146   3.954  0.5846 -0.8306  0.8079
10965TIP3    H254387   5.392   5.158   3.938  0.7566 -1.0283 -1.2976
10966TIP3   OH254388   5.162   3.680   3.979  0.0709  0.4490  0.3143
10966TIP3    H154389   5.233   3.644   3.926 -0.7124 -0.2021 -0.3138
10966TIP3    H254390   5.187   3.771   3.993  0.9870  0.2536  0.0287
10967TIP3   OH254391   1.572   0.271   0.485 -0.0774 -0.4373 -0.0533
10967TIP3    H154392   1.650   0.220   0.506  0.7916  0.1821 -1.6040
10967TIP3    H254393   1.563   0.264   0.390 -0.2624  1.7742 -0.2579
10968TIP3   OH254394   2.565   3.481  12.944 -0.7123  0.4173 -0.4202
10968TIP3    H154395   2.501   3.518  13.005 -0.8638  0.1690 -0.4271
10968TIP3    H254396   2.527   3.497  12.858 -0.3930  0.9666 -0.4622
10969TIP3   OH254397   6.735   3.498  10.714  0.5127  0.3231 -0.0299
10969TIP3    H154398   6.784   3.488  10.632  1.0291  1.1838  0.1556
10969TIP3    H254399   6.760   3.585  10.746 -0.9620  0.7039  0.1917
10970TIP3   OH254400   2.702   2.642  11.468  0.0658  0.1575  0.2984
10970TIP3    H154401   2.677   2.550  11.468  1.9825 -0.3989 -0.3476
10970TIP3    H254402   2.727   2.661  11.558 -0.5444  0.1304  0.4811
10971TIP3   OH254403   6.363   4.919  13.981 -0.1565  0.9348 -0.3903
10971TIP3    H154404   6.314   4.990  14.022  2.4092  2.9931 -0.6317
10971TIP3    H254405   6.419   4.962  13.917  1.9596 -1.2077 -0.1414
10972TIP3   OH254406   5.986   1.781   3.128  0.0681  0.5455  0.1525
10972TIP3    H154407   6.059   1.725   3.103 -0.3961 -0.4187  0.9239
10972TIP3    H254408   6.004   1.806   3.219 -0.9670 -0.3814  0.6294
10973TIP3   OH254409   5.417   5.576  15.765  0.9529 -0.3040 -0.0184
10973TIP3    H154410   5.399   5.669  15.776 -0.2048 -0.4069 -0.8951
10973TIP3    H254411   5.335   5.539  15.733  1.7719 -1.4025 -0.9137
10974TIP3   OH254412   3.593   5.537  15.332 -0.2628 -0.2941 -0.2903
10974TIP3    H154413   3.607   5.489  15.251  1.3406  0.6448 -0.6175
10974TIP3    H254414   3.505   5.573  15.324  0.6100  1.5524 -2.5986
10975TIP3   OH254415   4.517   0.753  13.948  0.4712  0.8364  0.8284
10975TIP3    H154416   4.555   0.668  13.926  1.1763  1.2450  0.4575
10975TIP3    H254417   4.433   0.731  13.989 -0.9047  0.0017 -2.1125
10976TIP3   OH254418   1.964   2.826  12.279  0.5977 -0.2736  0.3672
10976TIP3    H154419   1.961   2.730  12.284  0.5195 -0.3901 -1.3814
10976TIP3    H254420   2.027   2.844  12.209 -1.6209  0.8567 -1.4575
10977TIP3   OH254421   5.141   3.079  15.367  0.1899 -0.3713  0.3986
10977TIP3    H154422   5.047   3.069  15.386  0.2352 -0.3366  0.6477
10977TIP3    H254423   5.144   3.140  15.294  0.0209 -0.3281  0.4263
10978TIP3   OH254424   0.566   5.082  12.731 -0.2392  0.4665 -0.8593
10978TIP3    H154425   0.579   5.010  12.792  1.3223 -0.0719 -1.7886
10978TIP3    H254426   0.532   5.154  12.786  1.9817  0.3092  0.8416
10979TIP3   OH254427   0.746   2.044  14.244 -0.7544  1.0282  0.0397
10979TIP3    H154428   0.703   2.006  14.167 -0.4187  1.6677 -0.4729
10979TIP3    H254429   0.738   2.139  14.231  0.2943  1.1524  0.2276
10980TIP3   OH254430   5.955   1.314   5.932  0.3367  0.3869 -0.1127
10980TIP3    H154431   6.019   1.332   6.000  0.5945  0.2984 -0.3284
10980TIP3    H254432   5.942   1.219   5.935 -0.4359  0.5029  0.5058
10981TIP3   OH254433   2.980   2.920   0.034  0.1146  0.0301 -0.6893
10981TIP3    H154434   2.976   3.001   0.085 -2.3519 -0.2079 -0.3584
10981TIP3    H254435   2.927   2.938  -0.044  1.4885 -0.5441 -1.8166
10982TIP3   OH254436   2.656   6.117  10.488  0.1897  0.1177  0.1345
10982TIP3    H154437   2.606   6.038  10.468  1.5426 -0.6918 -0.0797
10982TIP3    H254438   2.738   6.086  10.525  0.9972  1.3918 -0.5049
10983TIP3   OH254439   1.854   6.682   2.973 -0.4326 -0.6181 -0.1070
10983TIP3    H154440   1.925   6.726   3.020 -1.0674  0.2078  0.1132
10983TIP3    H254441   1.871   6.589   2.985 -0.0069 -0.4243  0.8906
10984TIP3   OH254442   2.660   1.926   1.594 -1.1805  0.1183 -0.7070
10984TIP3    H154443   2.694   1.838   1.613 -0.0955  0.6519 -0.1113
10984TIP3    H254444   2.719   1.961   1.527 -2.1675  0.0564 -1.6321
10985TIP3   OH254445   2.193   2.053   2.625 -0.0115  0.3281 -0.2556
10985TIP3    H154446   2.270   2.071   2.572  0.9408  0.0714  0.9922
10985TIP3    H254447   2.154   1.974   2.586  0.8645 -0.0588 -0.3580
10986TIP3   OH254448   6.058   2.238   2.453 -0.3083 -0.2102 -0.3981
10986TIP3    H154449   6.030   2.326   2.477 -2.1242 -0.3813 -1.6826
10986TIP3    H254450   6.090   2.247   2.363 -0.1084 -0.7853 -0.3885
10987TIP3   OH254451   0.459   5.210  10.967  0.2339 -0.7261  0.2423
10987TIP3    H154452   0.473   5.248  10.880  2.2998 -0.2212  0.7422
10987TIP3    H254453   0.425   5.283  11.020  2.5034  0.0457  0.7463
10988TIP3   OH254454   6.172   3.957  13.293 -0.3413 -0.1664 -0.9105
10988TIP3    H154455   6.141   3.987  13.207 -2.4686 -0.5797 -0.3567
10988TIP3    H254456   6.121   4.010  13.355  0.7714 -0.2628  0.1058
10989TIP3   OH254457   5.787   4.814   1.170  0.5300 -0.6890  0.5684
10989TIP3    H154458   5.835   4.831   1.251  1.3356  0.4734 -0.1328
10989TIP3    H254459   5.742   4.896   1.151  0.1132 -1.0459 -0.0248
10990TIP3   OH254460   4.282   6.361  15.878 -0.0562  0.2218  0.5855
10990TIP3    H154461   4.373   6.359  15.906  0.8659  1.3002 -2.0120
10990TIP3    H254462   4.261   6.454  15.870 -0.9536 -0.0280 -0.1226
10991TIP3   OH254463   3.948   1.434   3.733  0.1044 -0.1656 -0.6883
10991TIP3    H154464   3.864   1.408   3.695  0.1598  0.6027 -1.3473
10991TIP3    H254465   3.996   1.473   3.660 -0.5437  3.2110  0.5526
10992TIP3   OH254466   0.731   6.089  16.057 -0.0761 -0.4950 -0.2158
10992TIP3    H154467   0.699   6.135  16.134  1.4781 -0.9021  0.7283
10992TIP3    H254468   0.666   6.106  15.990 -0.6080  1.3187  0.6919
10993TIP3   OH254469   3.729   0.105  12.861 -0.5515  0.1234  0.0407
10993TIP3    H154470   3.687   0.178  12.905  0.7199 -0.4920  2.4162
10993TIP3    H254471   3.664   0.034  12.864 -0.5423  0.1448  0.7690
10994TIP3   OH254472   1.584   2.046   3.454 -0.2460 -0.1066 -0.0998
10994TIP3    H154473   1.518   2.056   3.386  0.5173  0.7619 -0.7462
10994TIP3    H254474   1.569   2.120   3.513  0.2463  0.1849 -0.3376
10995TIP3   OH254475   4.610   4.641  15.480  0.2056  0.1250 -0.0883
10995TIP3    H154476   4.632   4.648  15.573  0.4582 -3.5618  0.2446
10995TIP3    H254477   4.679   4.691  15.436  1.6580 -0.2681  1.6057
10996TIP3   OH254478   5.711   0.398  13.385  0.3032 -0.0708  0.2742
10996TIP3    H154479   5.766   0.340  13.437  0.5517 -1.8581 -1.8608
10996TIP3    H254480   5.772   0.446  13.330 -0.1002 -0.0765 -0.1824
10997TIP3   OH254481   6.277   6.816  14.148  0.8523  0.0902  0.7584
10997TIP3    H154482   6.344   6.884  14.146  0.8238  0.1083 -0.3107
10997TIP3    H254483   6.286   6.772  14.063 -1.1162  0.7117  0.1940
10998TIP3   OH254484   0.272   6.812   2.933 -0.4104 -0.0470 -0.2107
10998TIP3    H154485   0.206   6.763   2.882 -1.8384  0.0270  1.4831
10998TIP3    H254486   0.328   6.744   2.970 -1.6530 -0.3665  1.1436
10999TIP3   OH254487   5.856   4.963  16.491 -0.4084 -0.3890 -0.2616
10999TIP3    H154488   5.888   4.932  16.576 -1.2512  1.1324  0.6740
10999TIP3    H254489   5.892   4.902  16.427  5.0837  1.5110  0.4746
11000TIP3   OH254490   0.144   3.344  11.178  0.2489  0.0524  0.1228
11000TIP3    H154491   0.155   3.439  11.179 -0.4990  0.1467 -0.4585
11000TIP3    H254492   0.097   3.325  11.097 -0.0248 -0.7678  0.4578
11001TIP3   OH254493   0.283   3.857   3.045 -0.0277 -0.1362  0.3319
11001TIP3    H154494   0.355   3.819   3.095 -1.0656 -0.6603  1.4907
11001TIP3    H254495   0.234   3.909   3.109 -1.5385 -1.0393 -0.0255
11002TIP3   OH254496   5.468   5.298   4.230  0.3053 -0.0410  0.1533
11002TIP3    H154497   5.440   5.247   4.306  1.0985  1.0375  1.2031
11002TIP3    H254498   5.484   5.232   4.162 -2.2501 -0.8853  0.2811
11003TIP3   OH254499   3.898   6.279   1.699 -0.3653 -0.4893 -0.4947
11003TIP3    H154500   3.976   6.276   1.754  0.2936 -1.9630 -1.4512
11003TIP3    H254501   3.837   6.335   1.747  0.9043 -0.1202  0.7528
11004TIP3   OH254502   5.522   0.215  13.267 -0.0755  0.3019 -0.3467
11004TIP3    H154503   5.560   0.171  13.191  0.2168 -2.5435  1.3006
11004TIP3    H254504   5.595   0.265  13.305 -0.0459  1.1571 -1.4692
11005TIP3   OH254505   6.405   2.248  15.448  0.3268 -0.2136 -0.0373
11005TIP3    H154506   6.497   2.258  15.470  0.2844 -1.7376  0.9674
11005TIP3    H254507   6.398   2.162  15.407 -0.8239 -0.6622  1.0295
11006TIP3   OH254508   3.868   4.984  11.227 -0.5682  0.0244  0.3472
11006TIP3    H154509   3.796   5.004  11.287  0.1074 -0.0944  1.2271
11006TIP3    H254510   3.842   4.902  11.185 -0.4615 -0.6215  1.4872
11007TIP3   OH254511   4.768   4.700   5.571  0.3210 -0.6315 -0.1100
11007TIP3    H154512   4.698   4.696   5.505 -0.7531 -0.2049  0.9638
11007TIP3    H254513   4.792   4.793   5.575 -1.0673 -0.2945  1.5139
11008TIP3   OH254514   6.645   1.733   2.123  0.2337 -0.6414 -0.7737
11008TIP3    H154515   6.702   1.685   2.183  0.3210 -0.7018 -0.9045
11008TIP3    H254516   6.703   1.758   2.051 -0.1642 -1.7408 -1.4959
11009TIP3   OH254517   0.206   2.016   5.259  0.3675  0.0824 -0.6696
11009TIP3    H154518   0.153   1.971   5.325  2.0577 -0.5203  0.3384
11009TIP3    H254519   0.233   1.947   5.198 -0.1024  0.4117 -1.2656
11010TIP3   OH254520   4.673   5.853   2.713 -0.6713 -0.0146 -0.2952
11010TIP3    H154521   4.745   5.859   2.650  0.6733 -1.1957  1.0733
11010TIP3    H254522   4.711   5.882   2.796 -2.2692  1.0033  0.1388
11011TIP3   OH254523   5.485   1.878  16.468 -0.0497 -0.2873  0.3988
11011TIP3    H154524   5.525   1.795  16.494  0.7565 -0.4462 -1.2093
11011TIP3    H254525   5.555   1.925  16.421 -0.4675  1.3364  1.3264
11012TIP3   OH254526   0.829   5.149   4.178  0.2948  0.7494  0.0508
11012TIP3    H154527   0.900   5.180   4.122 -0.4367  1.2387 -0.6274
11012TIP3    H254528   0.750   5.186   4.140 -0.2525  0.9217  1.2845
11013TIP3   OH254529   5.011   1.002   1.544 -0.2447 -0.3634 -0.0170
11013TIP3    H154530   5.095   0.959   1.560 -0.2506  0.0306  1.2014
11013TIP3    H254531   5.027   1.093   1.567 -0.8531 -0.1752 -0.3447
11014TIP3   OH254532   5.756   3.450  14.610 -0.2170  0.1108 -0.8643
11014TIP3    H154533   5.823   3.383  14.622  0.6434  0.6866 -2.2141
11014TIP3    H254534   5.794   3.529  14.648  0.1333  0.5760 -2.1520
11015TIP3   OH254535   2.649   4.910   4.566  0.2967  0.1362  0.5839
11015TIP3    H154536   2.670   4.817   4.571 -1.7579 -0.6177 -2.3461
11015TIP3    H254537   2.563   4.918   4.606  0.7532  0.9360  1.4415
11016TIP3   OH254538   3.710   4.503   2.878  0.2634  0.1074  0.0539
11016TIP3    H154539   3.671   4.429   2.924 -1.0607  0.4659 -0.4526
11016TIP3    H254540   3.642   4.532   2.817  0.4914  2.1780  0.7064
11017TIP3   OH254541   6.416   0.809  12.825 -0.3841  0.0305  0.2713
11017TIP3    H154542   6.488   0.807  12.761 -1.2837  0.3306 -0.7761
11017TIP3    H254543   6.338   0.823  12.773 -1.2035 -0.1277  1.4164
11018TIP3   OH254544   6.684   5.631   2.608  0.2478  0.2643 -0.0585
11018TIP3    H154545   6.693   5.574   2.685  0.3869 -0.7520 -0.7988
11018TIP3    H254546   6.607   5.597   2.562 -0.9133  1.9835  0.5299
11019TIP3   OH254547   6.454   1.584   1.591 -0.5175 -0.3990  0.1422
11019TIP3    H154548   6.502   1.533   1.655  1.8836 -2.0011 -2.6953
11019TIP3    H254549   6.496   1.670   1.592  0.0458 -0.6726  0.1528
11020TIP3   OH254550   1.350   0.302   6.322  0.2923 -0.6414 -0.6506
11020TIP3    H154551   1.390   0.362   6.385  1.1217 -1.5670 -0.2559
11020TIP3    H254552   1.392   0.324   6.239 -0.2097  0.0421 -0.7299
11021TIP3   OH254553   6.205   1.845  15.512 -0.4790  0.1803  0.4307
11021TIP3    H154554   6.285   1.841  15.565  0.1529 -0.0149 -0.5183
11021TIP3    H254555   6.216   1.776  15.447 -2.0512 -0.7847  1.1273
11022TIP3   OH254556   5.618   2.404  13.936 -0.6769 -0.0786  0.5863
11022TIP3    H154557   5.625   2.432  13.844 -0.5511 -2.6011 -0.2511
11022TIP3    H254558   5.632   2.309  13.933 -0.0594 -0.1459  3.3192
11023TIP3   OH254559   1.770   2.040   2.287  0.3255 -0.5389  0.2297
11023TIP3    H154560   1.749   2.096   2.213  1.4796 -1.8586 -1.1776
11023TIP3    H254561   1.850   1.995   2.260  0.0965 -1.9619  1.7847
11024TIP3   OH254562   4.512   6.660   5.893 -0.5207 -0.1480 -0.2462
11024TIP3    H154563   4.551   6.574   5.876 -2.7470 -1.2239 -0.1844
11024TIP3    H254564   4.548   6.686   5.977  0.6387 -0.7235 -0.5321
11025TIP3   OH254565   6.431   0.149  12.232 -0.0686  0.0742  0.0543
11025TIP3    H154566   6.356   0.091  12.245 -0.0593 -0.2196 -1.0818
11025TIP3    H254567   6.436   0.161  12.137  0.5105  1.1789  0.2086
11026TIP3   OH254568   3.990   0.721  15.712  0.1703  0.4792  0.2284
11026TIP3    H154569   3.906   0.682  15.733 -0.2106  1.1738  0.0168
11026TIP3    H254570   4.053   0.674  15.767 -0.2967 -0.3000  0.1020
11027TIP3   OH254571   2.842   5.164   5.833 -0.6683 -0.0676 -0.2534
11027TIP3    H154572   2.747   5.172   5.821 -0.5257  0.6870 -0.9510
11027TIP3    H254573   2.855   5.167   5.927 -1.2823  0.4426 -0.1825
11028TIP3   OH254574   6.046   5.595  16.263  0.3434  0.0849 -0.5235
11028TIP3    H154575   6.111   5.666  16.262 -0.4467  0.8644  0.4957
11028TIP3    H254576   6.098   5.515  16.275  1.0534  0.8618  2.6034
11029TIP3   OH254577   5.069   3.692   5.209 -0.3835  0.2577 -0.2022
11029TIP3    H154578   5.049   3.646   5.127 -1.8035  1.8690 -0.7945
11029TIP3    H254579   5.017   3.646   5.275  0.0118 -0.4302 -0.3499
11030TIP3   OH254580   5.334   6.216   1.732 -0.0608  0.5133 -0.2079
11030TIP3    H154581   5.397   6.151   1.762 -1.6908 -0.8277  0.4524
11030TIP3    H254582   5.326   6.277   1.805 -1.1038 -0.5436  0.6002
11031TIP3   OH254583   2.892   4.346  14.443  0.5039  0.2488 -0.0681
11031TIP3    H154584   2.888   4.272  14.382  0.4625 -0.0939  0.3432
11031TIP3    H254585   2.986   4.363  14.453  0.5990 -0.8970  1.1898
11032TIP3   OH254586   5.006   4.651   4.452  0.1880 -0.1204 -0.4853
11032TIP3    H154587   4.933   4.708   4.431  1.2450  0.5866 -2.5275
11032TIP3    H254588   4.992   4.627   4.544 -2.1548  0.5841 -0.5895
11033TIP3   OH254589   2.937   2.232   1.603  0.2894  0.3302  0.0211
11033TIP3    H154590   2.895   2.295   1.662 -0.6864 -0.9613  0.7530
11033TIP3    H254591   3.007   2.193   1.657  2.2215  2.1120 -1.0314
11034TIP3   OH254592   1.407   3.219   3.044  0.7105  0.0151 -0.1323
11034TIP3    H154593   1.421   3.286   3.111 -0.5080  0.9977 -0.8281
11034TIP3    H254594   1.329   3.171   3.073 -0.1034  0.7412 -1.0392
11035TIP3   OH254595   5.531   4.965   0.429 -0.1443  0.4128 -0.0025
11035TIP3    H154596   5.591   5.025   0.474  0.8591 -1.2769  1.0369
11035TIP3    H254597   5.478   4.927   0.499  0.3602 -1.1063 -0.4106
11036TIP3   OH254598   5.702   5.094  14.920 -0.0411  0.6161 -0.2226
11036TIP3    H154599   5.650   5.014  14.926 -0.5155  0.5805 -3.4721
11036TIP3    H254600   5.782   5.068  14.875 -0.1880  1.9438 -1.3139
11037TIP3   OH254601   0.352   1.161  13.177 -0.1074 -0.4016  0.6997
11037TIP3    H154602   0.409   1.232  13.148 -0.4869 -0.7578 -1.0625
11037TIP3    H254603   0.404   1.082  13.163 -0.7964 -0.6850 -0.3917
11038TIP3   OH254604   5.287   1.718  15.448  0.3040 -0.4950 -0.0143
11038TIP3    H154605   5.281   1.658  15.374 -0.9899  0.2401 -0.5345
11038TIP3    H254606   5.326   1.797  15.412  1.2726 -0.7349  0.4907
11039TIP3   OH254607   5.824   2.721   5.864 -0.1257  0.0464 -0.1618
11039TIP3    H154608   5.833   2.625   5.871 -1.5320 -0.0570  0.7030
11039TIP3    H254609   5.891   2.747   5.801 -0.4543 -1.6397 -1.2681
11040TIP3   OH254610   3.232   3.451   4.797 -0.7831 -0.2910  0.1774
11040TIP3    H154611   3.299   3.434   4.862  0.3245  0.2095 -0.7901
11040TIP3    H254612   3.230   3.372   4.743 -0.2347  0.0668 -0.3929
11041TIP3   OH254613   6.388   4.088  11.360  0.2633  0.3015 -0.0506
11041TIP3    H154614   6.392   4.120  11.450  1.6389 -0.2701  0.1108
11041TIP3    H254615   6.426   4.000  11.363 -2.4236 -0.9998 -0.6702
11042TIP3   OH254616   4.122   1.612  13.910 -0.2016  0.4050 -0.1720
11042TIP3    H154617   4.143   1.686  13.854 -0.2941  1.4051  1.0670
11042TIP3    H254618   4.040   1.637  13.953 -0.9907 -1.0302 -0.7682
11043TIP3   OH254619   3.800   4.848  11.611 -0.5777 -0.0618  0.5810
11043TIP3    H154620   3.717   4.874  11.649 -0.4496 -1.7397  2.1698
11043TIP3    H254621   3.804   4.894  11.527 -3.9192 -1.2428 -0.3991
11044TIP3   OH254622   4.364   1.222   1.035 -0.3255 -0.5276  0.0684
11044TIP3    H154623   4.305   1.203   1.108  0.2508 -3.2815 -0.0751
11044TIP3    H254624   4.330   1.170   0.962  0.0920  0.8653 -1.1754
11045TIP3   OH254625   4.646   0.721   4.640  0.1556 -0.2970  0.5444
11045TIP3    H154626   4.630   0.627   4.645 -0.4952 -0.1879  0.5872
11045TIP3    H254627   4.569   0.761   4.679 -0.0117  0.2813 -0.3431
11046TIP3   OH254628   5.568   0.050  15.395  0.1495  0.0048 -0.2886
11046TIP3    H154629   5.495  -0.010  15.406 -2.1686  2.6444 -0.1782
11046TIP3    H254630   5.642   0.005  15.435 -1.3299 -2.8319 -0.4750
11047TIP3   OH254631   2.931   3.525  16.595 -0.0118 -0.0249  0.0852
11047TIP3    H154632   2.893   3.445  16.560  0.0304  0.4082 -1.0056
11047TIP3    H254633   3.013   3.535  16.547  1.2788 -0.6761  2.0443
11048TIP3   OH254634   5.191   0.451   4.828  0.1033  0.1032  0.1779
11048TIP3    H154635   5.177   0.483   4.918 -0.5726 -0.7595  0.3969
11048TIP3    H254636   5.176   0.357   4.834 -2.3547  0.3181 -1.2721
11049TIP3   OH254637   4.184   2.666   2.576  0.0022  0.3134 -0.0285
11049TIP3    H154638   4.228   2.621   2.503 -0.4663  0.7745 -0.5987
11049TIP3    H254639   4.256   2.696   2.631  0.3428 -0.6021  0.0480
11050TIP3   OH254640   6.646   2.691   4.100 -0.3878 -0.5749 -0.5200
11050TIP3    H154641   6.728   2.721   4.139 -0.7189 -0.1587 -0.1314
11050TIP3    H254642   6.642   2.735   4.015 -0.7546  0.3226 -0.0531
11051TIP3   OH254643   6.252   5.781  12.839  0.0818  0.3017 -0.5916
11051TIP3    H154644   6.268   5.709  12.900 -0.4206 -1.8161 -2.8300
11051TIP3    H254645   6.157   5.781  12.827 -0.1903  2.7485  0.9039
11052TIP3   OH254646   3.226   5.609   2.903 -0.4146  0.1129 -0.5505
11052TIP3    H154647   3.233   5.699   2.871  1.2365 -0.2993 -1.4104
11052TIP3    H254648   3.142   5.608   2.950 -1.1274  1.7231 -1.6741
11053TIP3   OH254649   2.786   5.150  12.029  0.0493 -0.2783  0.0633
11053TIP3    H154650   2.751   5.127  12.115  1.0981  1.2869  0.9519
11053TIP3    H254651   2.851   5.083  12.010 -0.9596 -1.2563 -0.0384
11054TIP3   OH254652   1.969   3.789   2.703  0.0863  0.1596  0.3065
11054TIP3    H154653   1.885   3.817   2.666 -0.5689 -1.5968  0.3633
11054TIP3    H254654   2.019   3.759   2.627  0.1996  0.0677  0.4181
11055TIP3   OH254655   6.807   3.199   0.068 -0.4651 -0.3537  0.5979
11055TIP3    H154656   6.895   3.192   0.031 -0.3917 -1.2389  0.9171
11055TIP3    H254657   6.795   3.117   0.117 -2.0312 -0.9539 -0.6981
11056TIP3   OH254658   6.345   4.311   0.698  0.2162  0.1349  0.0450
11056TIP3    H154659   6.270   4.349   0.744 -1.2566 -0.6231 -1.5753
11056TIP3    H254660   6.420   4.328   0.755 -1.5038 -1.0782  2.8708
11057TIP3   OH254661   2.212   4.023   0.246 -0.4439  0.8942 -0.3237
11057TIP3    H154662   2.209   3.957   0.315  1.0671  1.1139 -0.0148
11057TIP3    H254663   2.125   4.021   0.207 -0.9872  0.0018  0.8733
11058TIP3   OH254664   4.863   3.017   1.828 -0.2506 -0.3576  0.3414
11058TIP3    H154665   4.837   2.958   1.899  1.5388 -1.0439  0.4870
11058TIP3    H254666   4.856   3.104   1.865  1.4268 -0.7422  1.6924
11059TIP3   OH254667   3.134   3.417  13.976 -0.0703 -0.2697 -0.2963
11059TIP3    H154668   3.213   3.462  14.005 -0.8690  1.5429 -0.7442
11059TIP3    H254669   3.105   3.367  14.052  1.5139 -1.0191 -0.1467
11060TIP3   OH254670   2.015   3.479  12.624 -0.7064 -0.1895  0.3803
11060TIP3    H154671   2.017   3.436  12.710 -0.5839 -0.2485  0.3471
11060TIP3    H254672   1.937   3.442  12.581 -1.2178  0.4166  0.7652
11061TIP3   OH254673   3.976   5.956   4.118  0.3084 -0.0202 -0.2084
11061TIP3    H154674   4.000   6.030   4.174  0.1803  0.5393 -0.8789
11061TIP3    H254675   3.996   5.879   4.171  3.1054  0.3953 -0.5096
11062TIP3   OH254676   0.455   3.545  11.529  0.0155 -0.6597  0.3374
11062TIP3    H154677   0.551   3.551  11.528 -0.0259  0.0402  0.1616
11062TIP3    H254678   0.436   3.467  11.581  0.6638 -0.4232  0.9382
11063TIP3   OH254679   6.024   6.231   2.299 -0.0560  0.0228  0.0602
11063TIP3    H154680   6.024   6.324   2.280  2.9165  0.3210  1.0670
11063TIP3    H254681   5.990   6.225   2.389  1.6254  0.4212  0.7655
11064TIP3   OH254682   4.230   4.733   3.895 -0.4074  0.7413 -0.1971
11064TIP3    H154683   4.257   4.714   3.985 -3.4974 -1.4405  0.4502
11064TIP3    H254684   4.282   4.673   3.842 -0.8058 -0.2902  0.5308
11065TIP3   OH254685   2.392   1.134   5.613  0.3133  0.6204 -0.1275
11065TIP3    H154686   2.415   1.087   5.693  0.1487 -0.1236 -0.5060
11065TIP3    H254687   2.441   1.216   5.618  0.6972  0.3606  0.4872
11066TIP3   OH254688   2.840   0.285  13.464 -0.0257  0.4710  0.0960
11066TIP3    H154689   2.780   0.346  13.422 -0.5582 -0.3092 -0.2932
11066TIP3    H254690   2.857   0.219  13.398  2.4615  1.4328 -0.3449
11067TIP3   OH254691   5.321   5.237   0.909 -0.0703  0.4149 -0.5906
11067TIP3    H154692   5.269   5.314   0.931  0.7266  0.9624 -0.5766
11067TIP3    H254693   5.378   5.224   0.984 -1.1035 -1.0137  0.0011
11068TIP3   OH254694   6.479   1.146  15.677  0.7942  0.2018  0.1892
11068TIP3    H154695   6.572   1.125  15.679  0.7454  0.0314  0.8000
11068TIP3    H254696   6.446   1.120  15.763  0.3073  0.8314  0.2022
11069TIP3   OH254697   0.091   5.603  12.766  0.0421  0.7563  0.2418
11069TIP3    H154698   0.112   5.548  12.690 -0.9139  0.4304  0.2042
11069TIP3    H254699   0.144   5.566  12.837  2.2500  2.0954 -0.6044
11070TIP3   OH254700   2.692   6.563  14.097  0.3837 -0.4287 -0.8445
11070TIP3    H154701   2.651   6.477  14.102  0.4998 -0.4669 -0.5283
11070TIP3    H254702   2.784   6.544  14.074  0.3035 -0.3626 -1.2257
11071TIP3   OH254703   3.488   5.427  16.255 -0.1508 -0.0063  0.3219
11071TIP3    H154704   3.574   5.464  16.275 -0.4480  1.2329 -0.5643
11071TIP3    H254705   3.447   5.415  16.341  0.1747  1.2422  0.6798
11072TIP3   OH254706   4.844   1.730  15.346  0.4341  0.3042  0.0948
11072TIP3    H154707   4.928   1.691  15.371 -0.5528 -2.3466 -0.3857
11072TIP3    H254708   4.860   1.769  15.260  1.2688  0.2380  0.2119
11073TIP3   OH254709   3.218   4.633  11.123 -0.5307  0.6334  0.4828
11073TIP3    H154710   3.207   4.557  11.066 -2.4591  0.5405  0.9196
11073TIP3    H254711   3.312   4.647  11.126 -0.2938 -0.0790 -1.7720
11074TIP3   OH254712   2.393   5.406  13.948 -0.7110  0.5277 -0.2215
11074TIP3    H154713   2.347   5.477  13.902 -1.2199  0.8664  0.7884
11074TIP3    H254714   2.411   5.442  14.035 -1.1600 -0.6596  0.3803
11075TIP3   OH254715   3.297   3.443  10.712  0.4936 -0.3135 -0.2556
11075TIP3    H154716   3.325   3.356  10.740  0.6190 -0.1026  0.3026
11075TIP3    H254717   3.375   3.481  10.671  0.2253 -0.7319 -1.1650
11076TIP3   OH254718   5.827   3.462   1.056  0.2603  0.4798 -0.1072
11076TIP3    H154719   5.749   3.492   1.102  0.7861 -0.0708  1.2029
11076TIP3    H254720   5.898   3.514   1.092  0.9517 -1.1834  1.0885
11077TIP3   OH254721   0.943   0.350   4.815  0.0470  0.7878  0.0933
11077TIP3    H154722   0.955   0.443   4.833 -0.3280  0.6490  1.1170
11077TIP3    H254723   0.973   0.306   4.895  0.7158 -0.0083 -0.5663
11078TIP3   OH254724   2.910   2.207  10.684  0.1803  0.1204 -0.4292
11078TIP3    H154725   2.989   2.174  10.725 -1.1095 -1.3440  1.0218
11078TIP3    H254726   2.928   2.300  10.667  2.5763 -0.4360 -1.2199
11079TIP3   OH254727   1.059   6.466   1.113  0.3299 -0.2980 -0.0976
11079TIP3    H154728   1.084   6.441   1.202 -0.7139 -0.7959  0.0667
11079TIP3    H254729   0.965   6.482   1.117  0.2411 -0.4633 -1.1468
11080TIP3   OH254730   5.583   4.866   0.840  0.2172 -0.7175  0.1420
11080TIP3    H154731   5.507   4.842   0.892 -0.0659  1.9585  1.1073
11080TIP3    H254732   5.624   4.938   0.888  0.1624  1.6638 -3.0320
11081TIP3   OH254733   6.556   4.916   5.072 -0.6761  0.1185  0.0535
11081TIP3    H154734   6.632   4.882   5.119 -1.9617 -1.8191  0.8427
11081TIP3    H254735   6.590   4.940   4.985  0.6134 -1.9021 -0.0579
11082TIP3   OH254736   0.823   3.839   2.760  0.0678  0.2714 -0.2533
11082TIP3    H154737   0.765   3.903   2.802  1.6344  1.6784 -0.1203
11082TIP3    H254738   0.910   3.863   2.791  0.8745 -0.9325 -1.5075
11083TIP3   OH254739   2.868   2.999   5.649  0.5760  0.8030 -0.0818
11083TIP3    H154740   2.934   3.033   5.709 -0.7144  0.9846  1.3045
11083TIP3    H254741   2.794   3.059   5.660 -0.3494 -0.2478 -0.4799
11084TIP3   OH254742   3.085   6.634  12.959 -0.0444 -0.3483  0.2166
11084TIP3    H154743   3.140   6.713  12.956 -3.2356  2.0534 -0.7682
11084TIP3    H254744   3.081   6.605  12.868 -1.1005  0.0849  0.1112
11085TIP3   OH254745   0.988   5.618   3.823  0.2527  0.2053  0.1287
11085TIP3    H154746   0.900   5.646   3.799 -0.1005 -0.1531  0.9434
11085TIP3    H254747   0.986   5.612   3.919  0.8801 -0.7254  0.1024
11086TIP3   OH254748   1.796   6.368   3.852 -0.7142  0.0015  0.0974
11086TIP3    H154749   1.758   6.451   3.821 -1.1546 -0.1134  0.3216
11086TIP3    H254750   1.879   6.360   3.804 -0.0313  1.2067  1.0194
11087TIP3   OH254751   5.697   0.366   3.524  0.1904 -0.2372 -0.1995
11087TIP3    H154752   5.614   0.370   3.476 -0.1199 -0.7376  0.2790
11087TIP3    H254753   5.674   0.395   3.612  0.4724 -0.6249  0.0013
11088TIP3   OH254754   4.579   4.651   3.448 -0.4939 -0.1445 -0.4486
11088TIP3    H154755   4.577   4.746   3.461  0.2348 -0.3037  1.1235
11088TIP3    H254756   4.668   4.633   3.418 -0.0533 -0.4765  0.9625
11089TIP3   OH254757   2.911   2.253   4.046 -0.9407 -0.2414 -0.0522
11089TIP3    H154758   2.885   2.288   3.961  0.0759 -1.8222 -1.0921
11089TIP3    H254759   2.861   2.172   4.055  1.4772 -1.9711 -0.8928
11090TIP3   OH254760   0.153   2.982   3.690 -0.2469  0.0343 -0.6295
11090TIP3    H154761   0.185   3.069   3.667 -1.0040  0.4876 -0.0267
11090TIP3    H254762   0.067   2.977   3.648 -0.0470 -0.5751 -0.9736
11091TIP3   OH254763   0.544   0.689   0.909 -0.2899  0.1210 -0.0338
11091TIP3    H154764   0.621   0.697   0.852 -0.6245  0.4654 -0.4432
11091TIP3    H254765   0.568   0.736   0.989  0.0408 -0.0406 -0.0358
11092TIP3   OH254766   6.605   3.489   5.983  0.2053 -0.2599 -0.4148
11092TIP3    H154767   6.645   3.565   5.939  0.4610  0.1240  0.4639
11092TIP3    H254768   6.572   3.524   6.066 -2.1337 -0.5364 -1.1710
11093TIP3   OH254769   5.325   3.700   4.465 -0.5321  0.0144 -0.5537
11093TIP3    H154770   5.282   3.648   4.397 -1.7012  0.7259 -0.3868
11093TIP3    H254771   5.274   3.781   4.470  0.2700  0.4907  0.3267
11094TIP3   OH254772   0.630   6.337   1.485 -0.1512  0.2544 -0.2176
11094TIP3    H154773   0.709   6.313   1.436  0.8449  1.0431  0.9306
11094TIP3    H254774   0.646   6.427   1.514 -1.0839  0.1236  0.7974
11095TIP3   OH254775   6.684   1.270   3.815  0.2543 -0.0526  0.3673
11095TIP3    H154776   6.610   1.282   3.875  0.8786  1.1771  0.9333
11095TIP3    H254777   6.757   1.314   3.858  1.5606 -1.9358  0.2050
11096TIP3   OH254778   4.441   5.915  15.528 -0.6799 -0.4811  0.0768
11096TIP3    H154779   4.480   5.832  15.557  0.3730 -0.2047 -0.5132
11096TIP3    H254780   4.399   5.950  15.607  0.1780 -0.8430  0.7116
11097TIP3   OH254781   3.641   4.503   4.349 -0.0863  0.6726 -0.2159
11097TIP3    H154782   3.603   4.565   4.411  0.5902 -0.3252  1.2449
11097TIP3    H254783   3.696   4.556   4.293  1.7234  1.2703  1.9819
11098TIP3   OH254784   4.538   0.691   0.437 -0.0827 -0.9478  0.0778
11098TIP3    H154785   4.474   0.754   0.470 -1.2698 -2.2563  0.3248
11098TIP3    H254786   4.515   0.608   0.478  2.1904 -1.3443  0.6978
11099TIP3   OH254787   0.451   4.026  11.939 -0.6945  0.1668  0.7333
11099TIP3    H154788   0.471   4.023  12.033  0.7363  2.4384  0.5775
11099TIP3    H254789   0.366   4.070  11.934 -0.6496  0.2840  0.9704
11100TIP3   OH254790   3.186   3.966  13.693 -0.4206  0.1729 -0.1136
11100TIP3    H154791   3.180   4.051  13.649  3.5833  0.6372 -0.1252
11100TIP3    H254792   3.204   3.988  13.785 -0.6340 -0.7100  0.1497
11101TIP3   OH254793   5.962   6.563  13.559 -0.1815 -0.3658  0.0414
11101TIP3    H154794   6.047   6.525  13.582  0.4980 -0.4395 -2.2939
11101TIP3    H254795   5.899   6.514  13.612  1.2457  0.4535  2.6785
11102TIP3   OH254796   2.223   1.433  13.788  0.3596 -0.1809  0.0342
11102TIP3    H154797   2.223   1.529  13.785  0.2743 -0.1948 -0.3858
11102TIP3    H254798   2.292   1.411  13.851  1.0202  0.1343 -0.5676
11103TIP3   OH254799   2.900   0.597  10.194 -0.0985  0.0057  0.2130
11103TIP3    H154800   2.969   0.561  10.138 -0.1499  0.1757  0.0391
11103TIP3    H254801   2.905   0.545  10.274  1.1085  0.8943  0.7362
11104TIP3   OH254802   0.095   2.892  13.953 -0.1135 -0.2752  0.4442
11104TIP3    H154803   0.080   2.828  13.884  0.6406  0.7238 -0.6946
11104TIP3    H254804   0.043   2.968  13.927  1.3260  0.6535  0.1527
11105TIP3   OH254805   3.540   5.212  13.826 -0.2077  0.3172 -0.0749
11105TIP3    H154806   3.599   5.271  13.780 -1.7381  1.2182 -0.9852
11105TIP3    H254807   3.464   5.205  13.768 -0.4029 -1.9639  0.3622
11106TIP3   OH254808   4.134   0.423   0.870  0.2178  0.3845  0.3569
11106TIP3    H154809   4.097   0.427   0.781 -0.9771 -0.5909  0.7789
11106TIP3    H254810   4.178   0.338   0.873  0.1621  0.3688  0.7221
11107TIP3   OH254811   6.736   5.186  15.295 -0.0106 -0.1353 -0.3510
11107TIP3    H154812   6.661   5.157  15.348 -0.5580  0.0179 -1.0279
11107TIP3    H254813   6.812   5.167  15.350 -0.5355 -0.3650  0.3216
11108TIP3   OH254814   2.158   3.435  13.737  0.4889  0.5410 -0.5320
11108TIP3    H154815   2.094   3.491  13.781  1.1085  0.6915  0.1946
11108TIP3    H254816   2.237   3.443  13.790  0.1608 -2.2904  0.5766
11109TIP3   OH254817   4.994   3.044  15.786 -0.0906 -0.1177 -0.3375
11109TIP3    H154818   4.922   3.044  15.724  0.4723  1.0866 -1.0234
11109TIP3    H254819   4.991   3.131  15.826 -0.9302 -1.1107  1.9423
11110TIP3   OH254820   4.353   3.915   3.334  0.3280  0.0368 -0.3255
11110TIP3    H154821   4.370   3.836   3.282  0.7311 -0.1695  0.1143
11110TIP3    H254822   4.439   3.944   3.364  0.0794 -0.0251  0.4783
11111TIP3   OH254823   1.722   3.652   5.949 -0.5607 -0.0465  0.1842
11111TIP3    H154824   1.793   3.713   5.929 -0.0506 -0.8544 -0.5237
11111TIP3    H254825   1.647   3.685   5.899  0.0188 -0.6212 -1.1047
11112TIP3   OH254826   4.542   6.404   0.203  0.0924  0.5705 -0.5442
11112TIP3    H154827   4.608   6.473   0.207  0.3318  0.3200 -0.0999
11112TIP3    H254828   4.465   6.447   0.165 -0.2679  1.4821  1.1380
11113TIP3   OH254829   4.599   4.696  15.752  0.1058 -0.7359  0.4988
11113TIP3    H154830   4.510   4.662  15.765  0.0611 -0.7654  0.1107
11113TIP3    H254831   4.591   4.789  15.773 -0.1339 -0.6311 -0.0304
11114TIP3   OH254832   1.480   5.578  14.180  1.1360 -0.0970  0.8451
11114TIP3    H154833   1.425   5.552  14.255  1.3801 -0.8574  0.7698
11114TIP3    H254834   1.521   5.496  14.152  0.5941  0.0711 -0.4947
11115TIP3   OH254835   1.876   5.038   3.502  0.3307 -0.4547 -0.4472
11115TIP3    H154836   1.878   4.983   3.424 -0.3233  0.6177 -1.2566
11115TIP3    H254837   1.933   5.113   3.480 -0.6715  0.3665 -0.3180
11116TIP3   OH254838   0.212   0.577  14.099  0.1245 -0.3722 -0.3643
11116TIP3    H154839   0.204   0.626  14.181 -0.0565  0.4937 -0.8841
11116TIP3    H254840   0.306   0.563  14.088  0.0516 -1.9451  0.8165
11117TIP3   OH254841   1.035   0.805  14.308 -0.2124  0.4572  0.6405
11117TIP3    H154842   1.010   0.883  14.358  0.0352  0.3816  0.8886
11117TIP3    H254843   0.956   0.780  14.261  0.1474  1.8695 -0.8146
11118TIP3   OH254844   4.628   0.971   4.144 -0.2084  0.1695  0.0596
11118TIP3    H154845   4.683   0.892   4.144 -0.0646  0.2689  0.0303
11118TIP3    H254846   4.660   1.022   4.218 -0.8595 -0.1805  0.5975
11119TIP3   OH254847   6.493   6.403  16.272 -0.0159 -0.4154 -0.0423
11119TIP3    H154848   6.550   6.331  16.244  0.6043 -0.1172  0.4222
11119TIP3    H254849   6.546   6.482  16.260 -1.0816  0.1011 -1.6172
11120TIP3   OH254850   5.204   0.280   0.891  0.0388 -0.1146 -0.2424
11120TIP3    H154851   5.203   0.245   0.980 -2.5563 -0.7066 -0.4489
11120TIP3    H254852   5.128   0.338   0.887  0.6697  0.6601 -1.8243
11121TIP3   OH254853   0.321   4.421  11.777 -0.0034  0.9185 -0.1246
11121TIP3    H154854   0.275   4.469  11.708 -0.0279  1.1611  0.0593
11121TIP3    H254855   0.412   4.418  11.747 -0.2997 -0.3650 -0.9318
11122TIP3   OH254856   4.094   3.843  12.288  0.7682 -0.1572  0.1431
11122TIP3    H154857   4.120   3.770  12.231  0.7008 -0.9253  1.0734
11122TIP3    H254858   3.999   3.838  12.290  0.7576  0.0481  0.0895
11123TIP3   OH254859   2.722   0.750   2.647 -0.0696  0.0876  0.4968
11123TIP3    H154860   2.669   0.670   2.643  0.3109 -0.1514  0.1576
11123TIP3    H254861   2.759   0.758   2.560  2.2712 -0.9972  1.3116
11124TIP3   OH254862   4.115   0.555   0.410  0.0271 -0.1081  0.4152
11124TIP3    H154863   4.101   0.601   0.328 -0.5023 -0.0310  0.5485
11124TIP3    H254864   4.155   0.472   0.385 -2.7805 -1.3884 -0.2025
11125TIP3   OH254865   0.005   5.845  14.150  0.3007  0.5703 -0.8274
11125TIP3    H154866  -0.035   5.824  14.234  0.0869  0.5952 -0.9231
11125TIP3    H254867  -0.059   5.899  14.105  0.1927  0.1244 -1.2168
11126TIP3   OH254868   4.877   3.097  12.464 -0.2710  0.3990  0.0535
11126TIP3    H154869   4.945   3.077  12.401  2.1670  0.0673  2.5902
11126TIP3    H254870   4.795   3.069  12.422  1.3891 -1.3490 -2.2230
11127TIP3   OH254871   3.773   3.965   0.442 -0.0200  0.1508  0.3526
11127TIP3    H154872   3.678   3.970   0.448  0.0205  0.8077  0.5168
11127TIP3    H254873   3.803   4.055   0.451  0.6877 -0.1731  1.5401
11128TIP3   OH254874   6.599   3.931   0.713  0.8291  0.1824  0.0750
11128TIP3    H154875   6.612   3.849   0.666  2.5091  0.2472  0.3698
11128TIP3    H254876   6.516   3.919   0.760  1.6541 -1.8524  1.1188
11129TIP3   OH254877   5.969   4.891   5.883  0.0022 -0.3637  0.2587
11129TIP3    H154878   5.886   4.906   5.839  0.3698 -1.3521 -0.8249
11129TIP3    H254879   5.946   4.880   5.975 -1.1362 -1.0592 -0.0866
11130TIP3   OH254880   3.051   2.509  13.511  0.2452 -0.0239  0.2486
11130TIP3    H154881   3.140   2.482  13.535 -0.0473 -0.1573  1.2289
11130TIP3    H254882   3.019   2.439  13.454  0.8093  0.0923 -0.2300
11131TIP3   OH254883   6.318   1.402  14.200 -0.0379  0.3813 -0.0362
11131TIP3    H154884   6.397   1.351  14.216 -0.3951 -0.9821 -2.2040
11131TIP3    H254885   6.247   1.351  14.239 -0.3117 -0.4916 -1.6146
11132TIP3   OH254886   5.181   6.563   4.106  0.5327  0.1580  0.3060
11132TIP3    H154887   5.118   6.612   4.052 -2.0877 -2.6284  0.5646
11132TIP3    H254888   5.249   6.535   4.044 -0.2282  0.4939 -0.7077
11133TIP3   OH254889   5.086   4.078   1.335 -0.0304  0.2416  0.0879
11133TIP3    H154890   5.104   4.000   1.387  0.8317 -0.0614 -0.6511
11133TIP3    H254891   5.133   4.149   1.379  1.3883 -0.1674 -0.6999
11134TIP3   OH254892   0.695   5.588   3.964  0.7294 -0.4178 -0.2859
11134TIP3    H154893   0.659   5.638   4.036 -0.7175  1.6023 -2.2822
11134TIP3    H254894   0.643   5.508   3.961 -0.9405  0.6362 -0.6042
11135TIP3   OH254895   6.850   6.467  11.035 -0.3065  0.6404  0.2775
11135TIP3    H154896   6.848   6.406  10.962 -0.4625  0.9853 -0.0081
11135TIP3    H254897   6.850   6.553  10.995  0.2688  0.8270  0.6753
11136TIP3   OH254898   4.733   1.625   2.962  0.4624 -0.1651  0.3557
11136TIP3    H154899   4.669   1.680   3.007 -3.1225 -2.0065 -2.0202
11136TIP3    H254900   4.706   1.535   2.983  2.0942 -1.0302 -1.0326
11137TIP3   OH254901   1.938   2.401  13.869  0.1479  0.6601 -0.5287
11137TIP3    H154902   1.994   2.450  13.931 -2.3574  2.4691  0.4659
11137TIP3    H254903   1.888   2.468  13.823 -1.4131 -0.8740 -1.1922
11138TIP3   OH254904   0.115   1.163  11.560  0.5835  0.3230  0.0930
11138TIP3    H154905   0.201   1.198  11.584  1.2411  0.0438 -1.7273
11138TIP3    H254906   0.067   1.237  11.525  1.1798 -0.0954 -1.6813
11139TIP3   OH254907   5.464   4.553   4.943  0.6843 -0.7516 -0.2941
11139TIP3    H154908   5.465   4.613   5.017  1.1289  1.7754 -2.2031
11139TIP3    H254909   5.372   4.546   4.918  0.2911 -3.0322  1.4456
11140TIP3   OH254910   5.172   1.955  16.724 -0.2001  0.5066 -0.5854
11140TIP3    H154911   5.095   1.906  16.752  0.0600  0.5931  0.3211
11140TIP3    H254912   5.171   1.949  16.629 -1.2416  0.3894 -0.5777
11141TIP3   OH254913   2.212   1.079  13.829 -0.4223 -0.0722  0.3477
11141TIP3    H154914   2.276   1.008  13.824 -1.2337 -0.7736 -0.4526
11141TIP3    H254915   2.208   1.101  13.922 -0.3549 -1.2652  0.6460
11142TIP3   OH254916   0.984   2.284   0.920  0.3936  0.5389  0.4961
11142TIP3    H154917   0.966   2.254   0.831  2.5458  1.1679 -0.2208
11142TIP3    H254918   1.062   2.235   0.947 -1.3894 -1.2236  2.9391
11143TIP3   OH254919   6.352   2.866   2.675 -0.4607  0.1243 -1.0889
11143TIP3    H154920   6.435   2.913   2.686 -1.8084  2.4761 -0.0893
11143TIP3    H254921   6.367   2.781   2.718  1.4167  0.4715 -0.9558
11144TIP3   OH254922   4.217   1.167  11.128  0.0660  0.4088  0.1111
11144TIP3    H154923   4.123   1.151  11.134 -0.1781  1.8871  0.6363
11144TIP3    H254924   4.238   1.221  11.204  1.2634  0.4686 -0.2286
11145TIP3   OH254925   3.150   1.919   0.033 -0.1383 -0.3503  0.0100
11145TIP3    H154926   3.141   2.012   0.010  0.9784  0.3989  2.3601
11145TIP3    H254927   3.069   1.879   0.001 -0.7081  1.4455 -0.9334
11146TIP3   OH254928   5.240   0.572   2.621  0.1733 -0.1493 -0.4807
11146TIP3    H154929   5.266   0.521   2.545 -0.9445  0.6705 -1.4463
11146TIP3    H254930   5.245   0.663   2.592 -2.8543  0.1120 -0.4935
11147TIP3   OH254931   1.736   4.870  12.905  0.3583 -0.0793  0.0840
11147TIP3    H154932   1.660   4.905  12.950 -0.3529 -0.3752 -0.8361
11147TIP3    H254933   1.699   4.820  12.832  1.3910 -1.2540  0.3305
11148TIP3   OH254934   3.436   5.631   3.699 -0.0692  0.4438 -0.0266
11148TIP3    H154935   3.365   5.638   3.635 -0.8673  1.3628  0.9131
11148TIP3    H254936   3.508   5.680   3.659 -1.0248  2.2531  0.3354
11149TIP3   OH254937   3.144   5.045   2.429  0.0519 -0.0612 -0.7202
11149TIP3    H154938   3.136   5.059   2.524  0.2820  2.0926 -0.9601
11149TIP3    H254939   3.214   4.981   2.420  0.6925  0.4051  0.5628
11150TIP3   OH254940   6.256   3.324   3.834  0.3652  0.0319  0.4164
11150TIP3    H154941   6.289   3.404   3.875  0.1970 -0.9225  2.5812
11150TIP3    H254942   6.213   3.277   3.906 -1.5761 -0.9509 -1.2667
11151TIP3   OH254943   4.206   0.795   3.107  0.2622 -0.2271 -0.1582
11151TIP3    H154944   4.207   0.877   3.057  1.3479  0.5256  1.0546
11151TIP3    H254945   4.113   0.780   3.125  0.0472  0.7843 -0.3362
11152TIP3   OH254946   2.035   4.128   5.486  0.0604 -0.3458  0.4001
11152TIP3    H154947   1.995   4.199   5.437  1.4351 -0.7303 -1.3551
11152TIP3    H254948   2.095   4.172   5.547  1.0360  0.0278 -0.7978
11153TIP3   OH254949   0.510   6.675  14.705 -0.0098  0.1484  0.4364
11153TIP3    H154950   0.531   6.716  14.622 -2.7515 -0.7951 -0.8584
11153TIP3    H254951   0.580   6.702  14.764  0.7369  2.8797 -1.5049
11154TIP3   OH254952   2.942   6.713  15.720 -0.5416 -0.1092 -0.6761
11154TIP3    H154953   2.888   6.749  15.649  0.4257  1.6360 -0.5761
11154TIP3    H254954   2.881   6.704  15.794 -1.0952  0.0238 -1.1047
11155TIP3   OH254955   4.348   1.617   3.959 -0.3090 -0.2825 -0.0243
11155TIP3    H154956   4.262   1.625   3.999 -0.2936  0.4135 -0.1218
11155TIP3    H254957   4.341   1.665   3.877  0.6965  1.4213  0.8240
11156TIP3   OH254958   1.473   4.817   5.890  0.2895  0.3510  0.2813
11156TIP3    H154959   1.556   4.809   5.843  0.1872  1.0677 -0.0308
11156TIP3    H254960   1.494   4.869   5.968 -0.0890  1.6172 -0.4229
11157TIP3   OH254961   0.751   2.527  12.546 -0.4828  0.0849 -0.5505
11157TIP3    H154962   0.770   2.540  12.454 -0.8326 -2.1469 -1.0003
11157TIP3    H254963   0.656   2.513  12.550 -0.2190 -1.8589 -0.1778
11158TIP3   OH254964   1.042   1.639  12.385  0.6458  0.4027 -0.0940
11158TIP3    H154965   1.051   1.659  12.291  0.8455  0.8210  0.0100
11158TIP3    H254966   0.948   1.631  12.399  0.6240  0.1884 -0.3639
11159TIP3   OH254967   0.873   1.831   1.718  0.4004 -0.3918  0.2762
11159TIP3    H154968   0.936   1.850   1.648  0.3890  5.6409  1.3472
11159TIP3    H254969   0.791   1.811   1.673  1.1187  0.2818 -1.3883
11160TIP3   OH254970   6.098   0.892  14.831  0.0030  0.1474  0.4503
11160TIP3    H154971   6.180   0.916  14.875  0.1162 -1.0174  0.9177
11160TIP3    H254972   6.078   0.805  14.865 -0.1762 -0.5937 -1.4349
11161TIP3   OH254973   3.184   1.656  12.649  0.1932 -0.1546  0.0070
11161TIP3    H154974   3.092   1.654  12.677  0.5765  1.9284  1.6548
11161TIP3    H254975   3.181   1.635  12.556 -1.6396 -2.8807  0.5501
11162TIP3   OH254976   3.406   3.453   3.649 -0.7895  0.4845 -0.5357
11162TIP3    H154977   3.363   3.537   3.667 -0.8195 -0.1475  3.2983
11162TIP3    H254978   3.383   3.398   3.724  0.6932 -2.3924 -2.0204
11163TIP3   OH254979   3.705   6.515   5.545 -0.1070 -0.6512 -0.0559
11163TIP3    H154980   3.648   6.440   5.563 -2.1481  1.0479  0.9861
11163TIP3    H254981   3.734   6.545   5.631  0.1958  0.1407 -0.4203
11164TIP3   OH254982   5.607   4.696   2.649  0.3643  0.6406 -0.0571
11164TIP3    H154983   5.632   4.776   2.603 -1.9614  0.1790 -2.3800
11164TIP3    H254984   5.675   4.633   2.625  1.2755  1.4331  0.3759
11165TIP3   OH254985   3.378   3.164   5.318  0.1574  0.3949  0.1948
11165TIP3    H154986   3.295   3.178   5.274 -0.8024 -3.3565  0.4702
11165TIP3    H254987   3.442   3.151   5.248  0.4821  2.7632 -0.0109
11166TIP3   OH254988   4.103   5.804   2.700  0.2922  0.1721 -0.5158
11166TIP3    H154989   4.049   5.820   2.778  0.1176  0.1127 -0.6233
11166TIP3    H254990   4.140   5.717   2.715 -1.6954 -0.9478 -1.5981
11167TIP3   OH254991   4.311   1.100  12.364  0.3831 -0.3639 -0.1047
11167TIP3    H154992   4.222   1.111  12.398  0.0670 -0.4675 -0.8900
11167TIP3    H254993   4.367   1.113  12.440 -0.3232 -0.7973  0.5094
11168TIP3   OH254994   3.286   3.413  13.458 -0.2310 -0.1215 -0.2820
11168TIP3    H154995   3.235   3.491  13.436  0.9422  0.9080  0.5333
11168TIP3    H254996   3.279   3.406  13.554  0.4104 -0.4959 -0.2536
11169TIP3   OH254997   6.081   2.413   4.680  0.3353  1.0894  0.3485
11169TIP3    H154998   6.123   2.334   4.714  0.3464  1.2013  0.5962
11169TIP3    H254999   6.051   2.388   4.592  1.4245  1.1786 -0.0662
11170TIP3   OH255000   3.816   1.144  15.163  0.3836  0.5529 -0.3590
11170TIP3    H155001   3.890   1.108  15.115  1.1477  0.7966  0.5900
11170TIP3    H255002   3.740   1.124  15.109  1.1653  0.5440 -1.4917
11171TIP3   OH255003   2.445   1.660  16.465 -0.4228  0.2493 -0.2862
11171TIP3    H155004   2.400   1.705  16.394 -1.4283  0.1609  0.2762
11171TIP3    H255005   2.466   1.574  16.429  0.6976  0.8364 -1.0641
11172TIP3   OH255006   0.012   4.179   3.041 -0.1003  0.4856 -0.6351
11172TIP3    H155007  -0.061   4.124   3.068 -0.8363  1.1222 -1.3140
11172TIP3    H255008   0.086   4.146   3.093 -0.9217  0.0490  0.3010
11173TIP3   OH255009   3.050   0.104  14.231 -0.0733  0.2464  0.2886
11173TIP3    H155010   3.065   0.059  14.148  0.4372  0.9099  0.0176
11173TIP3    H255011   2.980   0.053  14.273  0.1202 -0.4807 -0.2441
11174TIP3   OH255012   0.222   1.372   1.472 -0.2663 -0.1179  0.2356
11174TIP3    H155013   0.280   1.428   1.420  0.6086 -2.0460 -1.0250
11174TIP3    H255014   0.272   1.352   1.551 -0.7326  1.1345  0.8607
11175TIP3   OH255015   6.405   2.327   0.542  0.1878 -0.0482  0.0615
11175TIP3    H155016   6.383   2.293   0.628 -1.5290 -0.4754 -0.5014
11175TIP3    H255017   6.335   2.389   0.522  0.4530 -0.0988 -1.1121
11176TIP3   OH255018   4.168   0.976   6.574  0.4371  0.4721  0.3134
11176TIP3    H155019   4.104   1.038   6.611 -1.0092 -1.0754  0.5158
11176TIP3    H255020   4.224   1.030   6.519 -0.7228  1.9889  0.5472
11177TIP3   OH255021   0.773   1.398  11.292  0.1075 -0.1503  1.4691
11177TIP3    H155022   0.798   1.364  11.207  0.6402  0.6090  1.3110
11177TIP3    H255023   0.855   1.404  11.341  0.1759  1.6228  1.2158
11178TIP3   OH255024   2.914   4.145   5.572  0.4783  0.3743 -0.4444
11178TIP3    H155025   2.979   4.112   5.633  1.0627 -2.4796 -2.4163
11178TIP3    H255026   2.937   4.237   5.560  3.6833 -0.3079 -0.4339
11179TIP3   OH255027   2.176   6.206   4.046 -0.5828  0.2755  0.2301
11179TIP3    H155028   2.170   6.214   4.141  0.3341  2.3019  0.1804
11179TIP3    H255029   2.269   6.189   4.029 -0.5294  1.0555 -0.3332
11180TIP3   OH255030   4.121   3.471   1.733 -0.4910  0.1780 -0.2255
11180TIP3    H155031   4.181   3.403   1.703 -0.6102  0.5320 -1.3485
11180TIP3    H255032   4.141   3.546   1.676  0.9218  1.7468  2.1329
11181TIP3   OH255033   3.682   4.760  16.453 -0.4928 -0.2675 -0.1415
11181TIP3    H155034   3.680   4.729  16.363  1.7358 -2.1668  0.3675
11181TIP3    H255035   3.768   4.735  16.485 -0.4478  2.1473  1.9378
11182TIP3   OH255036   0.766   4.080  15.372 -0.1037 -0.2218 -0.7213
11182TIP3    H155037   0.796   4.162  15.412  0.5666 -1.1899  0.9043
11182TIP3    H255038   0.834   4.058  15.309  0.7493 -0.5282  0.2858
11183TIP3   OH255039   2.850   2.068  12.947  0.1537  0.1029  0.2506
11183TIP3    H155040   2.943   2.072  12.927  0.1679  2.6763  0.5349
11183TIP3    H255041   2.807   2.064  12.862  0.4765 -1.2172  0.1214
11184TIP3   OH255042   4.851   0.077   4.605  0.9025  0.0044 -0.0097
11184TIP3    H155043   4.921   0.143   4.605  1.2739 -0.3805 -0.2200
11184TIP3    H255044   4.888   0.004   4.555  0.6342 -0.5075  0.5303
11185TIP3   OH255045   1.396   3.969   2.075  0.4200 -0.4979  0.2266
11185TIP3    H155046   1.431   3.879   2.075  0.5315 -0.4748 -1.2905
11185TIP3    H255047   1.308   3.960   2.038  0.5447  0.0563 -0.2042
11186TIP3   OH255048   4.063   5.829  10.526 -0.2423  0.1110 -0.0384
11186TIP3    H155049   4.098   5.845  10.439  0.5274  0.4410  0.3136
11186TIP3    H255050   3.995   5.895  10.537 -0.3821  0.0275 -0.4155
11187TIP3   OH255051   6.036   1.245  13.433  0.6837  0.2806 -0.6289
11187TIP3    H155052   6.008   1.306  13.364 -1.2995 -0.2334 -0.3314
11187TIP3    H255053   6.022   1.158  13.395  1.1129 -0.0047 -0.1506
11188TIP3   OH255054   4.145   2.656  16.993 -0.7679 -0.3140 -0.4311
11188TIP3    H155055   4.157   2.574  17.041  0.3466 -1.5636 -2.7207
11188TIP3    H255056   4.056   2.651  16.959 -0.2232 -1.3050 -1.7858
11189TIP3   OH255057   1.944   6.720  14.802  0.1096 -0.1985  0.5552
11189TIP3    H155058   2.029   6.722  14.758 -0.0495 -0.9185  0.1963
11189TIP3    H255059   1.880   6.713  14.731 -0.5232  3.3901  0.5688
11190TIP3   OH255060   0.041   2.286   5.727  0.3353  0.2069 -0.4369
11190TIP3    H155061   0.042   2.205   5.777  0.7164 -0.4066 -1.4198
11190TIP3    H255062   0.133   2.305   5.710  0.4067  2.0040  1.5765
11191TIP3   OH255063   3.421   2.506   3.584 -0.0781  0.2033 -0.1613
11191TIP3    H155064   3.337   2.489   3.542  0.2635 -0.4005 -0.6274
11191TIP3    H255065   3.411   2.592   3.624 -0.9092  0.1452 -0.2220
11192TIP3   OH255066   0.159   1.430  10.949  0.3730 -0.0872 -0.0517
11192TIP3    H155067   0.174   1.406  10.858 -1.9073 -0.4126 -0.4113
11192TIP3    H255068   0.233   1.485  10.973  1.0749 -0.0947 -2.0616
11193TIP3   OH255069   0.141   4.603  12.150 -0.5288  0.1944 -0.5640
11193TIP3    H155070   0.149   4.528  12.091 -1.3676 -2.2313  2.1768
11193TIP3    H255071   0.192   4.577  12.227 -0.8754  2.4625  0.4909
11194TIP3   OH255072   2.186   1.204  13.568 -0.3988  0.3015 -0.0433
11194TIP3    H155073   2.121   1.274  13.566  0.4212  1.1294  1.1418
11194TIP3    H255074   2.189   1.176  13.659  0.4761 -0.1233 -0.1882
11195TIP3   OH255075   6.799   1.909   5.626  0.6753 -0.1837  0.0580
11195TIP3    H155076   6.719   1.857   5.623  1.3533 -1.4081  1.7817
11195TIP3    H255077   6.869   1.849   5.599  1.1218  0.6852 -0.8078
11196TIP3   OH255078   4.407   2.326  16.034  0.1917 -0.4075  0.3693
11196TIP3    H155079   4.340   2.360  15.976  1.0906  0.1758 -0.3420
11196TIP3    H255080   4.376   2.239  16.059 -0.7785 -0.1734 -0.0075
11197TIP3   OH255081   5.541   3.788  11.326  0.1753 -0.0007 -0.9296
11197TIP3    H155082   5.480   3.825  11.262  1.0024  1.4208 -0.9501
11197TIP3    H255083   5.583   3.865  11.365 -2.5388 -0.4880  3.6937
11198TIP3   OH255084   5.388   5.393  10.483 -0.5137 -0.2933  0.1911
11198TIP3    H155085   5.361   5.433  10.400 -3.2361 -0.0994  1.1003
11198TIP3    H255086   5.404   5.301  10.460  1.4735  0.2781 -1.0223
11199TIP3   OH255087   6.054   3.596   5.764  0.0572  0.0781 -0.4240
11199TIP3    H155088   5.970   3.573   5.725 -0.0753  1.1053 -0.7675
11199TIP3    H255089   6.115   3.602   5.690  0.4224 -0.5607 -0.1884
11200TIP3   OH255090   2.268   4.851   6.267 -0.3289 -0.3203  0.0775
11200TIP3    H155091   2.207   4.900   6.322 -0.8669 -1.2072  0.2892
11200TIP3    H255092   2.354   4.889   6.286 -0.7916  0.8974 -0.1769
11201TIP3   OH255093   3.804   2.296  15.896  0.1858  0.4773  0.1494
11201TIP3    H155094   3.766   2.308  15.809  0.3188 -1.3273 -0.1829
11201TIP3    H255095   3.879   2.239  15.883 -0.6619 -1.0588  1.6132
11202TIP3   OH255096   6.633   4.325  13.383 -1.3419  0.5281  0.1056
11202TIP3    H155097   6.687   4.273  13.324 -1.5888  1.9508 -1.4578
11202TIP3    H255098   6.552   4.341  13.334 -2.7737 -0.6044  1.9547
11203TIP3   OH255099   6.280   2.107   5.395  0.9337  0.3905  0.6291
11203TIP3    H155100   6.204   2.161   5.370  0.6348 -0.3778 -0.1507
11203TIP3    H255101   6.267   2.089   5.488 -0.2628 -0.3855  0.3272
11204TIP3   OH255102   4.803   5.190   6.418 -0.3161  0.0593 -0.4008
11204TIP3    H155103   4.854   5.153   6.346 -0.2231  0.6328 -0.6351
11204TIP3    H255104   4.731   5.237   6.374 -0.5335  0.0029 -0.1040
11205TIP3   OH255105   2.438   5.765  13.309 -0.6988  0.5272 -0.7642
11205TIP3    H155106   2.393   5.716  13.377  0.5632  0.3696 -0.0158
11205TIP3    H255107   2.401   5.853  13.313 -2.2698 -0.0627 -1.4527
11206TIP3   OH255108   1.868   3.764   1.689  0.4898 -0.7682  0.3052
11206TIP3    H155109   1.898   3.710   1.616 -0.7570 -0.6271 -0.3358
11206TIP3    H255110   1.848   3.702   1.758  0.5104 -1.0105  0.0948
11207TIP3   OH255111   2.939   5.868   4.387 -0.3976 -0.2483 -0.4251
11207TIP3    H155112   2.900   5.891   4.303  1.2236  0.7475 -0.9380
11207TIP3    H255113   3.018   5.921   4.393  0.3532 -1.4423  1.0354
11208TIP3   OH255114   0.801   2.453   2.974  0.4635 -0.1201  0.3882
11208TIP3    H155115   0.763   2.394   3.040 -0.3194  1.0452  1.0036
11208TIP3    H255116   0.863   2.397   2.926  0.4250 -1.2127  1.5393
11209TIP3   OH255117   5.109   1.690  12.888 -0.1791 -1.1971  0.5480
11209TIP3    H155118   5.108   1.595  12.879 -3.4511 -1.2682  0.5681
11209TIP3    H255119   5.024   1.719  12.854  1.0742  1.8535 -0.4007
11210TIP3   OH255120   0.854   2.202  16.906  0.8108 -0.5351  0.5260
11210TIP3    H155121   0.930   2.250  16.938  2.2246 -1.6544 -0.9590
11210TIP3    H255122   0.829   2.145  16.980 -0.0210  1.3873  1.7944
11211TIP3   OH255123   1.318   6.645   2.864 -0.2792  0.0008 -0.8618
11211TIP3    H155124   1.275   6.681   2.941  0.0603 -0.6919 -0.3437
11211TIP3    H255125   1.259   6.574   2.835 -0.2138  0.0062 -1.0082
11212TIP3   OH255126   1.925   0.721   6.501  0.2430 -0.2574  0.5210
11212TIP3    H155127   1.955   0.703   6.412  0.5371 -1.7790  0.8923
11212TIP3    H255128   1.936   0.815   6.512 -0.8868  0.1514 -1.4343
11213TIP3   OH255129   2.627   4.586  15.418  0.2215  0.0449 -0.0107
11213TIP3    H155130   2.591   4.555  15.336  0.6943  0.4666 -0.3871
11213TIP3    H255131   2.608   4.680  15.418 -0.3734 -0.0689  0.6753
11214TIP3   OH255132   0.860   3.139  14.941  0.1930 -0.3750 -0.2172
11214TIP3    H155133   0.859   3.163  14.848  0.2756 -0.7490 -0.3150
11214TIP3    H255134   0.771   3.109  14.959 -0.2971  1.2662  0.2404
11215TIP3   OH255135   6.040   2.155   5.204  0.0151  0.4887  0.8631
11215TIP3    H155136   6.086   2.239   5.202 -1.3077  1.2376  0.3083
11215TIP3    H255137   5.953   2.176   5.239 -0.3239 -0.6489  0.7545
11216TIP3   OH255138   0.641   4.088  13.385  0.3916 -0.2866 -0.5809
11216TIP3    H155139   0.721   4.119  13.341  1.2921  0.5797  1.5430
11216TIP3    H255140   0.671   4.057  13.470 -1.4894 -0.4297  0.0716
11217TIP3   OH255141   4.350   0.463   4.857 -0.0436 -0.6526 -0.4335
11217TIP3    H155142   4.348   0.554   4.885 -1.9111 -0.9028  0.4192
11217TIP3    H255143   4.424   0.425   4.903  0.2980  0.2611 -0.2192
11218TIP3   OH255144   5.784   5.079   6.623 -0.0445 -0.4437 -0.4310
11218TIP3    H155145   5.723   5.014   6.659 -2.5293  1.8153 -0.2407
11218TIP3    H255146   5.798   5.141   6.695  1.2101 -0.0149 -1.0113
11219TIP3   OH255147   0.193   2.469   0.582  0.0452  0.2835  0.4937
11219TIP3    H155148   0.176   2.551   0.628 -0.1665  0.7536 -0.3981
11219TIP3    H255149   0.289   2.466   0.575  0.0245  0.9162 -0.2578
11220TIP3   OH255150   2.319   2.635   0.845  0.0933  0.1043 -0.8465
11220TIP3    H155151   2.371   2.613   0.922 -2.4157 -1.2701  0.6040
11220TIP3    H255152   2.302   2.729   0.854  2.0779  0.5420 -1.2702
11221TIP3   OH255153   0.566   5.822  16.365 -0.4547 -0.0922 -0.8311
11221TIP3    H155154   0.538   5.914  16.370  2.5783  0.9090 -0.5092
11221TIP3    H255155   0.504   5.776  16.421 -0.9678  2.0759  0.5270
11222TIP3   OH255156   1.961   2.095  13.847 -0.7333 -0.1715  0.2385
11222TIP3    H155157   1.895   2.156  13.879 -0.9637 -0.1070 -0.3410
11222TIP3    H255158   2.015   2.075  13.924 -2.2584 -1.3146  1.0645
11223TIP3   OH255159   2.493   1.729   3.067 -0.4316 -0.2331 -0.5827
11223TIP3    H155160   2.518   1.637   3.081  0.6645 -0.1466 -1.8267
11223TIP3    H255161   2.547   1.758   2.994 -1.2903  1.2064 -0.6852
11224TIP3   OH255162   2.384   0.429  15.383 -0.1634  0.9152  0.3617
11224TIP3    H155163   2.310   0.368  15.391 -1.3304  2.3712  1.3810
11224TIP3    H255164   2.368   0.474  15.300 -0.2383  0.9781  0.4094
11225TIP3   OH255165   0.774   4.763  13.052 -0.2276 -0.3043  0.8430
11225TIP3    H155166   0.781   4.669  13.070  1.4083  0.1231  2.7832
11225TIP3    H255167   0.799   4.772  12.960 -0.6449 -1.7780  0.5624
11226TIP3   OH255168   2.157   4.969   5.562 -0.1345 -0.2683 -0.4203
11226TIP3    H155169   2.151   5.045   5.504 -0.6325 -0.0109 -0.0323
11226TIP3    H255170   2.246   4.974   5.598  0.3261 -0.6535 -1.4533
11227TIP3   OH255171   0.682   1.773  12.952 -0.0477  0.1101  0.1857
11227TIP3    H155172   0.656   1.841  13.014  0.2467  1.1188 -0.7609
11227TIP3    H255173   0.768   1.800  12.921 -0.7693  0.4565 -1.7151
11228TIP3   OH255174   3.706   4.019  13.645 -0.3108  0.0439  0.4789
11228TIP3    H155175   3.681   3.930  13.671  1.7331 -0.4553  0.9425
11228TIP3    H255176   3.627   4.055  13.605 -0.8874 -2.3815 -0.7929
11229TIP3   OH255177   4.106   3.748  16.640  0.1832 -0.2310  0.4984
11229TIP3    H155178   4.056   3.669  16.622  2.5139 -1.7482  0.3511
11229TIP3    H255179   4.194   3.717  16.662  1.6776  2.3594 -1.2966
11230TIP3   OH255180   0.432   2.064  13.302 -0.2379  0.1949  0.6922
11230TIP3    H155181   0.344   2.036  13.330 -0.0284  1.0383  2.3804
11230TIP3    H255182   0.426   2.160  13.299  0.2978  0.2064 -0.4309
11231TIP3   OH255183   2.552   6.020  11.942 -0.1465 -0.6086 -0.0996
11231TIP3    H155184   2.633   6.071  11.943  0.1517 -0.9738 -2.3011
11231TIP3    H255185   2.484   6.084  11.921 -0.0677 -0.7531 -0.7931
11232TIP3   OH255186   1.981   4.585  14.596 -0.2708 -0.0778 -0.3110
11232TIP3    H155187   1.961   4.639  14.673 -1.7941 -0.5633 -0.3226
11232TIP3    H255188   1.968   4.645  14.522 -3.1079 -0.6345 -0.3982
11233TIP3   OH255189   0.554   3.047   2.822 -0.1745 -0.5421  0.4716
11233TIP3    H155190   0.464   3.077   2.805  0.7768  2.1668 -0.2513
11233TIP3    H255191   0.591   3.032   2.735  0.8644  0.9647  0.6360
11234TIP3   OH255192   3.243   1.863   1.269  0.3814 -0.1843 -0.0088
11234TIP3    H155193   3.231   1.775   1.305 -1.3628  0.7343  1.8637
11234TIP3    H255194   3.272   1.848   1.179 -0.4813 -2.6861  0.0416
11235TIP3   OH255195   5.406   4.009   4.766  0.4740 -0.3206 -0.0954
11235TIP3    H155196   5.424   4.101   4.782  0.3077 -0.3369  0.1796
11235TIP3    H255197   5.339   4.009   4.697  1.1395 -0.2524 -0.7596
11236TIP3   OH255198   0.733   2.604  12.246 -0.3463  0.3482  0.3898
11236TIP3    H155199   0.750   2.591  12.153 -0.0899  0.3659  0.4329
11236TIP3    H255200   0.645   2.569  12.260 -0.3286  0.2162  0.1694
11237TIP3   OH255201   4.971   6.142  10.370  0.0941  0.6034 -0.3553
11237TIP3    H155202   4.902   6.197  10.408 -0.3591 -0.9502  1.1938
11237TIP3    H255203   4.980   6.174  10.280 -2.4375  1.0656 -0.5241
11238TIP3   OH255204   6.554   2.025  11.922  0.0497 -0.0590 -0.6760
11238TIP3    H155205   6.505   2.062  11.995  0.4584  0.9343 -0.8979
11238TIP3    H255206   6.645   2.052  11.937  0.1186  0.2867 -1.6172
11239TIP3   OH255207   2.621   6.175  16.944  0.1535 -0.2672 -0.6012
11239TIP3    H155208   2.564   6.239  16.901 -0.1271 -0.6784 -0.8561
11239TIP3    H255209   2.571   6.145  17.020  0.5781  0.3318 -0.0825
11240TIP3   OH255210   1.345   4.217  12.148 -0.3086  0.1244  0.4832
11240TIP3    H155211   1.358   4.222  12.243  0.7816 -0.2339  0.3743
11240TIP3    H255212   1.433   4.227  12.112 -0.8237  1.1182 -0.5357
11241TIP3   OH255213   5.739   6.360   3.827 -0.2575  0.1116 -0.4089
11241TIP3    H155214   5.670   6.414   3.790 -0.1590  0.7167  0.2483
11241TIP3    H255215   5.793   6.422   3.877 -0.1392 -0.5891  0.3613
11242TIP3   OH255216   0.704   2.410   0.775 -0.1037  0.1204 -0.1545
11242TIP3    H155217   0.748   2.455   0.703 -2.9133  0.8989 -1.5149
11242TIP3    H255218   0.733   2.319   0.768  1.4913  0.6387 -0.7436
11243TIP3   OH255219   4.678   4.285  16.998  0.0073 -0.2097 -0.3554
11243TIP3    H155220   4.590   4.320  17.012 -0.4302 -0.9142 -1.1687
11243TIP3    H255221   4.664   4.191  16.986  1.1560 -0.7399  1.9643
11244TIP3   OH255222   5.061   1.197   5.868  0.8526  0.3029  0.1675
11244TIP3    H155223   5.103   1.197   5.782 -1.3838  2.7780 -1.0694
11244TIP3    H255224   4.967   1.197   5.850  0.2884 -0.1617  2.6548
11245TIP3   OH255225   2.280   2.900  12.309  0.3597 -0.1696  0.4108
11245TIP3    H155226   2.339   2.960  12.354  0.8588  0.2957 -0.8150
11245TIP3    H255227   2.210   2.957  12.276 -0.2630 -0.5747  1.0142
11246TIP3   OH255228   4.125   3.429  13.184 -0.6505  0.4019 -0.5787
11246TIP3    H155229   4.199   3.374  13.212  1.7959  1.4521 -4.2124
11246TIP3    H255230   4.056   3.367  13.162  0.0990 -0.8142  0.3392
11247TIP3   OH255231   4.673   0.121  14.984  0.6129 -0.2873 -0.1227
11247TIP3    H155232   4.740   0.054  14.969 -1.3412 -2.1104 -1.3159
11247TIP3    H255233   4.615   0.114  14.909 -0.5572  1.7092  0.5225
11248TIP3   OH255234   3.539   4.176   4.560 -0.5556 -0.0823  0.1798
11248TIP3    H155235   3.529   4.195   4.467 -0.6552 -1.9509 -0.2262
11248TIP3    H255236   3.603   4.104   4.564  0.7491  1.0692  1.6839
11249TIP3   OH255237   4.421   2.346  12.144 -0.8119  0.2180 -0.7037
11249TIP3    H155238   4.395   2.363  12.054 -0.5493 -0.3954 -0.9056
11249TIP3    H255239   4.356   2.283  12.176 -1.2775  0.9152 -0.2514
11250TIP3   OH255240   2.863   1.529   4.388  0.0354 -0.2126 -0.2457
11250TIP3    H155241   2.817   1.611   4.406  0.0412  0.0612 -1.3934
11250TIP3    H255242   2.945   1.557   4.347  0.4898 -0.7650  0.2752
11251TIP3   OH255243   0.412   1.367   5.675  0.1597  0.3863 -0.2968
11251TIP3    H155244   0.316   1.365   5.678  0.1001 -0.9069 -1.7826
11251TIP3    H255245   0.439   1.292   5.727  0.4133  1.0557  0.5663
11252TIP3   OH255246   0.808   6.718   3.047 -0.3379  0.5808 -0.1137
11252TIP3    H155247   0.812   6.624   3.063  0.2360  0.9095  1.9160
11252TIP3    H255248   0.816   6.726   2.952  0.4489 -1.3754 -0.2590
11253TIP3   OH255249   4.006   4.172   1.457 -0.0327  0.2268 -0.5240
11253TIP3    H155250   4.021   4.092   1.507 -2.0296  0.2104  0.1527
11253TIP3    H255251   4.036   4.152   1.368  0.3942 -0.9152 -0.1339
11254TIP3   OH255252   0.459   4.588  12.676 -0.1695 -0.0398 -0.2694
11254TIP3    H155253   0.441   4.679  12.696 -1.5006 -0.1912 -0.6318
11254TIP3    H255254   0.554   4.581  12.675 -0.0302  1.5454 -1.1198
11255TIP3   OH255255   2.078   4.308   4.527  0.5577  0.6724 -0.3810
11255TIP3    H155256   2.148   4.362   4.565  0.7094  0.8411 -0.8924
11255TIP3    H255257   2.065   4.344   4.439 -0.9128  1.3339  0.0777
11256TIP3   OH255258   5.956   5.928   5.434 -0.1106  0.3505 -0.1386
11256TIP3    H155259   5.901   5.849   5.430  1.1069 -0.4668 -1.5012
11256TIP3    H255260   6.045   5.895   5.428  0.4552  1.8196 -0.1306
11257TIP3   OH255261   5.040   1.411  11.814  0.2806 -0.2602 -0.2867
11257TIP3    H155262   5.102   1.474  11.850 -0.1408 -0.0995  0.1837
11257TIP3    H255263   5.028   1.347  11.884  1.4616 -1.4390 -1.1188
11258TIP3   OH255264   3.587   5.109   4.314 -0.6201  0.4975 -0.2686
11258TIP3    H155265   3.508   5.154   4.282 -1.2717 -0.2826  0.1885
11258TIP3    H255266   3.570   5.017   4.298  0.8565  0.4071 -1.5262
11259TIP3   OH255267   0.617   3.892   6.289  0.0239  0.6775  0.0718
11259TIP3    H155268   0.629   3.882   6.194  1.2715 -0.9489  0.3479
11259TIP3    H255269   0.609   3.987   6.302 -1.3333  0.8628 -1.7580
11260TIP3   OH255270   0.035   6.542   2.334  0.0745 -0.4913  0.1816
11260TIP3    H155271   0.125   6.551   2.301 -0.1365 -2.1173 -0.9169
11260TIP3    H255272  -0.020   6.556   2.257 -0.5035 -2.3763  0.2222
11261TIP3   OH255273   2.267   4.344  15.931  0.0382 -0.3073  0.1362
11261TIP3    H155274   2.344   4.333  15.986 -1.1551 -4.2125  1.3593
11261TIP3    H255275   2.301   4.349  15.842  1.7598  0.7535  0.7992
11262TIP3   OH255276   5.821   5.514   5.673 -0.1150 -0.1393 -0.2972
11262TIP3    H155277   5.830   5.429   5.629 -2.8777 -0.7761  0.1602
11262TIP3    H255278   5.853   5.578   5.608 -2.0670 -1.2201 -2.4891
11263TIP3   OH255279   2.720   0.865  12.056 -0.5570 -0.4020  0.5030
11263TIP3    H155280   2.775   0.940  12.080 -0.5759 -0.3483  0.3799
11263TIP3    H255281   2.651   0.863  12.123 -0.5726 -0.2928  0.4902
11264TIP3   OH255282   4.499   0.193  12.774 -0.1485  0.2221 -0.0399
11264TIP3    H155283   4.410   0.229  12.772 -1.8459 -3.3917  1.2839
11264TIP3    H255284   4.519   0.175  12.682 -0.9349  0.7376 -0.3281
11265TIP3   OH255285   0.987   3.828   0.544 -0.3451  0.5734  0.2664
11265TIP3    H155286   1.042   3.874   0.607  1.4850 -0.8896 -0.1650
11265TIP3    H255287   1.027   3.845   0.459  0.0150 -1.2279  0.0285
11266TIP3   OH255288   2.460   0.042  12.136 -0.4630  0.2722  0.3048
11266TIP3    H155289   2.468   0.126  12.091  1.6357  0.1610  0.3866
11266TIP3    H255290   2.501  -0.021  12.076 -0.1138 -0.3242  1.1558
11267TIP3   OH255291   0.236   1.326  14.044  0.1370  0.3888 -0.0306
11267TIP3    H155292   0.319   1.374  14.035  0.3635 -0.2596 -1.5247
11267TIP3    H255293   0.170   1.386  14.008  0.1601  0.3193 -0.1878
11268TIP3   OH255294   3.548   1.983  14.940  0.5204 -0.7899 -0.0973
11268TIP3    H155295   3.525   1.898  14.977 -1.6768  0.0456  0.6177
11268TIP3    H255296   3.617   2.016  14.998 -2.6076  0.3490  3.3862
11269TIP3   OH255297   6.577   1.618  16.674 -0.3583  0.0519 -0.2799
11269TIP3    H155298   6.559   1.531  16.711 -2.0095  0.0843 -0.9538
11269TIP3    H255299   6.622   1.665  16.745 -1.9353 -0.4415  1.1120
11270TIP3   OH255300   0.052   2.073   6.349  0.3277  0.6063 -0.3856
11270TIP3    H155301   0.077   2.084   6.441 -0.2276  1.9858 -0.3736
11270TIP3    H255302   0.125   2.110   6.300  0.0038  1.1587 -0.4555
11271TIP3   OH255303   2.795   5.564  15.609  0.8812 -0.2413  0.9391
11271TIP3    H155304   2.876   5.602  15.645  1.2447  1.0122 -1.0838
11271TIP3    H255305   2.776   5.616  15.531 -1.3953 -1.1133  0.8420
11272TIP3   OH255306   0.202   3.944  15.083  0.0756 -0.5537 -0.0023
11272TIP3    H155307   0.271   3.888  15.049  1.0436 -0.4343  1.6595
11272TIP3    H255308   0.228   3.962  15.173 -0.2476  2.4802 -0.4046
11273TIP3   OH255309   4.938   1.134  14.239 -0.3279 -0.1332  0.5603
11273TIP3    H155310   4.926   1.106  14.330  0.7160  0.1216  0.7972
11273TIP3    H255311   4.950   1.053  14.190  1.4056 -0.2105  1.0394
11274TIP3   OH255312   3.029   0.172  15.564 -0.4878 -0.0463  0.1603
11274TIP3    H155313   3.109   0.177  15.617  0.1772  0.7258 -0.8775
11274TIP3    H255314   3.054   0.208  15.479 -1.9510  0.2446 -0.1804
11275TIP3   OH255315   2.471   2.750   5.480  0.7305 -0.3913 -0.2332
11275TIP3    H155316   2.394   2.733   5.535  0.6773  0.2881 -0.0943
11275TIP3    H255317   2.500   2.837   5.506  2.3078 -1.1328  0.6271
11276TIP3   OH255318   0.273   3.052  12.646 -0.3673  0.3516  0.1879
11276TIP3    H155319   0.300   3.132  12.692  0.1697  0.8320 -0.9291
11276TIP3    H255320   0.335   3.044  12.574 -0.6977 -0.8380  0.0135
11277TIP3   OH255321   4.769   1.819  15.812  0.2773 -0.0358 -0.4257
11277TIP3    H155322   4.778   1.906  15.851  0.9096  0.4449 -1.6161
11277TIP3    H255323   4.830   1.765  15.862 -0.9120 -0.1032  1.0667
11278TIP3   OH255324   5.218   1.624   1.262  0.7066  0.3287  0.5656
11278TIP3    H155325   5.172   1.682   1.323 -1.4583 -1.7441  1.0567
11278TIP3    H255326   5.295   1.595   1.310  0.3715  0.6867  1.3393
11279TIP3   OH255327   3.459   2.680  14.358  0.2894  0.5246  1.1288
11279TIP3    H155328   3.552   2.694  14.339 -0.3509  1.9766 -1.3630
11279TIP3    H255329   3.440   2.593  14.321  0.5211  0.4955  1.0758
11280TIP3   OH255330   4.536   4.328   1.806 -0.6408  0.2392 -0.2120
11280TIP3    H155331   4.604   4.280   1.759 -1.7822  0.0438 -1.7374
11280TIP3    H255332   4.485   4.370   1.738 -0.0729  3.1961  1.0348
11281TIP3   OH255333   2.445   5.143  16.924  0.4962 -0.2723  0.1048
11281TIP3    H155334   2.464   5.158  17.017 -1.0267 -0.6204  0.4889
11281TIP3    H255335   2.530   5.154  16.881  1.3379 -0.6588  1.5921
11282TIP3   OH255336   0.743   3.656   3.764 -0.0933  0.5277  0.3029
11282TIP3    H155337   0.668   3.620   3.717  1.6399 -1.2027 -1.3361
11282TIP3    H255338   0.715   3.658   3.855 -1.1076 -3.1569  0.2328
11283TIP3   OH255339   5.906   3.631   6.678 -0.6003 -0.5673 -0.3939
11283TIP3    H155340   5.929   3.723   6.664  0.5440 -0.7441  0.2658
11283TIP3    H255341   5.982   3.582   6.646 -1.5887 -1.3543 -1.6526
11284TIP3   OH255342   4.103   2.904  13.726 -0.2348  0.1110  0.0722
11284TIP3    H155343   4.092   2.890  13.632 -0.0841  1.5793 -0.1886
11284TIP3    H255344   4.087   2.818  13.765 -1.2503 -0.3132 -1.2058
11285TIP3   OH255345   5.444   4.987   5.690  0.3612  0.2329 -0.4202
11285TIP3    H155346   5.382   4.936   5.637  0.8093 -0.5406 -0.2148
11285TIP3    H255347   5.441   4.946   5.777  0.3128  0.9144 -0.0892
11286TIP3   OH255348   0.819   3.665  14.783  0.1117 -0.1325  0.1178
11286TIP3    H155349   0.824   3.634  14.874  0.6453 -1.2575 -0.2727
11286TIP3    H255350   0.909   3.658  14.751  0.1350  1.2945 -0.1860
11287TIP3   OH255351   2.253   6.070  14.415 -0.1308 -0.0462  0.0177
11287TIP3    H155352   2.337   6.068  14.460 -0.5164 -0.3690  0.7414
11287TIP3    H255353   2.196   6.120  14.473 -0.7017 -0.6720  0.0033
11288TIP3   OH255354   0.126   2.914  14.223  0.3031 -0.1242  0.0382
11288TIP3    H155355   0.104   2.826  14.254  2.0104 -0.5401  0.1530
11288TIP3    H255356   0.134   2.905  14.128 -1.7249  0.4406 -0.2355
11289TIP3   OH255357   4.457   3.781  14.934 -0.3778  0.0178  0.3109
11289TIP3    H155358   4.389   3.741  14.881  0.4697  2.2256 -2.6866
11289TIP3    H255359   4.413   3.852  14.981 -0.4657  0.4879 -0.4615
11290TIP3   OH255360   2.850   0.735  10.560  0.4248  0.0157 -0.0077
11290TIP3    H155361   2.881   0.796  10.628  1.0428 -1.2888  0.9344
11290TIP3    H255362   2.783   0.784  10.512 -1.5483  0.3808  2.8323
11291TIP3   OH255363   3.064   6.281   4.135  0.6012  0.6119 -0.0310
11291TIP3    H155364   3.012   6.361   4.135  1.5597  1.2908  1.6670
11291TIP3    H255365   3.102   6.276   4.047  0.8335  2.2270 -0.0449
11292TIP3   OH255366   4.609   5.090  14.252  0.6662 -0.2977  0.1200
11292TIP3    H155367   4.587   5.036  14.328  1.7680 -1.8556 -0.6156
11292TIP3    H255368   4.529   5.089  14.199  0.2377 -0.0805  0.7555
11293TIP3   OH255369   5.347   2.520  13.738  0.2301  0.0452  0.1541
11293TIP3    H155370   5.365   2.583  13.668 -0.3753  0.2831  0.2056
11293TIP3    H255371   5.393   2.554  13.814 -0.6767  0.8181  0.3698
11294TIP3   OH255372   3.347   5.010  11.927  0.4275  0.4640 -0.7880
11294TIP3    H155373   3.277   4.979  11.984  1.4165 -1.3732 -0.5007
11294TIP3    H255374   3.310   5.088  11.884 -1.4105  0.1304  0.0793
11295TIP3   OH255375   3.843   5.226   0.888 -0.1147  0.3755  0.7328
11295TIP3    H155376   3.887   5.291   0.834  0.3592 -0.8229 -0.3779
11295TIP3    H255377   3.751   5.230   0.862 -0.1106  0.6969  0.7709
11296TIP3   OH255378   2.096   2.137   0.974  0.1917 -0.4024 -0.1525
11296TIP3    H155379   2.189   2.119   0.963  0.4834  1.7386 -2.0518
11296TIP3    H255380   2.053   2.088   0.904  0.0949 -0.1415 -0.2806
11297TIP3   OH255381   4.481   5.223   3.829 -0.0038  0.8424 -0.2420
11297TIP3    H155382   4.389   5.250   3.829 -0.4861 -0.6733 -0.8766
11297TIP3    H255383   4.478   5.129   3.812  1.5503  0.2914  2.0016
11298TIP3   OH255384   6.796   2.547  12.019 -0.4797  0.3248 -0.2565
11298TIP3    H155385   6.818   2.592  11.938  0.8025 -2.1160 -1.3399
11298TIP3    H255386   6.710   2.508  12.003 -0.1019 -0.3939 -0.5717
11299TIP3   OH255387   3.160   4.473   4.402  0.5360  0.1399 -0.2039
11299TIP3    H155388   3.124   4.517   4.325  0.4861  2.0298  0.8217
11299TIP3    H255389   3.084   4.447   4.453  0.5563  1.1136  0.3539
11300TIP3   OH255390   5.305   3.777  14.997  0.2864  0.0210 -0.2398
11300TIP3    H155391   5.378   3.775  14.935 -0.7309  1.8380 -1.5759
11300TIP3    H255392   5.269   3.688  14.995  0.2095  0.0608 -2.3826
11301TIP3   OH255393   1.290   2.275  13.011  0.4192 -0.3167  0.1499
11301TIP3    H155394   1.294   2.365  12.980  1.0895 -0.4175 -0.0765
11301TIP3    H255395   1.324   2.279  13.101  1.2796 -0.4778 -0.1682
11302TIP3   OH255396   1.276   1.678  11.065  0.4829  0.1986  0.0807
11302TIP3    H155397   1.327   1.597  11.062 -0.6463 -0.5589  0.6296
11302TIP3    H255398   1.268   1.699  11.158 -1.6602 -0.6900  0.1557
11303TIP3   OH255399   5.047   6.076  14.147 -0.2241  0.2862  0.3442
11303TIP3    H155400   5.135   6.046  14.168  0.1286  0.5725 -0.6788
11303TIP3    H255401   4.989   6.015  14.193  0.4666 -1.5015 -1.0692
11304TIP3   OH255402   6.880   5.498  15.504  0.5380 -0.2360  0.0993
11304TIP3    H155403   6.939   5.573  15.510  1.1519 -0.6966 -0.0918
11304TIP3    H255404   6.846   5.501  15.415 -0.6721  0.7196  0.5711
11305TIP3   OH255405   1.525   2.666  10.978 -0.1932 -0.3111  0.8382
11305TIP3    H155406   1.468   2.689  10.905 -0.7802 -0.1645  1.3361
11305TIP3    H255407   1.555   2.577  10.959 -1.2171 -0.6915  0.9587
11306TIP3   OH255408   0.196   2.703  16.059  0.5659 -0.6619  0.9073
11306TIP3    H155409   0.206   2.753  15.978 -0.4843 -1.7639  0.0425
11306TIP3    H255410   0.276   2.719  16.108  1.2025  0.0788 -0.3374
11307TIP3   OH255411   6.179   3.646  16.213  0.3178 -0.6349  0.2698
11307TIP3    H155412   6.112   3.639  16.281  0.7603  1.2587  0.9616
11307TIP3    H255413   6.141   3.603  16.137 -2.0884  1.1237  0.3708
11308TIP3   OH255414   5.555   0.677  11.806  0.1206  0.5679 -0.3396
11308TIP3    H155415   5.584   0.600  11.758  0.5269 -0.0905  0.9188
11308TIP3    H255416   5.628   0.738  11.801 -0.0913  0.7683 -1.0933
11309TIP3   OH255417   0.731   4.019  12.732 -0.7917 -0.1067  0.2963
11309TIP3    H155418   0.797   3.954  12.758  0.3386  0.8011 -0.2363
11309TIP3    H255419   0.707   3.993  12.643 -0.1446  0.3362 -0.0169
11310TIP3   OH255420   2.511   5.475  16.911 -0.0666 -0.0456 -0.3042
11310TIP3    H155421   2.477   5.499  16.825 -0.5659  0.2023 -0.0440
11310TIP3    H255422   2.433   5.453  16.963  0.2860 -0.9295 -0.1365
11311TIP3   OH255423   0.015   2.007  14.048 -0.0641 -0.2430 -0.4916
11311TIP3    H155424   0.057   1.980  13.966 -0.2764 -0.5520 -0.4988
11311TIP3    H255425  -0.069   2.045  14.020 -0.9288 -1.9127 -0.3179
11312TIP3   OH255426   3.394   1.792   3.096 -0.3674  0.5135  0.3003
11312TIP3    H155427   3.473   1.845   3.101  0.1977 -0.3430  0.7564
11312TIP3    H255428   3.356   1.813   3.011  1.1036 -0.0884 -0.5493
11313TIP3   OH255429   2.306   1.229  11.544 -0.0930  0.1158  0.2642
11313TIP3    H155430   2.240   1.213  11.612 -0.6743 -0.8743 -0.4912
11313TIP3    H255431   2.303   1.323  11.529  0.0831  0.3636  1.6294
11314TIP3   OH255432   0.195   5.675  16.511 -0.1757  0.3283 -0.2580
11314TIP3    H155433   0.181   5.588  16.548  0.2106 -1.0037 -3.0407
11314TIP3    H255434   0.270   5.710  16.560 -0.6675 -0.6427  1.2498
11315TIP3   OH255435   4.075   4.718   1.496 -0.7020 -0.3391  0.2755
11315TIP3    H155436   4.136   4.791   1.484 -0.8588 -0.1129  0.8302
11315TIP3    H255437   3.994   4.760   1.525 -0.2953 -0.8599  2.3189
11316TIP3   OH255438   4.244   4.784  11.415 -0.0676  0.5127 -0.3809
11316TIP3    H155439   4.337   4.803  11.403  0.1073 -1.2287 -2.4026
11316TIP3    H255440   4.243   4.699  11.459 -0.6937  0.3182 -0.7591
11317TIP3   OH255441   5.376   0.915  11.663 -0.1651  0.2852  0.1988
11317TIP3    H155442   5.472   0.923  11.660  0.1577 -0.5076  3.9745
11317TIP3    H255443   5.359   0.829  11.623  0.6030  0.6829 -1.0502
11318TIP3   OH255444   0.474   6.830  12.276  0.1792 -0.4643 -0.2925
11318TIP3    H155445   0.475   6.780  12.194 -0.7908 -0.9179 -0.0392
11318TIP3    H255446   0.564   6.861  12.286  0.0841  0.4876 -2.0573
11319TIP3   OH255447   6.329   2.479   4.158 -0.0551 -0.2631  0.3474
11319TIP3    H155448   6.349   2.497   4.249  0.4486 -1.2529  0.4477
11319TIP3    H255449   6.246   2.430   4.160 -0.4848  0.4500  0.2092
11320TIP3   OH255450   6.578   0.846  13.373 -0.0966  0.3778 -0.7403
11320TIP3    H155451   6.640   0.883  13.436 -1.8605  0.8655  0.7925
11320TIP3    H255452   6.579   0.752  13.390 -1.3044  0.6015  0.8036
11321TIP3   OH255453   6.335   6.062  12.838 -0.6657 -0.4656  0.1359
11321TIP3    H155454   6.292   5.979  12.856  0.0325 -0.8298  0.1810
11321TIP3    H255455   6.328   6.073  12.743  1.2370 -1.7385 -0.2074
11322TIP3   OH255456   6.483   6.155  14.845  0.0614  0.0010  0.0762
11322TIP3    H155457   6.556   6.107  14.807 -0.1624 -0.6901  0.4955
11322TIP3    H255458   6.465   6.109  14.927 -1.1886 -0.1749 -0.2758
11323TIP3   OH255459   3.718   6.612  12.785 -0.0732 -0.0130 -0.3435
11323TIP3    H155460   3.645   6.673  12.777  0.0256 -0.0301 -1.4481
11323TIP3    H255461   3.695   6.557  12.861 -2.3021 -1.4570 -1.9300
11324TIP3   OH255462   2.382   4.259   5.415  0.0024  0.0281 -0.0841
11324TIP3    H155463   2.445   4.318   5.375 -0.5774 -1.0960 -2.8651
11324TIP3    H255464   2.417   4.243   5.503  1.2214  2.8186  0.0339
11325TIP3   OH255465   2.408   0.197  10.330 -0.1488  0.1462  0.0797
11325TIP3    H155466   2.448   0.127  10.382 -1.3915  1.0014  2.3076
11325TIP3    H255467   2.365   0.151  10.258  0.2365 -1.2601  0.6992
11326TIP3   OH255468   4.284   5.744  16.219 -0.6061 -0.0325 -0.6524
11326TIP3    H155469   4.269   5.667  16.274  0.3550 -0.4246 -0.9194
11326TIP3    H255470   4.218   5.737  16.150 -0.9401 -0.2641 -0.3202
11327TIP3   OH255471   2.735   5.248  15.787  0.0463  0.3296  0.5222
11327TIP3    H155472   2.774   5.223  15.871  1.3732  0.4575 -0.0218
11327TIP3    H255473   2.791   5.205  15.722 -1.0437  0.1234 -0.2974
11328TIP3   OH255474   2.300   3.307   1.898  0.1059 -0.0814  0.2135
11328TIP3    H155475   2.275   3.374   1.962  1.8229  0.7789  0.0147
11328TIP3    H255476   2.218   3.261   1.879 -0.4833 -0.4161  3.0693
11329TIP3   OH255477   2.610   6.714   2.688  0.3330 -0.1140  0.1975
11329TIP3    H155478   2.525   6.704   2.646  0.4244  0.2234 -0.0625
11329TIP3    H255479   2.670   6.664   2.633  0.4201  0.1756  0.0342
11330TIP3   OH255480   1.862   3.839  11.500  0.2477  0.5414 -0.3710
11330TIP3    H155481   1.794   3.895  11.538  0.1187  0.2334 -0.1431
11330TIP3    H255482   1.830   3.820  11.411 -1.3645 -1.8539  0.6138
11331TIP3   OH255483   5.397   3.088   1.590  0.2146 -0.5760  0.0371
11331TIP3    H155484   5.306   3.058   1.594  0.1128 -0.6101 -1.8314
11331TIP3    H255485   5.423   3.072   1.499  1.3282  1.6650 -0.0796
11332TIP3   OH255486   2.504   2.644   4.473 -0.3631  0.0139  0.3827
11332TIP3    H155487   2.586   2.647   4.522  0.4222 -0.1782 -0.8742
11332TIP3    H255488   2.493   2.732   4.438  0.3271 -0.4236 -1.0180
11333TIP3   OH255489   6.088   2.797  14.481  0.3773 -0.1707  0.6529
11333TIP3    H155490   6.150   2.775  14.412  0.3409  1.4590  0.0390
11333TIP3    H255491   6.129   2.870  14.527 -0.7444  0.4599  0.6963
11334TIP3   OH255492   3.643   3.847  14.969 -0.3011 -0.0275  0.1131
11334TIP3    H155493   3.617   3.910  15.036  0.5405 -0.1893  0.6002
11334TIP3    H255494   3.637   3.896  14.887  1.6361  1.1422  0.5973
11335TIP3   OH255495   0.544   4.937   4.715  0.0827  0.3651 -0.4310
11335TIP3    H155496   0.509   4.922   4.628  1.1332 -1.2005 -0.6102
11335TIP3    H255497   0.638   4.949   4.702  0.4310 -1.0450  0.5752
11336TIP3   OH255498   2.362   2.417   4.994 -0.8042  0.0389 -0.0103
11336TIP3    H155499   2.327   2.488   5.048 -2.6089 -0.5495 -0.3374
11336TIP3    H255500   2.448   2.397   5.033 -1.3917  0.6616  1.6762
11337TIP3   OH255501   6.225   0.486   5.084  0.1677  0.1172  0.4102
11337TIP3    H155502   6.171   0.524   5.016  0.5513 -0.0821 -0.0079
11337TIP3    H255503   6.180   0.508   5.166  0.0028  0.8318  0.1314
11338TIP3   OH255504   4.753   0.309   0.824  0.0576 -0.1476 -0.0396
11338TIP3    H155505   4.809   0.255   0.880 -0.1439  0.0510  0.3534
11338TIP3    H255506   4.756   0.396   0.863  0.9049  0.2913 -1.0444
11339TIP3   OH255507   1.185   0.052  14.831  0.0359 -0.1215 -0.3601
11339TIP3    H155508   1.148   0.140  14.843 -0.0110 -0.1840 -0.0582
11339TIP3    H255509   1.114  -0.008  14.852  0.3390 -0.2428  0.3362
11340TIP3   OH255510   4.264   3.877  13.221 -0.0899  0.0525 -0.3151
11340TIP3    H155511   4.282   3.852  13.130 -0.1390 -0.9007 -0.0783
11340TIP3    H255512   4.177   3.918  13.217 -0.5909 -0.9870 -0.5527
11341TIP3   OH255513   0.553   6.368   5.534  0.8060 -0.7230 -0.4209
11341TIP3    H155514   0.507   6.435   5.484 -1.7130 -1.5215  0.6490
11341TIP3    H255515   0.562   6.295   5.472  0.5452 -0.5775 -0.6349
11342TIP3   OH255516   2.667   2.226   6.273  0.3836 -0.2760  0.3599
11342TIP3    H155517   2.585   2.182   6.251  0.4942  0.3270 -1.3823
11342TIP3    H255518   2.735   2.161   6.256  0.3132 -0.7283  1.6690
11343TIP3   OH255519   4.623   1.548   0.377 -0.0572  0.2524 -0.7390
11343TIP3    H155520   4.571   1.628   0.369  0.9743  0.9573 -0.6062
11343TIP3    H255521   4.704   1.567   0.331  1.2742  0.2531  1.4389
11344TIP3   OH255522   6.759   6.063  11.434 -0.4331 -0.1174 -0.2310
11344TIP3    H155523   6.807   6.023  11.507 -1.1035 -0.1215  0.2186
11344TIP3    H255524   6.760   6.157  11.454  1.7945  0.2411 -1.6711
11345TIP3   OH255525   5.384   5.649  11.477 -0.4013  0.0700  0.1494
11345TIP3    H155526   5.417   5.671  11.564  2.6337 -0.6578 -0.7041
11345TIP3    H255527   5.327   5.723  11.454 -1.8336 -0.0444  2.9393
11346TIP3   OH255528   1.660   3.295   5.965  0.1285 -0.4488 -0.4339
11346TIP3    H155529   1.745   3.339   5.963  0.7468 -1.6204 -0.5349
11346TIP3    H255530   1.604   3.354   6.016  1.2787 -0.1472  0.5248
11347TIP3   OH255531   4.127   6.557   5.322 -0.3834 -0.2752  0.2642
11347TIP3    H155532   4.159   6.469   5.339 -0.1232 -0.5337 -1.4418
11347TIP3    H255533   4.035   6.545   5.299 -0.4041 -0.0745  0.2402
11348TIP3   OH255534   3.663   2.676  15.557 -0.0528  0.3513  0.0979
11348TIP3    H155535   3.707   2.660  15.641  1.2198  1.9132 -0.2208
11348TIP3    H255536   3.577   2.712  15.581 -0.0849 -0.1208  0.7163
11349TIP3   OH255537   0.017   1.022   3.596 -0.9318 -0.2263 -0.1660
11349TIP3    H155538  -0.047   1.035   3.666  0.4695 -0.2240  1.1613
11349TIP3    H255539  -0.015   1.078   3.524 -1.6148  0.9434  0.9919
11350TIP3   OH255540   3.080   3.130  11.144  0.5082 -0.0012 -0.2391
11350TIP3    H155541   3.076   3.148  11.050 -0.3658  0.7707 -0.0750
11350TIP3    H255542   3.017   3.059  11.158  0.7007 -0.1739 -0.2498
11351TIP3   OH255543   5.042   0.970   4.283  0.3904  0.3381  0.3528
11351TIP3    H155544   5.005   0.979   4.195  0.7041 -3.3041 -0.2716
11351TIP3    H255545   5.079   1.057   4.302 -1.7154  1.9050 -2.0830
11352TIP3   OH255546   0.543   0.419   0.841 -0.1859  0.5768  0.6292
11352TIP3    H155547   0.555   0.507   0.875  0.4359  0.7869 -0.1116
11352TIP3    H255548   0.620   0.371   0.871  0.1320  0.6400 -0.0571
11353TIP3   OH255549   4.647   6.063   0.661  0.0945 -0.4595  0.3546
11353TIP3    H155550   4.559   6.027   0.676 -0.1630  0.1390  0.2888
11353TIP3    H255551   4.682   6.081   0.748  0.3813 -1.2200  0.4088
11354TIP3   OH255552   6.330   6.339   0.220  0.1776 -0.2075  0.3222
11354TIP3    H155553   6.351   6.370   0.131 -0.7003  1.0164  0.5176
11354TIP3    H255554   6.308   6.247   0.209  0.4741 -0.1717 -0.6686
11355TIP3   OH255555   6.578   2.796   3.827 -0.1621 -0.0805 -0.3431
11355TIP3    H155556   6.526   2.831   3.755 -1.7065  1.6554  1.4689
11355TIP3    H255557   6.643   2.865   3.845  0.9450 -0.9889 -0.7488
11356TIP3   OH255558   4.568   4.971  16.140 -0.0289 -0.3891  0.2453
11356TIP3    H155559   4.550   4.995  16.230 -0.3350  2.8612 -0.5569
11356TIP3    H255560   4.481   4.962  16.100  0.1051 -0.9035  0.0689
11357TIP3   OH255561   1.776   3.574  15.714 -0.2067  0.7129  0.3770
11357TIP3    H155562   1.818   3.619  15.788 -1.3196  3.2630 -0.4414
11357TIP3    H255563   1.710   3.635  15.683 -0.2458 -0.5701 -2.3430
11358TIP3   OH255564   3.342   6.121   4.932  0.4199 -0.3656 -0.1666
11358TIP3    H155565   3.261   6.117   4.882  1.9542 -1.1019 -2.7400
11358TIP3    H255566   3.348   6.037   4.976  0.0884 -0.5393 -0.4523
11359TIP3   OH255567   4.977   0.064   0.262  0.0852 -0.3909 -0.5699
11359TIP3    H155568   5.011   0.055   0.173  0.6868 -0.2638 -0.3580
11359TIP3    H255569   5.055   0.078   0.316 -0.3389  0.3510 -0.1293
11360TIP3   OH255570   1.517   0.639  15.720 -0.3470  0.4688 -0.1262
11360TIP3    H155571   1.576   0.564  15.718 -1.3611 -0.4998  2.1989
11360TIP3    H255572   1.550   0.698  15.652  3.2159 -0.0190  1.0050
11361TIP3   OH255573   4.967   4.085   0.477 -0.3563  0.3301 -0.0003
11361TIP3    H155574   4.900   4.019   0.492  0.2052 -1.3044 -3.6917
11361TIP3    H255575   5.041   4.057   0.531 -0.3160 -1.8325 -1.0929
11362TIP3   OH255576   0.491   5.951   6.506 -0.2038 -0.5594 -0.7967
11362TIP3    H155577   0.497   5.962   6.411 -2.2776 -2.1792 -1.1787
11362TIP3    H255578   0.420   6.009   6.532  1.4925  1.2349  0.1113
11363TIP3   OH255579   1.516   3.844  12.772  0.1118  0.0093 -0.3220
11363TIP3    H155580   1.513   3.761  12.724  0.7118 -0.4372  0.3968
11363TIP3    H255581   1.609   3.864  12.780  0.0117  0.1945  0.4592
11364TIP3   OH255582   3.474   1.570   1.562  0.1242  0.8575 -0.2659
11364TIP3    H155583   3.479   1.603   1.472 -1.8578 -1.8632 -1.5241
11364TIP3    H255584   3.380   1.564   1.580  0.4533 -0.6740  1.1584
11365TIP3   OH255585   6.427   3.488  16.202 -0.0462  0.1366  0.4656
11365TIP3    H155586   6.483   3.547  16.252  0.4056 -1.0388  1.4099
11365TIP3    H255587   6.342   3.533  16.199  0.8571  1.8598 -0.8594
11366TIP3   OH255588   0.570   3.410   1.859 -0.2629  0.3135 -0.6395
11366TIP3    H155589   0.574   3.468   1.783  1.1778  2.3753  0.8867
11366TIP3    H255590   0.491   3.437   1.906 -1.3433 -1.1945 -1.5390
11367TIP3   OH255591   6.656   3.761  15.243 -0.3183 -0.4471  0.0544
11367TIP3    H155592   6.718   3.765  15.315 -1.1935  0.9694  0.7802
11367TIP3    H255593   6.710   3.769  15.164  0.4473  0.5208  0.6567
11368TIP3   OH255594   6.311   0.930  13.152  0.3406 -0.0582 -0.1812
11368TIP3    H155595   6.255   0.925  13.074 -1.0012  1.6297  0.6146
11368TIP3    H255596   6.364   1.008  13.138  1.2697 -0.6623 -0.1129
11369TIP3   OH255597   3.503   2.110  11.886  0.4525  0.2773 -0.2948
11369TIP3    H155598   3.598   2.100  11.872  0.0302 -0.2637 -3.6054
11369TIP3    H255599   3.493   2.198  11.922  2.2087  0.2563  0.3397
11370TIP3   OH255600   1.430   6.290   0.310  0.4875 -0.2748 -0.3575
11370TIP3    H155601   1.415   6.235   0.387  0.0138  1.1597  0.6171
11370TIP3    H255602   1.487   6.238   0.254 -0.2848 -1.9200  0.3230
11371TIP3   OH255603   5.915   3.488   5.995 -0.3565 -0.4168 -0.4542
11371TIP3    H155604   5.925   3.417   5.932  0.8897  1.1220 -2.0864
11371TIP3    H255605   5.971   3.558   5.962 -2.2674  1.7176  0.5362
11372TIP3   OH255606   0.961   3.509  15.324 -0.0797  0.4648 -0.4448
11372TIP3    H155607   1.047   3.540  15.351 -0.6653  1.6170  0.1824
11372TIP3    H255608   0.975   3.469  15.238  1.1576  0.1417 -0.1136
11373TIP3   OH255609   6.042   3.298   6.399  0.3422 -0.4475 -0.5070
11373TIP3    H155610   6.022   3.208   6.426  1.8984 -0.1389  2.0317
11373TIP3    H255611   6.138   3.301   6.395  0.2973  0.2979 -3.9035
11374TIP3   OH255612   0.535   0.120  10.476 -0.2155 -0.3534 -0.6638
11374TIP3    H155613   0.518   0.035  10.436 -0.0235 -0.3186 -0.8170
11374TIP3    H255614   0.630   0.126  10.479 -0.2090 -0.7095  0.5243
11375TIP3   OH255615   5.373   2.402   5.589 -0.1335 -0.3410 -0.7521
11375TIP3    H155616   5.281   2.381   5.606  0.0527 -0.1115  0.6421
11375TIP3    H255617   5.414   2.317   5.570 -0.9337 -0.2767 -3.1946
11376TIP3   OH255618   1.621   4.298  12.141  0.1946 -0.3676  0.3982
11376TIP3    H155619   1.671   4.217  12.129 -0.5531 -0.7556 -0.1836
11376TIP3    H255620   1.654   4.334  12.223  0.7171 -1.1361  0.5385
11377TIP3   OH255621   0.626   6.013   5.894 -0.4693  0.0628  0.0856
11377TIP3    H155622   0.563   6.076   5.927 -0.0315  0.2758  0.5250
11377TIP3    H255623   0.605   6.004   5.801  0.2839  1.8422 -0.2937
11378TIP3   OH255624   2.905   4.582  13.461  0.1327  0.2171  0.5385
11378TIP3    H155625   2.895   4.512  13.526 -0.4341  0.4429  0.7017
11378TIP3    H255626   2.990   4.622  13.481 -0.3721  0.7762  1.6387
11379TIP3   OH255627   4.829   1.966  10.405 -0.3692 -0.2323  0.4603
11379TIP3    H155628   4.850   2.006  10.320  0.6363 -1.5598  0.0675
11379TIP3    H255629   4.858   1.876  10.397 -0.5149 -0.4473  2.1415
11380TIP3   OH255630   3.080   3.983  11.685 -0.2494 -0.7207  0.1821
11380TIP3    H155631   3.124   4.051  11.635 -2.8333  1.1108  0.1839
11380TIP3    H255632   3.060   4.024  11.769  0.7747 -2.5383  1.3876
11381TIP3   OH255633   3.140   1.676   2.260  0.3385 -0.1138  0.0981
11381TIP3    H155634   3.199   1.679   2.185  1.5080 -2.7837  0.8016
11381TIP3    H255635   3.198   1.671   2.336 -0.8308  1.4194  1.1716
11382TIP3   OH255636   0.597   6.299  12.272  0.4411 -0.0098  0.0015
11382TIP3    H155637   0.537   6.348  12.216 -0.6676  0.6900  1.6857
11382TIP3    H255638   0.682   6.340  12.259 -0.3744  2.1487  1.0294
11383TIP3   OH255639   5.159   6.101   0.296  0.0649 -0.4311  1.0093
11383TIP3    H155640   5.193   6.013   0.278  0.5697 -0.2290  0.9741
11383TIP3    H255641   5.082   6.085   0.352 -0.6413 -0.9702 -0.0756
11384TIP3   OH255642   4.279   4.561   1.359 -0.3379 -0.6981 -0.3286
11384TIP3    H155643   4.331   4.602   1.289  3.0114 -0.2177  2.2061
11384TIP3    H255644   4.217   4.629   1.385 -0.3104 -0.1894 -1.4971
11385TIP3   OH255645   3.238   4.453   0.455  0.1570 -0.1330  0.4906
11385TIP3    H155646   3.166   4.439   0.516  0.3003  0.9930  0.9278
11385TIP3    H255647   3.249   4.548   0.451  0.3289 -0.1833 -1.0808
11386TIP3   OH255648   0.673   2.479   5.113  0.7513 -0.1471 -0.0847
11386TIP3    H155649   0.618   2.424   5.168  0.6020 -1.5430 -1.5384
11386TIP3    H255650   0.762   2.465   5.147  0.5206  0.0710  0.6266
11387TIP3   OH255651   6.765   6.346   0.693  0.4771 -0.2752 -0.4330
11387TIP3    H155652   6.841   6.339   0.751  0.5121  2.2256 -0.0606
11387TIP3    H255653   6.756   6.259   0.654  2.1306 -1.2640  1.2290
11388TIP3   OH255654   1.118   1.912   1.838 -0.3505 -0.3438 -0.2001
11388TIP3    H155655   1.026   1.914   1.815 -0.5117  2.0272  0.3908
11388TIP3    H255656   1.119   1.901   1.933 -0.2011  1.9748  0.1402
11389TIP3   OH255657   2.528   5.207   3.685  0.1023  0.3454  0.5008
11389TIP3    H155658   2.597   5.267   3.656 -0.7907  1.2700  0.2319
11389TIP3    H255659   2.526   5.217   3.780 -0.5082  1.2861  0.4004
11390TIP3   OH255660   5.758   4.834  12.795  0.7355 -0.0379  0.3355
11390TIP3    H155661   5.824   4.778  12.756  2.2342  1.0285  1.2469
11390TIP3    H255662   5.724   4.886  12.721  2.2995  0.7353  0.1136
11391TIP3   OH255663   2.645   4.123  12.687 -0.2976  0.3524 -0.6104
11391TIP3    H155664   2.701   4.188  12.644  0.5915 -0.6591 -1.0176
11391TIP3    H255665   2.696   4.094  12.763 -1.0324  0.6904  0.0346
11392TIP3   OH255666   3.888   0.573  13.361  0.3415 -0.1242  0.0414
11392TIP3    H155667   3.914   0.665  13.368 -1.9052  0.4976  1.3776
11392TIP3    H255668   3.832   0.570  13.283 -0.8599  0.0333  0.8673
11393TIP3   OH255669   2.071   4.702  11.898 -0.8086  0.0472  0.0763
11393TIP3    H155670   2.040   4.713  11.988 -0.7268 -0.2948  0.1477
11393TIP3    H255671   2.135   4.631  11.903  1.0358  1.6435  0.1574
11394TIP3   OH255672   2.141   5.364   2.111  0.3231 -0.0012 -0.0965
11394TIP3    H155673   2.228   5.373   2.072 -0.2931 -0.6105 -1.6631
11394TIP3    H255674   2.086   5.328   2.041 -1.0133 -0.3881  1.1001
11395TIP3   OH255675   1.343   3.313  12.289  0.1153 -0.0802  0.1058
11395TIP3    H155676   1.426   3.302  12.335 -0.0826 -1.0959  0.2352
11395TIP3    H255677   1.366   3.311  12.196  0.4665  1.5951  0.1208
11396TIP3   OH255678   0.252   1.379   4.194 -0.1980 -0.3644 -0.5516
11396TIP3    H155679   0.240   1.284   4.184  0.2542 -0.3851 -0.9706
11396TIP3    H255680   0.211   1.400   4.277  0.4463 -1.0778 -0.0334
11397TIP3   OH255681   3.204   4.442   3.548 -0.2481  0.5986  0.5464
11397TIP3    H155682   3.171   4.519   3.502  0.0795 -0.1644 -1.0007
11397TIP3    H255683   3.249   4.478   3.625 -1.2393  1.8604  0.5658
11398TIP3   OH255684   2.819   4.491  12.025  0.1305 -0.6306 -0.4422
11398TIP3    H155685   2.914   4.504  12.027  0.1015 -0.4037 -0.4721
11398TIP3    H255686   2.805   4.406  12.065  0.2564 -0.1433  0.6808
11399TIP3   OH255687   5.011   0.700  11.929  0.0339  0.1884 -0.2134
11399TIP3    H155688   5.057   0.784  11.936  3.4657 -1.5529  0.8605
11399TIP3    H255689   4.966   0.691  12.013  1.7595 -0.0589  0.7345
11400TIP3   OH255690   4.962   5.271  11.880  0.4083 -0.9980  0.3564
11400TIP3    H155691   5.052   5.268  11.913 -0.1366 -0.6115  1.9476
11400TIP3    H255692   4.915   5.207  11.933 -0.0990 -1.8395 -1.0574
11401TIP3   OH255693   2.241   4.495   2.872  0.2127 -0.3377  0.4159
11401TIP3    H155694   2.289   4.522   2.950 -0.0357 -0.2165  0.5272
11401TIP3    H255695   2.257   4.401   2.865 -2.0649 -0.9362  2.2414
11402TIP3   OH255696   2.846   1.881  13.757  0.3386 -0.0157  0.2704
11402TIP3    H155697   2.906   1.810  13.734  0.4392  0.3790 -0.7062
11402TIP3    H255698   2.849   1.941  13.683 -1.6663 -0.2296 -0.0413
11403TIP3   OH255699   0.681   2.966  14.697  0.6253  0.1651 -0.1326
11403TIP3    H155700   0.613   3.027  14.671  2.0380  0.6077 -3.2661
11403TIP3    H255701   0.635   2.899  14.748 -1.9584  0.9567 -1.2525
11404TIP3   OH255702   4.461   0.446  14.852 -0.1312  0.0845 -0.1916
11404TIP3    H155703   4.482   0.442  14.759 -0.0713 -1.7627 -0.1214
11404TIP3    H255704   4.463   0.356  14.882 -3.1485  0.2565  0.9560
11405TIP3   OH255705   4.184   2.231  14.492 -0.3349  0.9933  0.4763
11405TIP3    H155706   4.201   2.140  14.467 -1.3252  1.2976 -1.5044
11405TIP3    H255707   4.115   2.225  14.559 -0.2302  0.2913  0.5282
11406TIP3   OH255708   1.562   6.640   2.683  0.0081 -0.0090 -0.1216
11406TIP3    H155709   1.482   6.645   2.736  1.1953  0.2875  1.7405
11406TIP3    H255710   1.533   6.661   2.594 -1.9587  0.2154  0.5153
11407TIP3   OH255711   1.670   4.129   4.555 -0.1560  1.0541 -0.0586
11407TIP3    H155712   1.716   4.196   4.504  1.2688  0.1810  0.0053
11407TIP3    H255713   1.616   4.178   4.616  0.8384  2.1559 -0.0283
11408TIP3   OH255714   1.355   3.539   3.488  0.3503  0.1149 -0.8929
11408TIP3    H155715   1.375   3.632   3.473 -1.0406  0.6251  0.2514
11408TIP3    H255716   1.393   3.520   3.574 -0.9097  0.1265 -0.3198
11409TIP3   OH255717   6.550   3.451  11.619  0.9922  0.0048  0.4512
11409TIP3    H155718   6.509   3.490  11.542 -0.9513 -2.1608  0.2926
11409TIP3    H255719   6.644   3.455  11.601  0.5931 -2.5289 -3.1876
11410TIP3   OH255720   0.451   3.569  12.996  0.5949  0.2991 -0.3088
11410TIP3    H155721   0.412   3.589  13.081 -0.4897 -1.5580 -0.3075
11410TIP3    H255722   0.377   3.547  12.940  1.3604  0.6915 -1.5051
11411TIP3   OH255723   2.238   3.927  11.275  0.2229 -0.3695  0.4947
11411TIP3    H155724   2.207   4.010  11.237  1.8422  0.0672  0.0650
11411TIP3    H255725   2.211   3.932  11.366 -2.2025 -0.6580 -0.1150
11412TIP3   OH255726   0.546   4.103  15.707  0.1244  0.0621 -0.1308
11412TIP3    H155727   0.626   4.155  15.713  0.7691 -0.7612 -1.0684
11412TIP3    H255728   0.573   4.023  15.662 -1.2872 -0.1041 -0.7595
11413TIP3   OH255729   4.666   4.091  10.445 -0.2442  0.8938  0.2818
11413TIP3    H155730   4.720   4.013  10.454 -1.1322  0.3283  0.9215
11413TIP3    H255731   4.691   4.129  10.361  0.1329 -0.1366 -0.0781
11414TIP3   OH255732   2.206   0.391  11.218 -0.1566 -0.0200  0.3366
11414TIP3    H155733   2.153   0.402  11.297 -2.0678 -3.7475 -0.1820
11414TIP3    H255734   2.220   0.297  11.212 -0.4090  0.0180 -3.9139
11415TIP3   OH255735   0.463   3.248   1.432 -0.2736  0.0748  0.5485
11415TIP3    H155736   0.493   3.333   1.464  0.3228 -0.0225  0.2606
11415TIP3    H255737   0.381   3.267   1.386  0.9037  0.8421 -1.3504
11416TIP3   OH255738   3.879   2.303  13.438  0.7947 -0.3078 -0.3498
11416TIP3    H155739   3.934   2.360  13.492 -1.7576  1.2873  0.7177
11416TIP3    H255740   3.894   2.215  13.473  3.3396 -0.1375 -0.7692
11417TIP3   OH255741   3.859   5.360   4.955  0.2546 -0.1110 -0.3305
11417TIP3    H155742   3.808   5.362   4.874 -0.3053  0.6295  0.0289
11417TIP3    H255743   3.826   5.434   5.006  0.5181 -0.6300  0.6212
11418TIP3   OH255744   6.456   1.528   1.321 -0.0870 -0.1824 -0.4039
11418TIP3    H155745   6.456   1.433   1.324  0.6936 -0.2666 -1.9247
11418TIP3    H255746   6.446   1.556   1.412 -0.0355 -1.7053  0.0879
11419TIP3   OH255747   4.228   4.862  14.874 -0.2398  0.1385  0.3303
11419TIP3    H155748   4.248   4.881  14.965  2.5976 -2.5864  0.4314
11419TIP3    H255749   4.168   4.787  14.877  1.7395 -1.5500  0.0912
11420TIP3   OH255750   1.893   5.309   5.615  0.1639  0.0024  0.2062
11420TIP3    H155751   1.819   5.260   5.652 -0.6356  1.1089  0.1357
11420TIP3    H255752   1.956   5.315   5.687  0.2565 -1.0706  0.2249
11421TIP3   OH255753   0.247   4.348   4.134 -0.6545  0.7059 -0.1992
11421TIP3    H155754   0.287   4.283   4.077 -0.1930  0.2110  0.6792
11421TIP3    H255755   0.246   4.428   4.081 -0.2457  0.2584 -0.9005
11422TIP3   OH255756   5.437   0.879   2.041 -0.4640  0.2397  0.3990
11422TIP3    H155757   5.530   0.902   2.033 -0.2665 -0.5232  0.3795
11422TIP3    H255758   5.395   0.925   1.969  0.2519 -1.1302 -0.9626
11423TIP3   OH255759   6.200   3.774  12.221  0.4652 -0.1287  0.5706
11423TIP3    H155760   6.130   3.757  12.157  1.0917  1.5687 -0.6678
11423TIP3    H255761   6.280   3.773  12.169  1.0683  0.6535  1.4555
11424TIP3   OH255762   1.306   2.099  11.600 -0.7378 -0.1135  0.5398
11424TIP3    H155763   1.234   2.159  11.618  0.7424  1.4719  1.4655
11424TIP3    H255764   1.379   2.132  11.653  1.0242 -0.9331 -1.2315
11425TIP3   OH255765   3.548   4.894   0.999  0.3488  0.3770  0.0742
11425TIP3    H155766   3.573   4.912   0.908 -0.4025  0.2225 -0.1711
11425TIP3    H255767   3.548   4.979   1.041  3.1515  0.2004  0.5959
11426TIP3   OH255768   3.100   6.653   3.335  0.0983 -0.1892  0.3212
11426TIP3    H155769   3.027   6.597   3.307  1.1330 -2.0061  1.0759
11426TIP3    H255770   3.126   6.699   3.255  0.1773 -1.9564 -0.7276
11427TIP3   OH255771   6.863   4.427   3.930 -0.1417  0.0555 -0.3059
11427TIP3    H155772   6.894   4.482   3.858 -0.4965  0.5214 -0.1069
11427TIP3    H255773   6.813   4.486   3.986  0.1687 -0.2982  0.3516
11428TIP3   OH255774   1.633   5.835  14.355  0.2544  0.1914  0.3385
11428TIP3    H155775   1.572   5.790  14.412  0.8466 -0.8807  0.1453
11428TIP3    H255776   1.607   5.809  14.266  1.0672 -0.3952  0.2604
11429TIP3   OH255777   3.489   6.519   4.031 -0.2858  0.2768 -0.0218
11429TIP3    H155778   3.430   6.569   4.087 -2.1373  0.1993 -1.7884
11429TIP3    H255779   3.489   6.430   4.067 -0.0956  0.6158  0.8205
11430TIP3   OH255780   5.130   6.304  15.519  0.6237 -0.0503 -0.0792
11430TIP3    H155781   5.195   6.362  15.559  0.3764 -0.2320  0.6013
11430TIP3    H255782   5.163   6.289  15.430  1.4862 -0.1009  0.2368
11431TIP3   OH255783   6.019   6.010  13.824 -0.1948  0.0497  0.5328
11431TIP3    H155784   6.114   6.007  13.818 -0.2623  0.6626 -1.7136
11431TIP3    H255785   6.002   6.049  13.910  1.5077 -1.5886  1.6858
11432TIP3   OH255786   1.089   1.921  10.184  0.3804  0.0507  0.4136
11432TIP3    H155787   1.103   1.826  10.183  1.3240  0.1366 -2.0866
11432TIP3    H255788   1.117   1.948  10.271 -0.0769 -1.9828  1.2468
11433TIP3   OH255789   3.059   6.455  16.458  0.2393  0.3617 -0.2847
11433TIP3    H155790   3.147   6.478  16.430  0.4428  0.1698  0.1830
11433TIP3    H255791   3.059   6.470  16.553 -0.4339  0.9998 -0.3701
11434TIP3   OH255792   0.632   4.525   6.379 -0.1161  0.4674  0.6085
11434TIP3    H155793   0.712   4.504   6.331 -0.9787 -3.5735  0.5784
11434TIP3    H255794   0.640   4.478   6.462 -2.2846  0.2598  0.7571
11435TIP3   OH255795   1.078   3.922  14.232  0.2040  0.2519  0.5840
11435TIP3    H155796   1.123   3.890  14.154 -1.2838 -2.4421  0.7307
11435TIP3    H255797   1.139   3.905  14.303  0.6850  0.6797  0.2810
11436TIP3   OH255798   5.447   0.262  15.623 -0.6012  0.0881  0.0981
11436TIP3    H155799   5.468   0.250  15.715  0.1546 -0.9890 -0.1875
11436TIP3    H255800   5.499   0.195  15.578  0.3899  1.6788 -1.2670
11437TIP3   OH255801   6.172   2.450   2.800  0.1284  0.5387 -0.1794
11437TIP3    H155802   6.100   2.414   2.747  1.5506 -2.6143 -0.2073
11437TIP3    H255803   6.157   2.415   2.888  1.6922 -0.4251 -0.2464
11438TIP3   OH255804   0.709   1.209   1.625 -0.0381 -0.5125  0.2302
11438TIP3    H155805   0.777   1.225   1.560  0.3095 -0.6445  0.5589
11438TIP3    H255806   0.631   1.253   1.590 -0.1546 -1.4970 -0.8160
11439TIP3   OH255807   4.720   1.794  14.877  0.6514  0.1605  0.0793
11439TIP3    H155808   4.808   1.777  14.845  0.4087 -0.4908 -0.2478
11439TIP3    H255809   4.693   1.874  14.831  0.6320 -0.2874 -0.6858
11440TIP3   OH255810   2.929   4.631  16.337 -0.2039  0.5342  0.2741
11440TIP3    H155811   2.887   4.717  16.332 -0.8029  0.2037 -0.5509
11440TIP3    H255812   2.951   4.610  16.246 -1.9913 -1.1259  0.1696
11441TIP3   OH255813   2.854   5.358  13.392 -0.1815  0.5502  0.3101
11441TIP3    H155814   2.762   5.371  13.369 -0.3358  0.9610  1.1430
11441TIP3    H255815   2.894   5.444  13.382  0.5482  0.0400 -1.8295
11442TIP3   OH255816   3.352   4.911  12.826  0.5117  0.0601  0.8738
11442TIP3    H155817   3.360   5.005  12.834 -0.4946  0.2378  0.0974
11442TIP3    H255818   3.268   4.898  12.781  0.9542 -1.1650  0.3437
11443TIP3   OH255819   0.073   3.800   4.370  0.4772  0.0417  0.2293
11443TIP3    H155820   0.008   3.858   4.409  0.3666 -1.0662  1.8239
11443TIP3    H255821   0.025   3.720   4.349  1.1676 -0.5467  0.8197
11444TIP3   OH255822   6.490   0.763  14.838  0.4912  0.4239 -0.4680
11444TIP3    H155823   6.485   0.777  14.743 -0.7986  0.2892 -0.4354
11444TIP3    H255824   6.516   0.671  14.847 -0.7672  0.0344 -0.7013
11445TIP3   OH255825   3.850   4.819  13.804  0.4116  0.0496  0.2292
11445TIP3    H155826   3.763   4.857  13.809  1.4687  2.5271  3.6732
11445TIP3    H255827   3.884   4.848  13.720 -1.3430  0.7971 -0.2653
11446TIP3   OH255828   6.820   4.152  10.368  0.3411  0.0514 -0.0648
11446TIP3    H155829   6.880   4.122  10.299  0.4252  0.9486 -0.3925
11446TIP3    H255830   6.746   4.091  10.363  1.7376 -1.8819  1.1925
11447TIP3   OH255831   1.898   0.009   1.206  0.1399 -0.2277 -0.2131
11447TIP3    H155832   1.864  -0.019   1.121  1.6013  0.2877 -1.0040
11447TIP3    H255833   1.964   0.075   1.185  3.0302 -2.4992  1.0622
11448TIP3   OH255834   4.348   1.361   5.533 -0.1961 -0.0363 -0.3310
11448TIP3    H155835   4.340   1.452   5.561  0.7256  0.2774 -1.0424
11448TIP3    H255836   4.262   1.340   5.497 -0.4271  0.5391 -0.1265
11449TIP3   OH255837   4.666   6.301   2.496 -0.0833  0.0309  0.2846
11449TIP3    H155838   4.697   6.323   2.584  0.2620 -1.9027  0.6876
11449TIP3    H255839   4.581   6.260   2.510  0.6433 -1.7001 -0.0957
11450TIP3   OH255840   2.529   4.758   2.990 -0.0913  0.0439 -0.3847
11450TIP3    H155841   2.540   4.853   2.999  0.5516  0.0461 -1.1133
11450TIP3    H255842   2.511   4.728   3.079  1.9339  0.5762  0.2653
11451TIP3   OH255843   2.981   5.218  10.394  0.0895 -0.0064  0.7030
11451TIP3    H155844   2.970   5.313  10.388  1.1587  0.0393 -1.5673
11451TIP3    H255845   2.893   5.183  10.381 -0.3575  0.6571  1.8334
11452TIP3   OH255846   4.314   1.665  13.456 -0.0244 -0.4579  0.4223
11452TIP3    H155847   4.349   1.718  13.528 -1.6594 -2.8472  3.2295
11452TIP3    H255848   4.220   1.683  13.456 -0.2538 -1.5619 -0.1109
11453TIP3   OH255849   4.839   5.140   1.681 -0.0972  0.0082  0.3807
11453TIP3    H155850   4.771   5.190   1.726  0.5231  0.9707  0.2761
11453TIP3    H255851   4.816   5.048   1.698 -2.3101  0.2448 -0.9504
11454TIP3   OH255852   0.808   1.991  15.322 -0.6312  0.4004  0.7661
11454TIP3    H155853   0.791   2.076  15.281 -1.0860  0.3877  0.9267
11454TIP3    H255854   0.903   1.987  15.330 -0.5671  0.6261  0.1854
11455TIP3   OH255855   0.761   3.210   6.177 -0.1565  0.1001 -0.0845
11455TIP3    H155856   0.749   3.180   6.267  1.2153  1.3680  0.5540
11455TIP3    H255857   0.847   3.251   6.177  0.0326 -0.2293 -2.0857
11456TIP3   OH255858   1.066   3.463   2.915  0.0281  0.0583 -0.1575
11456TIP3    H155859   1.057   3.519   2.992  0.7627  0.5190 -0.3964
11456TIP3    H255860   1.109   3.518   2.850  1.6012 -1.0435 -0.1027
11457TIP3   OH255861   6.674   6.226  16.242 -0.3683  0.0166  0.0572
11457TIP3    H155862   6.757   6.236  16.195 -0.8184  1.6401 -0.4939
11457TIP3    H255863   6.619   6.176  16.183  0.7830 -2.9120  1.2735
11458TIP3   OH255864   5.583   2.992   1.763  0.8321 -0.0577  0.3269
11458TIP3    H155865   5.541   2.999   1.678  0.3404 -0.1928  0.5552
11458TIP3    H255866   5.535   2.922   1.808 -0.5295  1.6162  1.6307
11459TIP3   OH255867   3.504   1.917  13.754 -0.2566  0.3536 -0.2430
11459TIP3    H155868   3.433   1.861  13.723  1.9435 -2.1424 -1.1412
11459TIP3    H255869   3.514   1.982  13.685  0.4503 -1.3189 -1.8069
11460TIP3   OH255870   2.168   2.775   0.564 -0.3271  0.2475  0.1149
11460TIP3    H155871   2.190   2.747   0.475 -0.7489  0.4318 -0.0522
11460TIP3    H255872   2.252   2.778   0.610 -0.3708 -2.6175  0.5662
11461TIP3   OH255873   1.849   5.426   2.687 -0.3865  0.7257 -0.5480
11461TIP3    H155874   1.775   5.486   2.691 -0.6423  0.3604  0.4591
11461TIP3    H255875   1.811   5.344   2.655 -0.2219  0.8285 -1.0059
11462TIP3   OH255876   3.734   1.438   4.991 -0.6685  0.0486 -0.3343
11462TIP3    H155877   3.716   1.530   5.010 -0.8001  0.5715 -2.7158
11462TIP3    H255878   3.830   1.433   4.990 -0.6529  0.3931 -1.1380
11463TIP3   OH255879   2.566   0.893  12.329  0.1947  0.0464  0.4453
11463TIP3    H155880   2.579   0.881  12.423  0.0163  0.7895  0.5688
11463TIP3    H255881   2.576   0.987  12.315 -1.6733  0.2233  0.0287
11464TIP3   OH255882   2.037   2.393   2.934  0.0022  0.1271 -0.0235
11464TIP3    H155883   2.057   2.300   2.919  3.0015  0.5764  0.5233
11464TIP3    H255884   2.029   2.400   3.029  1.0556  0.6274  0.0329
11465TIP3   OH255885   4.918   6.349  14.894 -0.2147 -0.3300 -0.5265
11465TIP3    H155886   4.877   6.393  14.819 -1.0741 -1.0774 -0.5231
11465TIP3    H255887   4.892   6.258  14.884 -1.6828 -0.1940  1.5295
11466TIP3   OH255888   2.676   2.602  10.938  0.3140  0.5695 -0.3116
11466TIP3    H155889   2.613   2.574  10.872 -0.9877 -1.1874  1.5587
11466TIP3    H255890   2.751   2.635  10.887 -1.8422  2.3149 -2.6100
11467TIP3   OH255891   6.557   5.858   1.820 -0.6014 -0.4112 -0.0868
11467TIP3    H155892   6.489   5.828   1.881 -1.6078  0.2374 -0.8610
11467TIP3    H255893   6.509   5.888   1.743  0.3733  2.1983  0.2144
11468TIP3   OH255894   1.050   2.537   4.953  0.0105 -0.6070  0.1862
11468TIP3    H155895   1.049   2.573   4.864  1.0432 -0.9175  0.0409
11468TIP3    H255896   1.022   2.609   5.009 -1.9800 -0.7754 -0.4962
11469TIP3   OH255897   0.290   4.535  11.132 -0.6560 -0.2100 -0.5092
11469TIP3    H155898   0.244   4.614  11.161 -1.4485 -0.1067 -1.9480
11469TIP3    H255899   0.323   4.557  11.045  0.2764 -1.0243 -0.3751
11470TIP3   OH255900   2.803   0.456   6.238  0.5604  0.0185  0.0921
11470TIP3    H155901   2.772   0.539   6.274 -0.9804  0.7100 -2.5552
11470TIP3    H255902   2.892   0.474   6.209  0.6202  0.4164  0.5182
11471TIP3   OH255903   2.074   6.407   4.801 -0.0702  0.2653 -0.1335
11471TIP3    H155904   2.026   6.487   4.822 -0.0307  0.2313  0.0964
11471TIP3    H255905   2.159   6.418   4.845  0.2188  0.4215 -0.7152
11472TIP3   OH255906   6.844   2.658  16.197 -0.0859  0.2993  0.2768
11472TIP3    H155907   6.903   2.706  16.139  0.5245  0.4667  1.0189
11472TIP3    H255908   6.900   2.592  16.238 -0.4397  0.3926  0.9108
11473TIP3   OH255909   1.572   2.302   5.881 -0.3183 -0.3437  0.4832
11473TIP3    H155910   1.600   2.325   5.970  0.0403  0.5213  0.1555
11473TIP3    H255911   1.654   2.277   5.837 -0.4789 -0.6470  0.3578
11474TIP3   OH255912   2.572   0.157   1.697 -0.0792 -0.3538 -0.3763
11474TIP3    H155913   2.621   0.130   1.774 -2.7863 -1.6570  0.9927
11474TIP3    H255914   2.585   0.252   1.693  1.7166 -0.5252  0.4573
11475TIP3   OH255915   2.790   2.673  15.842 -0.3670  0.1751  0.2731
11475TIP3    H155916   2.792   2.685  15.937  0.8538 -1.7472  0.5455
11475TIP3    H255917   2.876   2.703  15.812  0.9816 -3.1215  0.4204
11476TIP3   OH255918   2.651   3.412  15.763  0.8241  0.3847 -0.3018
11476TIP3    H155919   2.741   3.415  15.795  0.1143 -1.3334  2.1545
11476TIP3    H255920   2.633   3.318  15.751 -0.6418  0.6935 -0.7117
11477TIP3   OH255921   2.213   6.473   3.980 -0.3770 -0.0323 -0.2286
11477TIP3    H155922   2.181   6.506   4.063  0.2355  0.3354 -0.1342
11477TIP3    H255923   2.181   6.383   3.976  0.4785 -0.4028  0.8870
11478TIP3   OH255924   2.429   2.354  13.501  0.3795  0.0180  0.0215
11478TIP3    H155925   2.471   2.408  13.435  1.3570  1.4150  1.7002
11478TIP3    H255926   2.362   2.411  13.539  0.0627 -0.6440  0.4764
11479TIP3   OH255927   3.017   6.512   5.681  0.1815 -0.7019 -0.3539
11479TIP3    H155928   3.019   6.484   5.589  1.3234 -0.3328 -0.4549
11479TIP3    H255929   3.091   6.571   5.690  2.0327 -3.0662  1.5294
11480TIP3   OH255930   5.203   1.339  10.163 -0.2540  0.4840 -0.0265
11480TIP3    H155931   5.216   1.408  10.098  1.1560 -0.0169 -0.3287
11480TIP3    H255932   5.162   1.383  10.237 -0.1247  1.4682 -0.5230
11481TIP3   OH255933   0.655   4.783   6.370  0.2232  0.4455  0.5684
11481TIP3    H155934   0.730   4.793   6.429  3.3220  0.3916 -2.9193
11481TIP3    H255935   0.647   4.688   6.358  0.2899  0.4921  0.1516
11482TIP3   OH255936   3.753   2.426   2.761  0.3379 -0.1786 -0.0365
11482TIP3    H155937   3.676   2.481   2.775  0.1231  0.8051 -3.9449
11482TIP3    H255938   3.718   2.337   2.752  0.0586 -0.1926  1.0426
11483TIP3   OH255939   1.366   3.572  14.129 -0.1858  0.1000 -0.3585
11483TIP3    H155940   1.442   3.567  14.071 -0.4063 -0.1288 -0.6347
11483TIP3    H255941   1.374   3.496  14.186 -0.2431  0.0395 -0.4311
11484TIP3   OH255942   5.573   1.670  11.740  0.1479 -0.5080 -0.8718
11484TIP3    H155943   5.556   1.577  11.752 -2.0532  0.1743  2.5789
11484TIP3    H255944   5.529   1.692  11.658  1.3048 -2.5248 -2.1263
11485TIP3   OH255945   6.496   1.573   4.099  0.2477 -0.2658 -0.7335
11485TIP3    H155946   6.428   1.606   4.158 -2.0311 -1.2228 -2.6900
11485TIP3    H255947   6.545   1.652   4.074  0.8402  0.2560  1.7919
11486TIP3   OH255948   1.077   2.517  15.893  0.8684 -0.4442 -0.0208
11486TIP3    H155949   1.130   2.591  15.922 -0.4187  0.1490  0.9103
11486TIP3    H255950   1.117   2.441  15.936  2.9331 -0.5260 -1.9404
11487TIP3   OH255951   2.398   6.281   4.813 -0.0535 -0.0411  0.3166
11487TIP3    H155952   2.437   6.338   4.747  1.9726  0.0108  1.4820
11487TIP3    H255953   2.316   6.251   4.773  0.0104  1.7408 -1.2874
11488TIP3   OH255954   0.102   6.653  12.159  0.2380 -0.3018  0.1257
11488TIP3    H155955   0.018   6.627  12.197  0.2341  0.2443  0.5118
11488TIP3    H255956   0.167   6.613  12.217  0.3205  3.8495  3.4135
11489TIP3   OH255957   0.133   0.738   5.299  0.1061 -0.2232 -0.1882
11489TIP3    H155958   0.106   0.803   5.234 -0.5808  1.5516  1.7582
11489TIP3    H255959   0.223   0.762   5.322  0.1427 -0.4713 -0.0624
11490TIP3   OH255960   5.757   6.238  11.079 -0.3638 -0.2297 -0.0492
11490TIP3    H155961   5.761   6.148  11.111 -1.6685 -0.3478 -0.1458
11490TIP3    H255962   5.838   6.251  11.030 -0.7431 -1.7874 -1.1514
11491TIP3   OH255963   3.789   6.177  13.502  0.8759 -0.3647 -0.3209
11491TIP3    H155964   3.794   6.163  13.407 -1.0384  0.6885 -0.6436
11491TIP3    H255965   3.877   6.158  13.534  1.6129 -0.6002 -2.3274
11492TIP3   OH255966   1.081   2.667  15.113 -0.1308  0.3676 -0.1178
11492TIP3    H155967   1.051   2.758  15.106 -0.2237  0.2478 -1.5678
11492TIP3    H255968   1.084   2.636  15.023  0.7785 -0.7972  0.2917
11493TIP3   OH255969   4.183   4.022  11.120 -0.5676 -0.1169 -0.1076
11493TIP3    H155970   4.266   3.986  11.089 -1.1123 -2.0354  0.5577
11493TIP3    H255971   4.156   4.083  11.052  0.7344 -0.4325 -0.9418
11494TIP3   OH255972   2.977   1.276   3.490  0.2070 -0.3527  0.4529
11494TIP3    H155973   2.951   1.204   3.548  1.3426 -0.5957  0.6718
11494TIP3    H255974   3.070   1.289   3.508  0.2785  0.4134 -0.4157
11495TIP3   OH255975   1.046   3.161   1.249 -0.1226 -0.0824  0.0731
11495TIP3    H155976   1.103   3.133   1.177 -0.8279  0.9572 -0.9350
11495TIP3    H255977   1.035   3.255   1.236 -0.1660  0.1578  1.6457
11496TIP3   OH255978   0.745   6.757  13.881  0.2342  0.3102 -0.2246
11496TIP3    H155979   0.684   6.682  13.879  0.4903  0.0714  0.6239
11496TIP3    H255980   0.793   6.750  13.799  0.3777 -0.5639 -0.0770
11497TIP3   OH255981   2.942   2.404   1.958  0.3760  0.4264  0.1102
11497TIP3    H155982   3.025   2.366   1.931 -0.0634 -0.0881 -0.5403
11497TIP3    H255983   2.904   2.440   1.878 -1.3536 -1.9094 -0.2341
11498TIP3   OH255984   4.250   6.580  12.752 -0.1227 -0.5936  0.2113
11498TIP3    H155985   4.270   6.655  12.697  0.5442 -0.3158  0.8146
11498TIP3    H255986   4.177   6.608  12.807  0.4722 -0.1940  0.8061
11499TIP3   OH255987   6.228   5.889  12.244 -0.0136 -0.0778  0.9803
11499TIP3    H155988   6.150   5.836  12.230  0.2098 -0.0847 -0.4122
11499TIP3    H255989   6.301   5.830  12.222  0.2519  0.6573 -0.1817
11500TIP3   OH255990   4.905   4.436  13.392 -0.2556  0.0972  0.2389
11500TIP3    H155991   4.825   4.445  13.339  0.7244  1.7987 -1.0448
11500TIP3    H255992   4.976   4.441  13.328  0.9178 -0.9054  1.4164
11501TIP3   OH255993   6.701   6.216   6.090 -0.3309  0.1987  0.5434
11501TIP3    H155994   6.685   6.223   5.996 -0.5245 -1.1520  0.4549
11501TIP3    H255995   6.705   6.307   6.121 -0.2680  0.6567 -0.7610
11502TIP3   OH255996   5.249   6.180  16.301  0.4564 -0.3003  0.4970
11502TIP3    H155997   5.251   6.165  16.396  2.3354 -0.4173  0.4794
11502TIP3    H255998   5.158   6.204  16.283  0.5918  2.7968  2.8510
11503TIP3   OH255999   5.164   1.375  16.235  0.4658  0.0044 -0.1430
11503TIP3    H156000   5.122   1.320  16.301 -0.6264  1.2548  0.2640
11503TIP3    H256001   5.091   1.411  16.184  1.2066  0.2441 -1.0526
11504TIP3   OH256002   5.947   4.436   4.082  0.6265  0.1938  0.6189
11504TIP3    H156003   5.899   4.519   4.084  0.5246  0.1297  1.0652
11504TIP3    H256004   6.027   4.454   4.132  1.3671  0.4773 -0.6435
11505TIP3   OH256005   1.729   0.909  11.475 -0.3497  0.0463  0.3701
11505TIP3    H156006   1.730   0.970  11.549  0.1318 -1.4567  1.6749
11505TIP3    H256007   1.637   0.902  11.450 -0.2580  2.4593 -0.8534
11506TIP3   OH256008   0.697   0.124   4.458 -0.4537 -0.3465  0.1710
11506TIP3    H156009   0.769   0.060   4.450  0.5593  0.6026  1.2794
11506TIP3    H256010   0.684   0.133   4.553 -0.6206  1.0326  0.0301
11507TIP3   OH256011   4.168   1.005   2.899  0.0984  0.0786  0.0600
11507TIP3    H156012   4.110   1.069   2.940  0.2766  0.2840 -0.0100
11507TIP3    H256013   4.255   1.044   2.905  0.3554 -0.5818  0.9006
11508TIP3   OH256014   1.911   0.489  13.006 -0.3728  0.5453  0.4791
11508TIP3    H156015   1.952   0.411  12.969  0.6920  0.6796  1.3391
11508TIP3    H256016   1.884   0.541  12.930 -0.3638 -0.2728 -0.0945
11509TIP3   OH256017   2.324   3.729   2.517  0.0963  0.5288  0.5733
11509TIP3    H156018   2.248   3.781   2.491  0.4145  0.5022 -0.4511
11509TIP3    H256019   2.356   3.691   2.436  0.7303 -0.1163  1.1083
11510TIP3   OH256020   5.507   1.414  11.081  0.4303 -0.2868  0.6067
11510TIP3    H156021   5.449   1.355  11.032 -1.7526 -0.2627  2.9850
11510TIP3    H256022   5.487   1.501  11.045  1.1064 -0.5733 -0.5155
11511TIP3   OH256023   0.632   2.654   1.688  0.2410  0.4188  0.1522
11511TIP3    H156024   0.585   2.649   1.605 -0.6066  2.5388  0.4351
11511TIP3    H256025   0.613   2.571   1.731  0.3665 -0.5564 -1.5784
11512TIP3   OH256026   0.721   6.792   3.290  0.6709 -0.1322 -0.0739
11512TIP3    H156027   0.752   6.778   3.200 -0.5384 -0.9872 -0.3838
11512TIP3    H256028   0.655   6.860   3.282 -0.2655 -1.0086 -0.0329
11513TIP3   OH256029   5.671   2.516   1.689 -0.1391  0.0055 -0.2551
11513TIP3    H156030   5.599   2.579   1.689 -0.6138 -0.5232 -0.5994
11513TIP3    H256031   5.646   2.453   1.757  0.7744  0.6630  0.7313
11514TIP3   OH256032   3.783   2.397  16.833  0.3495 -0.3458 -0.6702
11514TIP3    H156033   3.809   2.309  16.806  0.0169 -0.9293  0.8176
11514TIP3    H256034   3.806   2.401  16.926 -2.7156 -0.0975  0.1711
11515TIP3   OH256035   6.423   0.346   4.536  0.0810  0.0443  0.5957
11515TIP3    H156036   6.511   0.374   4.509  0.7923 -0.8513  1.8408
11515TIP3    H256037   6.405   0.268   4.483  0.6368 -0.5660  1.2825
11516TIP3   OH256038   1.839   6.135  12.266  0.7269  0.3510 -0.4941
11516TIP3    H156039   1.821   6.163  12.355  3.4592 -0.4791  0.4274
11516TIP3    H256040   1.756   6.100  12.234 -0.2104  0.2623  1.8660
11517TIP3   OH256041   2.108   4.615  16.064  0.2055 -0.4869  0.0489
11517TIP3    H156042   2.098   4.646  16.154 -2.3227 -1.2807  0.1363
11517TIP3    H256043   2.088   4.522  16.069 -0.8115 -0.3833 -1.4321
11518TIP3   OH256044   2.467   2.328  15.348  0.2710  0.0439 -0.0854
11518TIP3    H156045   2.429   2.352  15.263  2.9467 -1.6950 -1.9427
11518TIP3    H256046   2.485   2.234  15.340  1.8852  0.1321  1.8722
11519TIP3   OH256047   0.022   2.616   4.578 -0.0615  0.5635  0.0848
11519TIP3    H156048   0.090   2.667   4.621  0.5846  0.1784 -0.4658
11519TIP3    H256049   0.063   2.532   4.559 -0.4450  0.5953 -0.9387
11520TIP3   OH256050   2.365   1.232  14.855  0.0302 -0.0101 -0.0075
11520TIP3    H156051   2.341   1.144  14.885 -1.5353  0.3569 -0.0801
11520TIP3    H256052   2.456   1.224  14.825  0.6086 -1.1093  1.8888
11521TIP3   OH256053   2.460   0.986   5.848  0.0935  0.4834  0.5340
11521TIP3    H156054   2.547   0.959   5.875  0.1868  0.5621  0.3134
11521TIP3    H256055   2.402   0.919   5.885  0.1202  1.1188  1.7521
11522TIP3   OH256056   3.551   3.141   6.102  0.4189 -0.0354  0.3123
11522TIP3    H156057   3.545   3.164   6.009  0.1018  0.5681  0.4774
11522TIP3    H256058   3.634   3.178   6.131 -0.0131  0.7866  0.5373
11523TIP3   OH256059   5.858   1.309  16.839  0.8622  0.2642 -0.1964
11523TIP3    H156060   5.905   1.249  16.897  1.2968  0.9736  0.2083
11523TIP3    H256061   5.893   1.396  16.861 -0.3909  0.7808 -0.1211
11524TIP3   OH256062   1.223   0.919  12.949  0.1815  0.1660 -0.0442
11524TIP3    H156063   1.258   0.970  12.876 -0.2875 -0.4112 -0.6856
11524TIP3    H256064   1.153   0.974  12.985  0.5512  0.5412  0.0986
11525TIP3   OH256065   4.025   4.352   0.758 -0.5936  0.1644  0.0309
11525TIP3    H156066   4.072   4.432   0.732 -1.3784  0.3436 -0.9201
11525TIP3    H256067   3.934   4.368   0.732 -1.2307 -0.1427  1.9046
11526TIP3   OH256068   4.340   1.261   2.402 -0.3977  0.2201 -0.5178
11526TIP3    H156069   4.351   1.353   2.376 -0.2161 -0.3263 -2.6003
11526TIP3    H256070   4.260   1.234   2.357  0.0532 -0.8750 -0.6791
11527TIP3   OH256071   5.643   2.193   1.019 -0.1422  0.5107 -0.3767
11527TIP3    H156072   5.658   2.189   1.113 -1.1223  1.4349 -0.1676
11527TIP3    H256073   5.623   2.103   0.995  1.8258 -0.0784 -0.0372
11528TIP3   OH256074   1.263   5.356   1.828 -0.4026  0.4115 -0.0922
11528TIP3    H156075   1.187   5.363   1.769  0.8958  2.2913 -1.6817
11528TIP3    H256076   1.256   5.434   1.884 -1.3156 -1.0689  1.9781
11529TIP3   OH256077   4.303   5.492   3.635 -0.2072 -0.1789  0.1806
11529TIP3    H156078   4.296   5.468   3.542  4.1080 -0.7632 -0.1987
11529TIP3    H256079   4.290   5.410   3.682 -1.6078 -0.0315  0.0851
11530TIP3   OH256080   2.290   5.566  12.321 -0.6651 -0.4731  0.7512
11530TIP3    H156081   2.198   5.594  12.323 -0.3349  0.6275  0.6054
11530TIP3    H256082   2.335   5.626  12.379  0.4776  0.9239 -1.4482
11531TIP3   OH256083   3.383   4.869   2.875 -0.0538  0.3593 -0.5702
11531TIP3    H156084   3.394   4.807   2.947  1.5946 -0.2103 -1.2496
11531TIP3    H256085   3.337   4.944   2.914  0.6694  0.0115  1.0379
11532TIP3   OH256086   6.319   0.074  15.296  0.0254 -0.3097 -0.1376
11532TIP3    H156087   6.332  -0.003  15.349 -1.7037 -0.2487  0.4494
11532TIP3    H256088   6.278   0.138  15.354  1.3075  1.0442 -0.6295
11533TIP3   OH256089   5.744   1.483   5.968 -0.0268 -0.0327  0.1203
11533TIP3    H156090   5.771   1.524   6.050 -0.8424  0.4751  0.1528
11533TIP3    H256091   5.805   1.410   5.956  1.2550  0.9805  0.2392
11534TIP3   OH256092   4.091   6.039  10.963 -0.3215 -0.2873 -0.2110
11534TIP3    H156093   4.125   5.957  10.927 -2.1298 -1.7168  1.1234
11534TIP3    H256094   4.155   6.064  11.030  0.0500 -0.8020 -0.3646
11535TIP3   OH256095   4.071   6.638  16.789 -0.4503  0.2748  0.4435
11535TIP3    H156096   4.132   6.568  16.762 -2.0249 -0.9841 -0.0134
11535TIP3    H256097   4.101   6.663  16.876 -0.9352 -2.3583  1.4828
11536TIP3   OH256098   4.343   6.449   6.546 -0.2420 -0.0909 -0.5514
11536TIP3    H156099   4.404   6.507   6.501 -0.6768 -1.0773 -2.4980
11536TIP3    H256100   4.375   6.360   6.526 -2.6195 -0.6623 -2.2051
11537TIP3   OH256101   4.063   0.290   5.409  0.5137 -0.6009  0.7071
11537TIP3    H156102   4.095   0.308   5.320 -0.0069 -3.7150 -0.2468
11537TIP3    H256103   4.140   0.259   5.456  0.3621 -1.0786  0.6455
11538TIP3   OH256104   1.533   6.828   3.382  0.2530  0.5597  0.0986
11538TIP3    H156105   1.542   6.830   3.287 -1.4731  3.5631 -0.1352
11538TIP3    H256106   1.614   6.867   3.415 -0.1324  1.7694 -0.3301
11539TIP3   OH256107   6.611   2.227  10.560  0.8580  0.2771 -0.0949
11539TIP3    H156108   6.653   2.145  10.583 -0.1177 -0.2389 -0.1133
11539TIP3    H256109   6.610   2.277  10.642  1.4838  0.3048 -0.0933
11540TIP3   OH256110   3.544   6.469   4.390  0.4690 -0.1315  0.2546
11540TIP3    H156111   3.477   6.518   4.344 -0.6699 -1.2357  0.6922
11540TIP3    H256112   3.553   6.388   4.341  0.1781 -0.7607  1.2063
11541TIP3   OH256113   6.025   3.861  12.835 -0.4548  0.0766 -0.2414
11541TIP3    H156114   6.085   3.786  12.826  1.0881  1.1717  0.4592
11541TIP3    H256115   6.032   3.907  12.751 -0.7354 -0.0768 -0.3510
11542TIP3   OH256116   6.736   4.053  14.685  0.5268  0.4250  0.5791
11542TIP3    H156117   6.815   4.059  14.739  1.0377  1.6028 -0.2462
11542TIP3    H256118   6.736   4.135  14.635 -1.0767  0.3201  0.3674
11543TIP3   OH256119   2.397   5.768  14.739  0.3248 -0.3844 -0.2680
11543TIP3    H156120   2.341   5.805  14.671  2.3016 -0.5112 -2.0915
11543TIP3    H256121   2.428   5.685  14.702  0.9839 -0.7596  1.0505
11544TIP3   OH256122   2.616   6.588   4.619 -0.6370 -0.0399  0.7048
11544TIP3    H156123   2.638   6.620   4.532 -0.5970 -0.6296  0.4935
11544TIP3    H256124   2.554   6.652   4.654 -1.6406 -0.4658 -0.2551
11545TIP3   OH256125   0.795   2.283  15.263  0.0837  0.2458 -0.1506
11545TIP3    H156126   0.769   2.373  15.242 -0.7516 -0.2535 -1.4368
11545TIP3    H256127   0.732   2.255  15.329  0.0101  0.4439 -0.1360
11546TIP3   OH256128   1.752   4.587  16.193 -0.1516  0.1181  0.0013
11546TIP3    H156129   1.758   4.635  16.276  1.3539  0.9448 -0.5550
11546TIP3    H256130   1.777   4.498  16.216 -0.9278  0.0534  0.6522
11547TIP3   OH256131   3.349   5.183  12.790  0.0344  0.1863 -0.4775
11547TIP3    H156132   3.388   5.237  12.858 -0.7503  0.3900 -0.1752
11547TIP3    H256133   3.281   5.237  12.752 -2.0133 -1.1364  1.0495
11548TIP3   OH256134   6.671   2.539  15.776 -0.5884  0.1321 -0.0536
11548TIP3    H156135   6.665   2.567  15.685 -1.6570  0.0948 -0.0092
11548TIP3    H256136   6.645   2.447  15.775 -0.1838  0.0135  0.2310
11549TIP3   OH256137   1.327   1.615  14.500 -0.4084  0.1132  0.3914
11549TIP3    H156138   1.341   1.530  14.543 -3.7016 -0.5633  0.4167
11549TIP3    H256139   1.353   1.679  14.566  0.6285 -0.8567  0.9808
11550TIP3   OH256140   5.782   4.946   6.105 -0.0781 -0.6067  0.3387
11550TIP3    H156141   5.735   4.911   6.181 -0.7029  0.6403  0.5601
11550TIP3    H256142   5.802   5.037   6.130 -2.4313  0.6418 -1.8750
11551TIP3   OH256143   6.667   4.947  11.700 -0.0494  0.3800 -0.2842
11551TIP3    H156144   6.607   4.941  11.626 -0.6082 -0.6271  0.2237
11551TIP3    H256145   6.612   4.976  11.773 -0.0874 -1.1544  0.3381
11552TIP3   OH256146   2.408   0.855  14.875  0.0233 -0.0830 -0.2043
11552TIP3    H156147   2.472   0.900  14.820 -0.4879  2.2932  0.9686
11552TIP3    H256148   2.441   0.766  14.883  3.5295  1.1092  0.7643
11553TIP3   OH256149   1.214   2.706  13.799 -0.6220  0.1993 -0.9145
11553TIP3    H156150   1.122   2.728  13.810 -0.4492  0.1988  0.8251
11553TIP3    H256151   1.231   2.638  13.864  0.3521 -0.6418 -1.9785
11554TIP3   OH256152   2.646   1.092  12.812  0.1364  0.3527 -0.0816
11554TIP3    H156153   2.737   1.078  12.787 -0.2731  0.0740 -1.4777
11554TIP3    H256154   2.614   1.006  12.838  0.2218  0.4169  0.2352
11555TIP3   OH256155   2.484   2.352   4.139 -0.3468 -0.1421  0.2580
11555TIP3    H156156   2.410   2.350   4.200  0.4383  1.1517  1.3124
11555TIP3    H256157   2.561   2.360   4.195  0.6384 -1.6002 -0.8129
11556TIP3   OH256158   6.549   2.361  14.699  0.0852  0.0640  0.1018
11556TIP3    H156159   6.487   2.289  14.707 -0.7588  0.6673 -0.8005
11556TIP3    H256160   6.497   2.440  14.713  1.0784  0.5107  1.4961
11557TIP3   OH256161   1.020   6.197   4.571  0.0252  0.5636 -0.0807
11557TIP3    H156162   0.965   6.270   4.541 -0.8612 -0.2677 -0.5089
11557TIP3    H256163   1.102   6.239   4.599 -0.8532  1.8277  0.6781
11558TIP3   OH256164   0.241   5.613  13.488 -0.1437  0.4850 -0.2120
11558TIP3    H156165   0.223   5.671  13.414 -1.3820 -1.0051 -1.1408
11558TIP3    H256166   0.262   5.528  13.447  0.3765 -0.0644  1.1273
11559TIP3   OH256167   5.589   4.757  16.409  1.0786 -0.6241 -0.0847
11559TIP3    H156168   5.632   4.733  16.490  1.8293 -1.6765 -0.7656
11559TIP3    H256169   5.621   4.845  16.389  1.0452 -0.4435  0.6486
11560TIP3   OH256170   1.092   1.592  15.596  0.3410 -0.4087  0.1828
11560TIP3    H156171   1.073   1.524  15.532  0.0666  0.3784 -0.5894
11560TIP3    H256172   1.047   1.669  15.563  0.1317  0.0007  1.3661
11561TIP3   OH256173   3.148   0.769  15.438 -0.2865  0.6576 -1.0691
11561TIP3    H156174   3.058   0.744  15.459  1.5560 -4.0413  3.2876
11561TIP3    H256175   3.173   0.710  15.366  0.4183 -1.4413  0.7809
11562TIP3   OH256176   5.496   1.979   2.088 -0.2592  0.0461 -0.5934
11562TIP3    H156177   5.581   1.951   2.053  0.1765  0.7896 -0.1590
11562TIP3    H256178   5.497   1.949   2.179  1.5855  4.0500  0.9302
11563TIP3   OH256179   1.080   1.715  15.208  0.3049  0.2493 -0.0827
11563TIP3    H156180   1.087   1.772  15.284  0.7860  1.4786 -1.0069
11563TIP3    H256181   1.111   1.630  15.238  1.8175  1.0537  0.7218
11564TIP3   OH256182   4.025   0.339  15.870  0.3331  0.2045 -0.0673
11564TIP3    H156183   4.054   0.261  15.821 -0.5464  0.9418 -1.8665
11564TIP3    H256184   3.930   0.330  15.875  0.3409  0.5532  0.8228
11565TIP3   OH256185   3.194   2.942   3.633 -0.2515 -0.0034  0.6945
11565TIP3    H156186   3.179   3.026   3.589  1.4010 -0.2532 -0.4450
11565TIP3    H256187   3.266   2.959   3.694  1.4342 -0.9730 -0.9239
11566TIP3   OH256188   6.653   6.125   4.706 -0.1945 -0.0958  0.2658
11566TIP3    H156189   6.614   6.110   4.619 -0.5744 -1.4955  0.6516
11566TIP3    H256190   6.595   6.189   4.747 -0.7367 -0.3670 -0.0613
11567TIP3   OH256191   2.894   1.203   4.041  0.5161  0.1214  0.4506
11567TIP3    H156192   2.923   1.248   4.120  0.7556  0.0282  0.4148
11567TIP3    H256193   2.972   1.195   3.987  0.3099  0.3784  0.1082
11568TIP3   OH256194   2.212   2.941  16.780 -0.3236 -0.1675 -0.1441
11568TIP3    H156195   2.211   3.030  16.817 -2.1463 -0.4635  0.5803
11568TIP3    H256196   2.249   2.953  16.692  0.9243  1.0520  0.4955
11569TIP3   OH256197   5.432   2.009  11.405 -0.4793  0.5936  0.3845
11569TIP3    H156198   5.526   2.027  11.408 -0.6304  1.3260  1.7374
11569TIP3    H256199   5.408   1.992  11.496 -1.1725 -2.4636 -0.2746
11570TIP3   OH256200   3.352   1.932  13.368 -0.2993  0.2787  0.0400
11570TIP3    H156201   3.337   1.839  13.353  0.9627 -0.0956  0.9521
11570TIP3    H256202   3.264   1.969  13.379 -0.7618 -1.3432  2.5585
11571TIP3   OH256203   0.531   3.722  12.062  0.2741  0.5113 -0.7574
11571TIP3    H156204   0.577   3.638  12.053 -2.3562 -0.8592 -2.7605
11571TIP3    H256205   0.587   3.786  12.018  2.3126 -0.1238  0.7714
11572TIP3   OH256206   2.815   2.399   4.270 -0.1858  0.3789  0.1294
11572TIP3    H156207   2.862   2.346   4.205  0.6370 -0.9960  1.7720
11572TIP3    H256208   2.831   2.489   4.242  1.2984 -0.1264 -0.8263
11573TIP3   OH256209   6.383   3.298  12.202 -0.4742 -0.3871 -0.0619
11573TIP3    H156210   6.336   3.314  12.284 -0.8910  1.0178 -0.5430
11573TIP3    H256211   6.361   3.373  12.147  1.3408 -0.3096 -0.7656
11574TIP3   OH256212   4.169   0.522  14.083  0.5282  0.2302 -0.6888
11574TIP3    H156213   4.101   0.493  14.144 -0.2284  1.3672 -0.9514
11574TIP3    H256214   4.128   0.516  13.997  1.4139 -0.8614 -1.0521
11575TIP3   OH256215   5.322   5.382   0.149 -0.0081  0.0055 -0.4101
11575TIP3    H156216   5.317   5.430   0.232 -3.1661  0.9258 -1.0135
11575TIP3    H256217   5.369   5.441   0.090 -1.8407  1.4423 -0.5030
11576TIP3   OH256218   5.586   2.883  16.601  0.2146 -0.3932 -0.3653
11576TIP3    H156219   5.602   2.798  16.642  1.5185 -0.2793 -0.5961
11576TIP3    H256220   5.656   2.892  16.536 -0.9306  0.0853 -1.5901
11577TIP3   OH256221   0.939   1.245  17.021  0.0852 -0.3810  0.5665
11577TIP3    H156222   0.915   1.161  17.060 -1.8022 -0.4651 -0.6507
11577TIP3    H256223   0.982   1.222  16.939  0.5935 -0.1551  0.7647
11578TIP3   OH256224   5.961   5.804   1.357 -0.1380 -0.6675  0.5738
11578TIP3    H156225   5.973   5.820   1.263  0.1889 -2.3024  0.2976
11578TIP3    H256226   5.990   5.713   1.369  1.3511  0.0158  2.5652
11579TIP3   OH256227   0.212   2.883   4.450 -0.5467 -0.0076  0.1795
11579TIP3    H156228   0.219   2.792   4.421 -1.9467 -0.7854  2.0249
11579TIP3    H256229   0.213   2.877   4.546 -0.4941  1.9449  0.3361
11580TIP3   OH256230   6.058   3.599  11.206 -0.0370  0.6266 -0.3097
11580TIP3    H156231   6.083   3.541  11.278  1.5160  1.8000  0.1443
11580TIP3    H256232   5.978   3.641  11.236 -0.0617  0.2273  0.2061
11581TIP3   OH256233   4.316   1.591   0.115  0.1527  0.0639 -0.0501
11581TIP3    H156234   4.407   1.562   0.124  0.4675 -0.4105 -3.6386
11581TIP3    H256235   4.265   1.520   0.156  1.2927 -0.6687  0.1527
11582TIP3   OH256236   5.738   3.906  16.001 -0.2928  0.5600 -0.3409
11582TIP3    H156237   5.678   3.954  16.057 -0.7003  1.0551 -1.1819
11582TIP3    H256238   5.682   3.864  15.936  0.2069  0.3833 -0.6643
11583TIP3   OH256239   5.914   0.856  13.446  0.0573  0.4683  0.2200
11583TIP3    H156240   5.898   0.933  13.392  1.0800  0.2294 -0.4507
11583TIP3    H256241   5.922   0.891  13.535 -0.2278  1.0441  0.0273
11584TIP3   OH256242   5.407   2.773  15.031  0.0900  0.2205 -0.5822
11584TIP3    H156243   5.461   2.755  14.954  1.5100  3.7622 -0.6230
11584TIP3    H256244   5.455   2.734  15.104 -1.4177 -3.4377 -1.3549
11585TIP3   OH256245   0.084   4.402   1.359  0.5546  0.1394  0.4376
11585TIP3    H156246   0.058   4.324   1.311 -1.4407  0.0712  1.5362
11585TIP3    H256247   0.034   4.473   1.319 -0.4090  0.2311  1.7409
11586TIP3   OH256248   1.321   2.450   3.647  0.0796 -0.2420  0.2170
11586TIP3    H156249   1.303   2.536   3.684 -1.2249  0.7617 -2.4704
11586TIP3    H256250   1.235   2.410   3.637  0.2193 -0.0441 -2.4517
11587TIP3   OH256251   1.882   6.812   4.637 -0.3830  0.0611  0.3945
11587TIP3    H156252   1.812   6.807   4.571 -1.4163  1.1936  1.3603
11587TIP3    H256253   1.875   6.900   4.673  1.8836  0.3610  0.1966
11588TIP3   OH256254   0.513   4.536  15.423 -0.1548 -0.0331 -0.0616
11588TIP3    H156255   0.502   4.545  15.518  1.5267 -0.5180  0.2033
11588TIP3    H256256   0.607   4.548  15.408 -0.6688  2.3617 -1.9645
11589TIP3   OH256257   1.904   2.155  16.535 -0.0059  0.0166 -0.1348
11589TIP3    H156258   1.888   2.202  16.617 -0.8249  0.1518 -0.3658
11589TIP3    H256259   1.914   2.224  16.469 -0.5156 -0.1135 -0.3522
11590TIP3   OH256260   5.134   5.804  14.136  0.4199  0.1425 -0.1128
11590TIP3    H156261   5.090   5.764  14.211  2.5786 -0.6802  0.8069
11590TIP3    H256262   5.126   5.738  14.066 -0.1276  0.1704 -0.0786
11591TIP3   OH256263   1.416   4.281  16.636 -0.5966  0.2616  0.2821
11591TIP3    H156264   1.378   4.369  16.641  0.8930  0.8914  1.4342
11591TIP3    H256265   1.359   4.227  16.690  0.0009  1.1449  1.8466
11592TIP3   OH256266   0.892   6.247  14.679 -0.2915  0.3403 -0.1119
11592TIP3    H156267   0.977   6.277  14.711  0.0395  1.0964 -1.6001
11592TIP3    H256268   0.908   6.220  14.588 -1.4644 -0.3158 -0.1471
11593TIP3   OH256269   6.846   3.492  11.573  0.7032  0.4986  0.3000
11593TIP3    H156270   6.821   3.497  11.480  0.6223 -0.7237  0.2425
11593TIP3    H256271   6.878   3.403  11.584  0.4560  0.5520  1.5172
11594TIP3   OH256272   4.097   1.203  15.551 -0.2239  0.1434  0.5105
11594TIP3    H156273   4.029   1.255  15.508  0.1849  1.1292  1.0273
11594TIP3    H256274   4.179   1.245  15.525  0.0552  0.4005  1.7596
11595TIP3   OH256275   0.941   0.700  12.288 -0.1033 -0.2331 -0.5508
11595TIP3    H156276   0.986   0.758  12.349 -1.2981 -1.5816  1.7620
11595TIP3    H256277   1.004   0.630  12.271  0.1071 -0.0389 -0.5798
11596TIP3   OH256278   6.729   3.786  13.576  0.3097  0.5324  0.5239
11596TIP3    H156279   6.687   3.866  13.542 -0.1529 -0.3644 -1.1177
11596TIP3    H256280   6.816   3.786  13.537 -0.3049 -0.6213 -0.9717
11597TIP3   OH256281   5.612   5.935  10.697 -0.1059 -0.2986  0.0861
11597TIP3    H156282   5.665   5.905  10.623  0.6815  0.0566  0.4911
11597TIP3    H256283   5.550   5.997  10.658 -1.8774 -2.4798 -0.7887
11598TIP3   OH256284   2.832   0.355   1.148 -0.2375 -0.0533 -0.3448
11598TIP3    H156285   2.748   0.324   1.183 -0.1640 -0.3961 -0.4669
11598TIP3    H256286   2.892   0.281   1.160  0.5392  0.7924  1.4254
11599TIP3   OH256287   0.548   4.528  16.244  0.0137  0.7619  0.4075
11599TIP3    H156288   0.641   4.527  16.220  0.5350 -1.5992  2.1963
11599TIP3    H256289   0.538   4.605  16.300  0.7614  1.2759 -0.1415
11600TIP3   OH256290   1.737   1.138  11.628 -0.5153 -0.0614 -0.2844
11600TIP3    H156291   1.677   1.213  11.629 -0.0317  0.3525 -0.9461
11600TIP3    H256292   1.806   1.164  11.567  0.5314 -0.3820  0.7389
11601TIP3   OH256293   3.736   0.968   4.813 -0.1254  0.1031  0.1546
11601TIP3    H156294   3.776   0.887   4.844 -0.6288  0.6063  2.2292
11601TIP3    H256295   3.809   1.021   4.782  0.3796 -0.4541  0.3807
11602TIP3   OH256296   0.656   6.676  11.375  0.4412  0.3737 -0.2054
11602TIP3    H156297   0.584   6.633  11.327 -0.0216 -0.5029  1.2065
11602TIP3    H256298   0.733   6.624  11.352  0.2489  0.0431 -0.1204
11603TIP3   OH256299   0.365   4.163   1.678 -0.1699  0.2086  0.4359
11603TIP3    H156300   0.341   4.230   1.614 -0.2512  0.4251  0.6932
11603TIP3    H256301   0.390   4.211   1.756 -1.0547 -0.0713  0.9121
11604TIP3   OH256302   3.865   3.596  11.357 -0.1661 -0.1944 -0.5886
11604TIP3    H156303   3.924   3.622  11.286 -1.0571 -0.4978 -1.4687
11604TIP3    H256304   3.777   3.607  11.320 -0.6443 -0.4733  0.4346
11605TIP3   OH256305   0.052   3.366  10.903 -0.4018  0.0023 -0.1294
11605TIP3    H156306  -0.042   3.370  10.886 -0.4628  1.2885  0.4325
11605TIP3    H256307   0.085   3.452  10.878  0.2871  0.2575  1.5526
11606TIP3   OH256308   2.016   5.697   3.231 -0.4636  0.2292  0.4009
11606TIP3    H156309   2.062   5.779   3.246 -0.8998  0.5120  0.2040
11606TIP3    H256310   1.961   5.685   3.309 -2.2866  1.4021 -0.6486
11607TIP3   OH256311   2.233   4.886   0.299 -0.2746  0.2114  0.6290
11607TIP3    H156312   2.178   4.943   0.245 -1.6067 -0.6281  1.0556
11607TIP3    H256313   2.273   4.944   0.363 -0.3124  0.9015  0.0430
11608TIP3   OH256314   3.174   1.605  14.886 -0.3261 -0.8211 -0.0854
11608TIP3    H156315   3.238   1.645  14.827 -0.8744 -1.2562 -0.9904
11608TIP3    H256316   3.194   1.644  14.972 -0.7246  1.2597 -0.8774
11609TIP3   OH256317   3.868   2.406  14.558  0.1450  0.4965  0.2472
11609TIP3    H156318   3.931   2.354  14.608 -0.6621 -0.9523 -0.1591
11609TIP3    H256319   3.830   2.467  14.621  0.6910  0.1776  0.8863
11610TIP3   OH256320   2.097   5.531  14.967 -0.3050 -0.2402 -0.2217
11610TIP3    H156321   2.031   5.484  15.018 -1.2058  0.7429 -0.4421
11610TIP3    H256322   2.180   5.511  15.010 -0.9825  0.1444  1.3154
11611TIP3   OH256323   1.217   0.075   5.526  0.0667  0.2137  0.2555
11611TIP3    H156324   1.305   0.105   5.550 -0.0358  0.2217  0.6409
11611TIP3    H256325   1.171   0.068   5.610 -1.0543  2.5559 -0.0682
11612TIP3   OH256326   0.027   0.135  10.291 -0.2947  0.1084  0.3272
11612TIP3    H156327   0.072   0.217  10.308  0.2923 -0.3058  0.7980
11612TIP3    H256328   0.087   0.067  10.321  0.4579 -0.6536 -2.6371
11613TIP3   OH256329   0.703   0.224   1.968  0.2017  0.0179 -0.1290
11613TIP3    H156330   0.668   0.226   2.056  2.6605 -2.0529  1.0388
11613TIP3    H256331   0.648   0.161   1.921  0.4543 -0.8696  0.7402
11614TIP3   OH256332   0.719   0.409   2.891 -0.1754 -0.3021 -0.3047
11614TIP3    H156333   0.690   0.325   2.855  0.2961 -0.4051 -0.4585
11614TIP3    H256334   0.668   0.474   2.845  0.0094 -0.4665 -0.7478
11615TIP3   OH256335   6.131   0.100   1.510  0.2765 -0.0753 -0.1287
11615TIP3    H156336   6.099   0.178   1.466  4.8864  0.2171 -3.8416
11615TIP3    H256337   6.105   0.028   1.452  0.2117 -0.6429  0.6021
11616TIP3   OH256338   0.487   5.364  15.339 -0.7155 -0.5972  0.2135
11616TIP3    H156339   0.433   5.288  15.317 -0.7680 -0.5592  0.2106
11616TIP3    H256340   0.551   5.369  15.269 -0.9081 -0.4518  0.0442
11617TIP3   OH256341   4.162   4.707  15.403 -0.6438 -0.3456 -0.1670
11617TIP3    H156342   4.086   4.703  15.345 -0.7752  0.7770 -0.1067
11617TIP3    H256343   4.127   4.690  15.491 -0.7446 -0.3015 -0.1994
11618TIP3   OH256344   2.415   3.729  15.722  0.2226  0.0333 -0.3376
11618TIP3    H156345   2.492   3.706  15.773  0.3328  1.1645  0.0529
11618TIP3    H256346   2.341   3.695  15.772  0.4415 -0.6736 -0.4906
11619TIP3   OH256347   4.708   5.983  10.985 -0.0813 -0.6716  0.7016
11619TIP3    H156348   4.727   5.909  10.927  1.6192 -0.3686  0.8285
11619TIP3    H256349   4.727   6.060  10.932 -0.4049 -0.3479  1.0497
11620TIP3   OH256350   3.049   6.391  15.796 -0.1349 -0.6225 -0.1893
11620TIP3    H156351   3.039   6.484  15.780 -1.4389 -0.7730 -0.3944
11620TIP3    H256352   2.963   6.354  15.775  0.1646 -1.7726  0.5172
11621TIP3   OH256353   6.175   3.044   1.223  0.0717  0.1090 -0.3739
11621TIP3    H156354   6.115   2.972   1.203 -1.0346  0.5770  1.1025
11621TIP3    H256355   6.154   3.068   1.313 -1.7735  4.2617 -1.6692
11622TIP3   OH256356   0.500   1.579  14.208 -0.3751  0.4197 -0.5965
11622TIP3    H156357   0.432   1.534  14.257  1.1829  0.5404  1.8633
11622TIP3    H256358   0.490   1.671  14.231  1.0403  0.3463  0.4200
11623TIP3   OH256359   6.270   6.589   2.268  0.2216 -0.4038  0.1229
11623TIP3    H156360   6.352   6.548   2.298  0.6306 -0.7008 -1.3218
11623TIP3    H256361   6.202   6.544   2.319  0.7547 -2.1299 -0.5882
11624TIP3   OH256362   0.071   5.070  15.420  0.7432  0.4308 -0.0465
11624TIP3    H156363   0.091   4.979  15.397  2.3262  1.4859 -3.5304
11624TIP3    H256364   0.128   5.089  15.494 -0.7411 -1.7663  1.7764
11625TIP3   OH256365   2.713   3.213  12.326  0.5065 -0.2749  0.0362
11625TIP3    H156366   2.746   3.201  12.415  0.4351 -0.1704  0.0765
11625TIP3    H256367   2.638   3.154  12.320  0.4829 -0.2472  0.0608
11626TIP3   OH256368   6.072   0.432  15.364 -0.0067  0.0392  0.0650
11626TIP3    H156369   6.033   0.408  15.280 -0.8330  1.9485 -0.1555
11626TIP3    H256370   5.999   0.471  15.413  0.9802  1.0521  0.7729
11627TIP3   OH256371   2.476   5.914  12.555  0.1520 -0.8560  0.2738
11627TIP3    H156372   2.397   5.861  12.544  0.1719 -0.7639 -0.3162
11627TIP3    H256373   2.455   5.973  12.628 -1.2783  0.9151 -1.4748
11628TIP3   OH256374   3.080   3.032   1.605 -0.7791  0.2584  0.5725
11628TIP3    H156375   3.142   3.077   1.548 -3.3559  1.6734 -1.3394
11628TIP3    H256376   3.096   2.939   1.589  1.7141  0.4808  1.2597
11629TIP3   OH256377   4.027   4.425  16.082  0.1241 -0.1368  0.0073
11629TIP3    H156378   3.939   4.457  16.101 -0.4433 -0.6666 -1.5972
11629TIP3    H256379   4.034   4.344  16.133  0.2595  0.6532  1.2913
11630TIP3   OH256380   1.899   2.613   3.876 -0.6540  0.3297  0.1484
11630TIP3    H156381   1.829   2.616   3.941 -1.2960 -0.3079 -0.5004
11630TIP3    H256382   1.925   2.521   3.872  0.0403  0.5162  0.1861
11631TIP3   OH256383   4.338   5.036  15.470 -0.4815  0.1018  0.5218
11631TIP3    H156384   4.310   5.003  15.384 -0.3667  0.0968  0.4869
11631TIP3    H256385   4.428   5.066  15.456 -1.0209  1.6998  0.2114
11632TIP3   OH256386   0.242   0.692  13.077 -0.0281 -0.3022 -0.0200
11632TIP3    H156387   0.161   0.727  13.114  0.2403 -0.5778  0.8591
11632TIP3    H256388   0.274   0.631  13.143  2.7098  2.3007  1.3110
11633TIP3   OH256389   0.729   1.108   5.392  0.7992  0.0778 -0.2224
11633TIP3    H156390   0.640   1.074   5.382  0.2090  1.6343 -0.5294
11633TIP3    H256391   0.759   1.123   5.302  1.1717  0.0478 -0.1055
11634TIP3   OH256392   5.065   1.485   5.154 -0.7947 -0.2794  0.3815
11634TIP3    H156393   5.130   1.434   5.106 -2.6264 -1.4069 -1.0544
11634TIP3    H256394   5.082   1.465   5.246  2.8455  1.9617  0.3740
11635TIP3   OH256395   5.799   5.044   4.721 -0.4122  0.3573 -0.0055
11635TIP3    H156396   5.826   5.071   4.809 -5.0284 -0.8977  2.0953
11635TIP3    H256397   5.758   5.121   4.684 -1.2717  0.0446  0.2798
11636TIP3   OH256398   0.388   0.923   2.077 -0.0338 -0.1465 -0.3087
11636TIP3    H156399   0.481   0.924   2.057 -0.3744  0.5355 -2.0422
11636TIP3    H256400   0.375   0.995   2.138  0.5125 -0.0072 -0.3545
11637TIP3   OH256401   6.208   6.830  12.285  0.2580  0.1627  0.3738
11637TIP3    H156402   6.178   6.749  12.325  0.4016  0.8207  1.9245
11637TIP3    H256403   6.142   6.851  12.219  0.2247 -1.1879 -0.0528
11638TIP3   OH256404   3.145   3.618  15.631 -0.3620  0.3486 -0.0989
11638TIP3    H156405   3.104   3.579  15.708 -0.2478  0.5070  0.0430
11638TIP3    H256406   3.126   3.711  15.638 -1.7876  0.1635 -1.1318
11639TIP3   OH256407   4.216   4.770   2.367 -0.1331  0.0583 -0.3757
11639TIP3    H156408   4.220   4.750   2.274  0.2167  0.3803 -0.4342
11639TIP3    H256409   4.288   4.832   2.381 -0.2883  0.1395  0.0748
11640TIP3   OH256410   3.333   5.020   1.966 -0.3507 -0.2031 -0.2936
11640TIP3    H156411   3.316   4.926   1.969 -0.4762 -0.1868 -0.4855
11640TIP3    H256412   3.369   5.036   1.879  1.0131 -0.2924  0.2275
11641TIP3   OH256413   5.591   1.169   2.685 -0.3422  0.2152 -0.3153
11641TIP3    H156414   5.650   1.130   2.750 -0.0049 -0.0084 -0.7542
11641TIP3    H256415   5.521   1.104   2.676 -0.2641  0.1367 -0.3561
11642TIP3   OH256416   0.356   4.166   4.301 -0.3515  0.1810 -0.2981
11642TIP3    H156417   0.389   4.208   4.380 -2.1904  0.4399  0.3782
11642TIP3    H256418   0.321   4.237   4.248 -2.4441 -0.3085  0.3398
11643TIP3   OH256419   0.448   1.952   0.131  0.6784  0.2297  0.0662
11643TIP3    H156420   0.420   1.893   0.061  1.5840  0.4493 -0.4992
11643TIP3    H256421   0.422   2.039   0.100  0.7652  0.2890  0.1590
11644TIP3   OH256422   5.309   6.589   5.584 -0.2586  0.4642  0.0219
11644TIP3    H156423   5.358   6.588   5.666 -0.3097  0.1453  0.0495
11644TIP3    H256424   5.370   6.555   5.519 -0.1600  0.8828 -0.1078
11645TIP3   OH256425   1.620   1.784   2.110  0.5730 -0.3897 -0.3092
11645TIP3    H156426   1.579   1.867   2.134 -0.1935 -1.0398  0.7591
11645TIP3    H256427   1.668   1.758   2.189  0.4367 -1.1703 -0.4801
11646TIP3   OH256428   5.689   0.401  16.933  0.6417  0.0021 -0.5538
11646TIP3    H156429   5.608   0.452  16.938  2.0249  2.4997 -1.8457
11646TIP3    H256430   5.664   0.314  16.963 -2.4423  0.7440 -0.6527
11647TIP3   OH256431   2.891   0.945   4.175 -0.2358  0.2808 -0.2424
11647TIP3    H156432   2.937   1.018   4.133 -0.7841 -0.1097 -1.5738
11647TIP3    H256433   2.843   0.985   4.247  0.5278  1.0162 -0.1219
11648TIP3   OH256434   2.747   4.006   2.704  0.0686 -0.4058 -0.3737
11648TIP3    H156435   2.779   4.076   2.647 -1.2464  1.2061  0.8153
11648TIP3    H256436   2.658   3.988   2.673 -0.7080  0.5646  1.1671
11649TIP3   OH256437   3.166   5.407   3.177 -0.7532 -0.0320 -0.0881
11649TIP3    H156438   3.225   5.352   3.229 -0.1194 -1.2060 -1.9693
11649TIP3    H256439   3.203   5.495   3.183  0.5185 -0.5450 -0.2782
11650TIP3   OH256440   4.163   5.808  13.335  0.4413  0.5125  0.1685
11650TIP3    H156441   4.196   5.892  13.365 -1.4504  1.4416 -0.2199
11650TIP3    H256442   4.177   5.749  13.409 -0.7848  1.8675  1.5586
11651TIP3   OH256443   5.873   0.229  13.802 -0.2226 -0.1101 -0.2005
11651TIP3    H156444   5.875   0.286  13.725  0.4662  2.3246  1.5145
11651TIP3    H256445   5.954   0.178  13.796 -1.6306 -2.3660 -2.6454
11652TIP3   OH256446   2.027   6.007  15.001  0.0973 -0.6545 -0.2239
11652TIP3    H156447   1.955   5.971  14.949  0.1080 -0.9106 -0.0654
11652TIP3    H256448   2.091   5.936  15.004  0.2382 -0.5231 -0.1372
11653TIP3   OH256449   5.299   2.066   3.022 -0.1271 -0.0561  0.1573
11653TIP3    H156450   5.222   2.090   3.074 -0.4371 -0.9388  0.1337
11653TIP3    H256451   5.327   1.982   3.060 -0.1685 -0.5540 -0.8921
11654TIP3   OH256452   2.178   4.492  13.197 -0.5613  0.6887  0.0720
11654TIP3    H156453   2.155   4.434  13.124  1.7521 -1.4293  0.8755
11654TIP3    H256454   2.214   4.570  13.156  0.8888 -0.5524 -1.1613
11655TIP3   OH256455   4.556   0.671  13.507 -0.4501  0.0316 -0.4821
11655TIP3    H156456   4.492   0.738  13.484 -0.6841 -0.3413 -0.9290
11655TIP3    H256457   4.520   0.630  13.586  0.5827  1.6219  0.8936
11656TIP3   OH256458   0.568   0.450  11.009  0.5948  0.5258  0.5278
11656TIP3    H156459   0.523   0.365  11.015 -0.8060  1.3032  1.5506
11656TIP3    H256460   0.603   0.452  10.920 -0.6731 -0.4958 -0.0368
11657TIP3   OH256461   0.448   6.065  14.039 -0.1004  0.3986 -0.1464
11657TIP3    H156462   0.480   5.997  13.980 -0.6856 -0.8580  0.9235
11657TIP3    H256463   0.366   6.030  14.073 -1.8580  2.8383 -1.5985
11658TIP3   OH256464   3.685   3.704  15.632  0.6209 -0.1304 -0.3858
11658TIP3    H156465   3.686   3.747  15.546  0.6591  0.3685 -0.1432
11658TIP3    H256466   3.592   3.698  15.654  0.3818 -2.9283 -1.7423
11659TIP3   OH256467   3.252   4.394  14.679  0.3767  0.1437  0.0685
11659TIP3    H156468   3.218   4.310  14.709 -1.2662  0.3910 -0.9800
11659TIP3    H256469   3.275   4.441  14.759 -1.6638 -0.1241  0.8700
11660TIP3   OH256470   5.799   0.108   3.958  0.1414  0.1854  0.3607
11660TIP3    H156471   5.771   0.128   4.048 -1.4418 -0.1319 -0.0240
11660TIP3    H256472   5.891   0.084   3.966 -0.1429 -0.5120  2.0087
11661TIP3   OH256473   1.112   3.212  15.330  0.6196  0.6059  0.0523
11661TIP3    H156474   1.173   3.212  15.404  0.8786 -1.3244 -0.0940
11661TIP3    H256475   1.054   3.138  15.347 -0.5107  1.2706 -0.7573
11662TIP3   OH256476   6.729   2.149  11.671 -0.4648 -0.6016 -0.2025
11662TIP3    H156477   6.681   2.231  11.678  0.8146  0.0849  1.0490
11662TIP3    H256478   6.757   2.129  11.761 -0.9441 -2.5447 -0.4313
11663TIP3   OH256479   5.055   0.960  14.826 -0.3968  0.3728 -0.2648
11663TIP3    H156480   5.068   1.032  14.764 -0.6008 -0.0184 -0.7697
11663TIP3    H256481   5.047   0.882  14.771  2.0127 -0.3907  0.3747
11664TIP3   OH256482   6.033   2.608  11.381  0.1213 -0.1472  0.0261
11664TIP3    H156483   6.002   2.612  11.472 -1.4274  0.8487 -0.5147
11664TIP3    H256484   6.041   2.699  11.354 -1.5937 -0.3816 -1.5009
11665TIP3   OH256485   0.276   2.617   2.129 -0.6025 -1.3071  0.4830
11665TIP3    H156486   0.251   2.546   2.069 -0.7609  0.8869 -2.2822
11665TIP3    H256487   0.207   2.683   2.117  2.1278  1.5201 -1.1891
11666TIP3   OH256488   3.815   2.947  11.933 -0.0507 -0.2206  0.0311
11666TIP3    H156489   3.763   2.986  11.863  0.2775 -0.3230 -0.2727
11666TIP3    H256490   3.775   2.861  11.947  1.5493 -1.3823 -1.9639
11667TIP3   OH256491   1.446   0.455   2.522  0.4670 -0.0733  0.0613
11667TIP3    H156492   1.441   0.486   2.432  0.3680  0.7270  0.3349
11667TIP3    H256493   1.373   0.499   2.567  0.9640  0.1148  0.6967
11668TIP3   OH256494   6.117   5.567  15.113  0.4521  0.2117  0.2119
11668TIP3    H156495   6.139   5.479  15.143 -0.4127 -0.4648 -1.0263
11668TIP3    H256496   6.060   5.553  15.037  1.0258  1.8266 -0.5798
11669TIP3   OH256497   6.745   2.597   3.152  0.2200 -0.2770  0.0132
11669TIP3    H156498   6.699   2.531   3.100 -0.0646  0.5076 -0.7443
11669TIP3    H256499   6.838   2.581   3.134  0.1853 -0.8721  0.3373
11670TIP3   OH256500   6.805   1.149   4.350 -0.1828 -0.1256  0.7005
11670TIP3    H156501   6.759   1.090   4.290  0.9252 -0.9886  0.6577
11670TIP3    H256502   6.806   1.101   4.434  1.2522 -0.4902  0.5177
11671TIP3   OH256503   0.722   3.739   0.315  0.0064 -0.3696  0.1655
11671TIP3    H156504   0.685   3.745   0.227 -0.7465 -1.0318  0.4231
11671TIP3    H256505   0.813   3.767   0.305 -0.9682  3.0681 -0.1680
11672TIP3   OH256506   6.193   3.225   2.103  0.2747 -0.4232  0.6640
11672TIP3    H156507   6.287   3.229   2.088  0.2759 -1.0547  0.4621
11672TIP3    H256508   6.167   3.139   2.070 -0.2916 -0.4589  1.1775
11673TIP3   OH256509   2.004   0.003   4.293 -0.4488 -0.5430 -0.5900
11673TIP3    H156510   2.084  -0.011   4.342 -0.8181 -1.7757 -0.2998
11673TIP3    H256511   2.011   0.093   4.260  0.8977 -0.5289 -0.3217
11674TIP3   OH256512   0.347   4.343  12.641 -0.1676 -0.3224  0.3235
11674TIP3    H156513   0.400   4.266  12.664  2.2124  1.1845  0.2713
11674TIP3    H256514   0.392   4.416  12.683 -2.1996  1.0984  0.1550
11675TIP3   OH256515   4.611   4.034   4.518 -0.3155 -0.1993  0.0822
11675TIP3    H156516   4.543   4.096   4.545 -0.6153 -0.4303 -0.1341
11675TIP3    H256517   4.652   4.006   4.600  0.2673  0.7834  0.1382
11676TIP3   OH256518   0.777   5.666  16.673 -0.2217 -0.8644  0.1988
11676TIP3    H156519   0.799   5.757  16.656 -1.8619 -0.5487 -0.4848
11676TIP3    H256520   0.686   5.669  16.704 -0.3399 -2.2700  0.0526
11677TIP3   OH256521   2.876   2.010   2.146 -0.4440 -0.0181 -0.3837
11677TIP3    H156522   2.858   1.935   2.204  1.5319 -0.4926 -0.2986
11677TIP3    H256523   2.790   2.047   2.127 -1.3847 -1.6187  0.5072
11678TIP3   OH256524   6.341   0.690  13.255  0.0948 -0.1584  0.8693
11678TIP3    H156525   6.308   0.679  13.166  0.9598 -0.2081  0.5436
11678TIP3    H256526   6.362   0.783  13.261  0.0005 -0.1477  1.0361
11679TIP3   OH256527   3.725   3.116  14.986  0.0433 -0.0774  0.0516
11679TIP3    H156528   3.770   3.122  14.902 -0.6844  0.1397 -0.3391
11679TIP3    H256529   3.643   3.070  14.966 -0.3340  0.3616  0.5550
11680TIP3   OH256530   1.309   5.684   0.740  0.7609  0.6698 -0.4124
11680TIP3    H156531   1.281   5.617   0.678  0.8900  0.0842  0.1493
11680TIP3    H256532   1.230   5.735   0.758  0.9642  1.5806 -1.9248
11681TIP3   OH256533   6.792   5.852  16.579  0.2610 -0.1164 -0.2689
11681TIP3    H156534   6.740   5.929  16.553  0.8665  0.3348 -0.1460
11681TIP3    H256535   6.831   5.876  16.663  0.4065 -0.5823 -0.2000
11682TIP3   OH256536   2.753   4.308   1.081 -0.7630  0.0384  0.2924
11682TIP3    H156537   2.662   4.319   1.053 -1.4793  1.0049  2.7151
11682TIP3    H256538   2.804   4.352   1.014 -2.0584 -0.5415 -1.1366
11683TIP3   OH256539   0.395   0.480   2.762 -0.1722  0.4560 -0.0558
11683TIP3    H156540   0.427   0.538   2.831  0.1932 -1.2076  1.2485
11683TIP3    H256541   0.359   0.404   2.809  1.0731 -1.2465 -1.6778
11684TIP3   OH256542   6.700   3.138   5.358  0.4077 -0.0029 -0.2820
11684TIP3    H156543   6.706   3.056   5.310  0.1434 -0.9929  1.3050
11684TIP3    H256544   6.790   3.172   5.360  0.8597 -1.1820  0.5735
11685TIP3   OH256545   2.804   5.803  10.432  0.0023  0.5717  0.1729
11685TIP3    H156546   2.847   5.888  10.423 -0.8655  0.9780 -0.1417
11685TIP3    H256547   2.711   5.820  10.419 -0.2981 -0.2784  1.0198
11686TIP3   OH256548   1.307   4.280   1.478 -0.4598  0.2163  0.5165
11686TIP3    H156549   1.400   4.298   1.462 -0.5568 -0.1399 -0.5396
11686TIP3    H256550   1.306   4.189   1.508 -0.6295 -0.5276 -1.5879
11687TIP3   OH256551   3.321   1.106   3.845  0.1341 -0.5460 -0.0863
11687TIP3    H156552   3.369   1.108   3.927  0.5321  1.6120 -0.3070
11687TIP3    H256553   3.389   1.109   3.777 -0.1615  2.9498 -0.4017
11688TIP3   OH256554   2.069   4.683  15.127  0.3632  0.2185 -0.2523
11688TIP3    H156555   2.025   4.665  15.210 -0.0687 -1.0979 -0.7443
11688TIP3    H256556   2.091   4.597  15.092  1.8249  0.7921 -0.8392
11689TIP3   OH256557   1.898   3.460   0.050  0.0493  0.4090  0.6611
11689TIP3    H156558   1.895   3.503  -0.035  0.1304 -0.5163  0.1779
11689TIP3    H256559   1.937   3.525   0.109 -2.3576  2.0037  0.6082
11690TIP3   OH256560   3.047   0.431   4.929 -0.0545  0.0238 -0.2337
11690TIP3    H156561   3.095   0.403   5.007  0.9265  2.4066  0.0889
11690TIP3    H256562   3.054   0.357   4.869 -0.9731 -1.9557  1.9377
11691TIP3   OH256563   4.811   5.933  12.054 -0.2651  0.3193  0.4673
11691TIP3    H156564   4.816   5.859  11.993 -0.6243  0.8893 -0.2666
11691TIP3    H256565   4.898   5.938  12.093 -0.0422 -0.0713  0.0286
11692TIP3   OH256566   1.796   5.252   0.815 -0.3391 -0.2150  0.3679
11692TIP3    H156567   1.816   5.158   0.817 -1.1878 -0.3929  1.1773
11692TIP3    H256568   1.878   5.294   0.838  0.9858 -0.5630 -3.1176
11693TIP3   OH256569   6.183   0.250  11.960 -0.5833  0.2082  0.0488
11693TIP3    H156570   6.152   0.328  11.913 -0.7712 -0.2133 -0.5354
11693TIP3    H256571   6.272   0.237  11.927 -0.4283  0.3781  0.4023
11694TIP3   OH256572   3.927   6.506   2.232 -0.2970  0.3455  0.2229
11694TIP3    H156573   3.918   6.434   2.294 -0.2963  0.4684  0.3683
11694TIP3    H256574   4.010   6.547   2.254  0.1703 -0.1930 -0.4891
11695TIP3   OH256575   0.805   1.125   1.874  0.2469  0.6323  0.2267
11695TIP3    H156576   0.815   1.167   1.788 -1.3732  1.5061  0.4183
11695TIP3    H256577   0.747   1.051   1.858  1.8572 -0.6502  0.1704
11696TIP3   OH256578   5.769   2.095  11.434 -0.0567 -0.0786 -0.5335
11696TIP3    H156579   5.815   2.168  11.475 -2.6066  2.1824 -1.4101
11696TIP3    H256580   5.721   2.054  11.505 -0.7262  0.8266 -0.4505
11697TIP3   OH256581   2.260   5.117  14.886  0.0586 -0.5109  0.1800
11697TIP3    H156582   2.354   5.098  14.889  0.3908  0.9707  3.6126
11697TIP3    H256583   2.222   5.058  14.952 -1.2214 -0.0439 -0.1102
11698TIP3   OH256584   1.559   0.592  14.223  0.3181 -0.3184 -0.1299
11698TIP3    H156585   1.560   0.670  14.279  2.3101 -0.3438 -0.0705
11698TIP3    H256586   1.494   0.534  14.264  0.0659  0.5982  0.8150
11699TIP3   OH256587   1.697   1.942   6.266  0.7975 -0.3372 -0.2312
11699TIP3    H156588   1.601   1.939   6.260  0.7791  0.0605 -0.1378
11699TIP3    H256589   1.722   2.021   6.218  0.8823  1.0522  1.9336
11700TIP3   OH256590   2.687   1.293   0.769  0.4579 -0.4630  0.0720
11700TIP3    H156591   2.678   1.219   0.829  1.0989 -0.9544 -0.4258
11700TIP3    H256592   2.712   1.367   0.825  0.4253 -0.7708  0.4942
11701TIP3   OH256593   6.865   3.106  14.774 -0.2012 -0.5560  0.1025
11701TIP3    H156594   6.950   3.140  14.746  0.6783 -0.5185  2.5898
11701TIP3    H256595   6.805   3.180  14.765  0.6080  0.1971  0.7098
11702TIP3   OH256596   2.704   5.903   6.430  0.3055 -0.3406 -0.1913
11702TIP3    H156597   2.655   5.973   6.388  0.9210 -0.3586 -0.9595
11702TIP3    H256598   2.650   5.877   6.504 -2.2077 -2.1784 -2.4718
11703TIP3   OH256599   3.170   3.589   3.676  0.4837  0.1741  0.2913
11703TIP3    H156600   3.145   3.632   3.758 -0.5683  0.9419 -0.4196
11703TIP3    H256601   3.121   3.507   3.676  0.1645  0.3643  0.2370
11704TIP3   OH256602   2.287   3.027   6.131  0.3738  0.2893 -0.2662
11704TIP3    H156603   2.215   3.085   6.105 -1.1369 -1.3984 -0.0097
11704TIP3    H256604   2.244   2.945   6.157  2.5458 -1.9471 -3.1488
11705TIP3   OH256605   6.386   2.148   3.184 -0.1500  0.3829 -0.0177
11705TIP3    H156606   6.471   2.107   3.169 -0.7900 -0.8845 -0.3247
11705TIP3    H256607   6.401   2.241   3.168  0.9268  0.0427 -1.1557
11706TIP3   OH256608   4.551   0.300   3.002  0.1979 -0.0208  0.3381
11706TIP3    H156609   4.465   0.314   2.963  0.6066  0.0795 -0.5630
11706TIP3    H256610   4.561   0.204   3.005  0.4032 -0.0266 -0.3696
11707TIP3   OH256611   2.332   1.458  13.543 -0.4630  0.5313  0.2771
11707TIP3    H156612   2.397   1.388  13.536 -0.9219  0.1264 -0.0120
11707TIP3    H256613   2.292   1.445  13.629  0.6802  1.5387  0.9940
11708TIP3   OH256614   1.774   1.842  11.221 -0.1682 -0.0378 -0.0146
11708TIP3    H156615   1.680   1.855  11.214 -0.0951  2.2171  1.7929
11708TIP3    H256616   1.790   1.833  11.315  1.4163 -0.3622 -0.2856
11709TIP3   OH256617   3.019   3.948   4.608 -0.2321 -0.0129 -0.5170
11709TIP3    H156618   3.035   4.039   4.586 -2.4135  0.9401  1.3653
11709TIP3    H256619   2.923   3.940   4.609 -0.0898 -2.2848 -0.4859
11710TIP3   OH256620   3.540   0.249   6.025  0.1681  0.7747 -0.0108
11710TIP3    H156621   3.463   0.296   5.993  0.5896  1.4549 -0.0487
11710TIP3    H256622   3.597   0.317   6.061  1.8473  0.6248 -2.1846
11711TIP3   OH256623   6.267   6.388  14.875  0.1998 -0.0936 -0.2840
11711TIP3    H156624   6.331   6.381  14.946  2.3626 -0.9893 -2.1907
11711TIP3    H256625   6.277   6.307  14.825 -0.5495  0.8844 -2.1483
11712TIP3   OH256626   4.576   5.980   3.249  0.4886 -0.4948 -0.0011
11712TIP3    H156627   4.602   5.937   3.331 -0.5142 -0.1993  0.4962
11712TIP3    H256628   4.482   5.964   3.243  0.0063  1.8606  0.3751
11713TIP3   OH256629   0.744   0.685  13.041 -0.6950 -0.8874 -0.0198
11713TIP3    H156630   0.728   0.683  12.947  0.1511 -1.9231 -0.1550
11713TIP3    H256631   0.738   0.594  13.069  0.9371 -0.8532  0.5713
11714TIP3   OH256632   3.624   3.547  16.844 -0.1808  0.6865  0.6037
11714TIP3    H156633   3.604   3.523  16.753  1.7302  0.7451  0.1143
11714TIP3    H256634   3.657   3.637  16.838  2.8871 -0.2908  0.8233
11715TIP3   OH256635   1.002   5.542  14.919 -0.3312 -0.1758 -0.0062
11715TIP3    H156636   0.956   5.512  14.997 -1.2665  0.5433 -0.2562
11715TIP3    H256637   1.048   5.465  14.886 -1.3924 -0.9351  0.2434
11716TIP3   OH256638   6.484   1.887   5.492 -0.2399 -0.9493  0.2615
11716TIP3    H156639   6.495   1.910   5.584 -0.0895  0.2541 -0.0486
11716TIP3    H256640   6.431   1.957   5.455 -0.6697 -1.6441 -0.4825
11717TIP3   OH256641   0.526   1.184  15.670  0.1041 -0.3612  0.2278
11717TIP3    H156642   0.441   1.219  15.698  1.6087  4.0160  0.1738
11717TIP3    H256643   0.518   1.172  15.576 -1.4175 -3.6730  0.6410
11718TIP3   OH256644   0.455   3.348  14.247 -0.0721 -0.2141  0.7380
11718TIP3    H156645   0.443   3.407  14.172  1.8325 -0.5762  0.0944
11718TIP3    H256646   0.382   3.286  14.240 -0.3613  0.2116 -0.3638
11719TIP3   OH256647   5.081   6.353   5.580  0.1850  0.8663 -0.2256
11719TIP3    H156648   5.135   6.429   5.602  1.8980 -0.4845  0.4458
11719TIP3    H256649   5.085   6.349   5.485  2.4383  0.0693 -0.1712
11720TIP3   OH256650   6.373   2.454  12.521  0.2048 -0.1053  0.2382
11720TIP3    H156651   6.450   2.415  12.479 -0.0661  0.5307 -0.8958
11720TIP3    H256652   6.390   2.548  12.518  0.2705 -0.0486  1.7910
11721TIP3   OH256653   0.901   3.552   4.626 -0.2404 -0.0908  0.8415
11721TIP3    H156654   0.876   3.631   4.675  1.8825  0.4063  1.2004
11721TIP3    H256655   0.910   3.582   4.535 -2.3177 -0.6148  0.3966
11722TIP3   OH256656   1.658   5.821   5.560  0.0855  0.1337  0.4509
11722TIP3    H156657   1.655   5.868   5.477 -1.8679  3.6093  2.2928
11722TIP3    H256658   1.739   5.851   5.602  0.6127 -0.9302  0.2402
11723TIP3   OH256659   5.820   0.634  13.656  0.3657  0.2435  0.3555
11723TIP3    H156660   5.796   0.710  13.603  0.2833 -1.7623 -2.7611
11723TIP3    H256661   5.756   0.632  13.726 -0.5248  2.2207 -0.3259
11724TIP3   OH256662   1.870   5.792   2.549 -0.3756  0.7216 -0.2016
11724TIP3    H156663   1.954   5.772   2.507 -0.3370 -0.6234  0.4793
11724TIP3    H256664   1.884   5.877   2.592  1.5758 -0.7093  2.2363
11725TIP3   OH256665   1.555   4.053  10.520 -0.2451  0.6741  0.2796
11725TIP3    H156666   1.534   4.084  10.432 -2.2086 -1.6759 -0.1836
11725TIP3    H256667   1.645   4.021  10.513  0.4286  2.5189 -0.2140
11726TIP3   OH256668   4.356   4.549   3.704 -0.2175  0.2307  0.1469
11726TIP3    H156669   4.302   4.594   3.639 -0.7713  2.6981  2.1347
11726TIP3    H256670   4.445   4.577   3.685 -0.4280  1.3221  0.6447
11727TIP3   OH256671   3.524   0.680   1.955 -0.1698  0.5502  0.5680
11727TIP3    H156672   3.546   0.649   1.867 -0.3799 -0.0982  0.7427
11727TIP3    H256673   3.537   0.604   2.012 -0.6127  0.8035  1.0160
11728TIP3   OH256674   0.606   5.892  13.462 -0.1883 -0.0698 -0.1181
11728TIP3    H156675   0.560   5.936  13.390  0.4742  1.1510  0.1700
11728TIP3    H256676   0.697   5.920  13.452  0.2016 -1.1397  0.2884
11729TIP3   OH256677   6.772   6.540   5.770 -0.0885 -0.2524  0.1773
11729TIP3    H156678   6.837   6.608   5.788 -1.5790  1.4651 -0.7518
11729TIP3    H256679   6.721   6.534   5.851 -0.4272  0.2988  0.0120
11730TIP3   OH256680   5.759   2.886  16.067 -0.6163  0.2143 -0.3876
11730TIP3    H156681   5.700   2.825  16.023 -1.3960  1.0035 -0.4677
11730TIP3    H256682   5.767   2.852  16.156 -1.2463  0.1351 -0.3607
11731TIP3   OH256683   4.526   4.073  12.474 -0.7125 -0.4778  0.1962
11731TIP3    H156684   4.614   4.057  12.440 -0.6003  0.6148 -0.0695
11731TIP3    H256685   4.468   4.028  12.413 -0.2780 -3.4388  1.7881
11732TIP3   OH256686   2.161   3.920  14.271 -0.6496 -0.0517 -0.3279
11732TIP3    H156687   2.175   3.985  14.340  2.4017 -0.9157  0.0234
11732TIP3    H256688   2.161   3.836  14.317  0.5504 -0.5847 -1.2496
11733TIP3   OH256689   3.571   4.168   3.683 -0.0150  0.5259 -0.0079
11733TIP3    H156690   3.562   4.263   3.698 -1.9999  0.3287  0.3439
11733TIP3    H256691   3.581   4.131   3.771 -0.2731  0.3363 -0.0560
11734TIP3   OH256692   6.672   6.047  13.649  0.3985  0.1472 -0.1895
11734TIP3    H156693   6.691   6.061  13.742 -2.7082  2.3063  0.2736
11734TIP3    H256694   6.725   6.112  13.603 -0.9706  1.8052  0.4905
11735TIP3   OH256695   0.486   1.765   1.270 -0.6542  0.1374  0.5159
11735TIP3    H156696   0.544   1.838   1.292  0.1393 -0.0073 -0.9363
11735TIP3    H256697   0.476   1.770   1.175 -0.8279 -1.4590  0.4184
11736TIP3   OH256698   6.253   4.193   2.613  0.6030  0.1556 -0.2170
11736TIP3    H156699   6.314   4.258   2.578  0.9869  0.4269  0.9160
11736TIP3    H256700   6.172   4.242   2.627  0.5580  0.1320 -0.3948
11737TIP3   OH256701   4.207   6.530   1.750 -0.1301 -0.4549  0.0140
11737TIP3    H156702   4.136   6.482   1.707 -0.5205  0.3821 -0.3087
11737TIP3    H256703   4.257   6.568   1.678 -0.4275  0.4500  0.2757
11738TIP3   OH256704   4.035   1.273   3.247  0.4591 -0.6553 -0.2616
11738TIP3    H156705   3.967   1.283   3.314  1.0638  0.5957  0.1959
11738TIP3    H256706   4.087   1.198   3.277  0.6939 -0.1433  0.6446
11739TIP3   OH256707   6.434   0.672   3.745  0.2601  0.2660  0.0569
11739TIP3    H156708   6.458   0.755   3.787  0.4257  0.1640  0.1633
11739TIP3    H256709   6.397   0.619   3.816  1.7055 -0.3862  0.3582
11740TIP3   OH256710   5.786   0.302   0.195  0.3030  0.0924  0.6238
11740TIP3    H156711   5.781   0.387   0.151  1.7722  0.4280  1.0244
11740TIP3    H256712   5.696   0.279   0.216 -0.0540  1.9969  1.3338
11741TIP3   OH256713   6.751   0.997   3.814  0.2610  0.0957 -0.6260
11741TIP3    H156714   6.660   0.966   3.820  0.3028  0.1384  0.4152
11741TIP3    H256715   6.745   1.091   3.829  0.6710 -0.1848  1.6968
11742TIP3   OH256716   3.669   4.117  11.987 -0.7137  0.2591  0.3999
11742TIP3    H156717   3.724   4.097  12.063 -0.5782 -1.1258 -0.0444
11742TIP3    H256718   3.611   4.041  11.978 -0.3228  0.1264 -1.2455
11743TIP3   OH256719   5.558   5.714   2.543  0.0042 -0.3362  0.3153
11743TIP3    H156720   5.485   5.653   2.557 -0.7280  1.0900  3.4253
11743TIP3    H256721   5.602   5.719   2.628  1.1296  2.0900 -0.3369
11744TIP3   OH256722   0.043   3.031   1.391 -0.3256 -0.3787  0.4837
11744TIP3    H156723   0.092   3.113   1.395 -2.5804  1.2763 -1.9749
11744TIP3    H256724   0.018   3.013   1.482 -1.7463  3.0356  0.9282
11745TIP3   OH256725   6.073   1.601  14.556  0.3104 -0.2948  0.4224
11745TIP3    H156726   6.091   1.613  14.649 -1.0431  1.1656  0.5343
11745TIP3    H256727   6.153   1.632  14.512  0.5964 -0.1089  1.0703
11746TIP3   OH256728   4.091   6.202  15.946 -0.5099 -0.4436 -0.0522
11746TIP3    H156729   4.032   6.277  15.949 -1.0174 -0.8662  1.2410
11746TIP3    H256730   4.175   6.239  15.918 -0.5563  0.7668  1.2870
11747TIP3   OH256731   2.565   5.509  13.078  0.3654 -0.0525  0.4688
11747TIP3    H156732   2.547   5.441  13.012  0.9647 -0.0344  0.2874
11747TIP3    H256733   2.486   5.564  13.077 -0.0763 -0.6826  0.5413
11748TIP3   OH256734   5.309   4.998  16.075  0.4053 -0.3996  0.2446
11748TIP3    H156735   5.243   4.989  16.144 -2.1423 -0.2250 -2.0139
11748TIP3    H256736   5.295   4.923  16.017  1.3933  0.2884 -0.9437
11749TIP3   OH256737   1.690   0.885  12.752 -0.0531 -0.4826 -0.4807
11749TIP3    H156738   1.649   0.907  12.668 -0.4381  0.3906 -0.0767
11749TIP3    H256739   1.669   0.959  12.809 -1.1275 -1.7336  0.8465
11750TIP3   OH256740   2.940   4.915  17.009  0.7739  0.0087  0.0072
11750TIP3    H156741   2.954   4.883  17.098 -0.3262 -1.2932 -0.2636
11750TIP3    H256742   2.920   4.836  16.958 -0.5580  0.9578 -0.9901
11751TIP3   OH256743   2.606   2.089   5.239  0.0748 -0.1796  0.0727
11751TIP3    H156744   2.570   2.135   5.316 -1.3377 -1.2484  0.0796
11751TIP3    H256745   2.697   2.073   5.262 -0.0224  0.5327  1.0408
11752TIP3   OH256746   0.340   2.646   0.314  0.0169  0.1521 -1.0892
11752TIP3    H156747   0.356   2.722   0.259 -0.0544  0.1130 -1.1648
11752TIP3    H256748   0.374   2.670   0.400 -0.9678  0.6642 -0.8357
11753TIP3   OH256749   5.600   5.955  15.979  0.2493 -0.0511  0.5410
11753TIP3    H156750   5.506   5.958  15.997  0.2767  0.8925  0.5856
11753TIP3    H256751   5.636   6.030  16.027  0.8730  0.2155 -0.3110
11754TIP3   OH256752   6.026   3.658  11.565 -0.0543  0.0947 -0.0175
11754TIP3    H156753   5.937   3.670  11.532 -0.4064 -1.3028  0.3788
11754TIP3    H256754   6.029   3.567  11.595  1.3738  0.2513  0.3903
11755TIP3   OH256755   5.658   1.650   2.503  0.2531  0.0349  0.2027
11755TIP3    H156756   5.697   1.707   2.437  0.2525  0.0462  0.2122
11755TIP3    H256757   5.714   1.661   2.580 -0.1290  0.5237  0.4106
11756TIP3   OH256758   1.042   5.435  14.215  0.2232 -0.1450  0.2807
11756TIP3    H156759   1.071   5.492  14.286 -0.1476  1.1336 -0.5734
11756TIP3    H256760   1.083   5.350  14.235  2.8567  1.0222  0.2651
11757TIP3   OH256761   2.320   6.347   1.177  0.0462  0.4222 -0.5807
11757TIP3    H156762   2.246   6.310   1.225 -0.0555  1.2654 -0.0599
11757TIP3    H256763   2.378   6.273   1.160  1.0931  0.3774  2.6468
11758TIP3   OH256764   0.226   6.319  13.213  0.4375 -0.0616  0.0179
11758TIP3    H156765   0.163   6.350  13.278 -0.3977 -1.0141 -0.3143
11758TIP3    H256766   0.311   6.344  13.249 -0.1245  1.5945  0.2776
11759TIP3   OH256767   5.048   5.215  15.912  0.2099 -0.0092 -0.0635
11759TIP3    H156768   4.964   5.173  15.891 -0.0532  0.5458 -0.1499
11759TIP3    H256769   5.107   5.188  15.841 -0.1827  0.4157 -0.5639
11760TIP3   OH256770   5.025   4.783   0.149  0.1723  0.2265 -0.5203
11760TIP3    H156771   4.976   4.847   0.098  0.2621  1.1920  0.5721
11760TIP3    H256772   5.096   4.833   0.189  0.8001 -0.7416 -0.3904
11761TIP3   OH256773   6.108   3.098   5.026  0.0663 -0.2401  0.6270
11761TIP3    H156774   6.056   3.020   5.007 -0.0987  0.2768 -1.1413
11761TIP3    H256775   6.070   3.132   5.107 -0.7483 -1.2267  0.6910
11762TIP3   OH256776   3.243   1.463  14.214  0.4261  0.1231  0.2345
11762TIP3    H156777   3.183   1.536  14.228  1.4277  0.8443  0.9530
11762TIP3    H256778   3.247   1.453  14.119 -1.0336 -0.1340  0.1772
11763TIP3   OH256779   1.019   6.753  14.962 -0.3228  0.6163  0.2931
11763TIP3    H156780   1.059   6.733  15.047 -0.1156  1.0116  0.2857
11763TIP3    H256781   0.963   6.829  14.978 -1.8094 -0.4597  0.5195
11764TIP3   OH256782   6.299   0.802   4.954  0.2616 -0.1676 -0.4645
11764TIP3    H156783   6.221   0.829   4.906  0.6742  2.0371 -0.0304
11764TIP3    H256784   6.277   0.819   5.046  1.3160  0.7723 -0.3620
11765TIP3   OH256785   3.093   0.521   0.981 -0.0379  0.2613  0.2349
11765TIP3    H156786   3.139   0.580   0.922  1.9386  0.0177  1.4224
11765TIP3    H256787   3.056   0.453   0.924  3.8513 -1.3616 -0.7128
11766TIP3   OH256788   4.716   2.645   5.046 -0.1998 -0.0429 -0.2768
11766TIP3    H156789   4.737   2.686   4.962 -1.5889  0.9666 -0.1748
11766TIP3    H256790   4.750   2.707   5.111 -0.1051 -0.2833 -0.0962
11767TIP3   OH256791   1.563   3.346   6.528 -0.0800  0.4523  0.6830
11767TIP3    H156792   1.499   3.396   6.478 -0.8544 -0.2047  0.9851
11767TIP3    H256793   1.619   3.412   6.568 -1.0629  1.0939  1.0476
11768TIP3   OH256794   5.465   4.562   2.163 -0.0956 -0.0134  0.0212
11768TIP3    H156795   5.400   4.549   2.093  0.5229 -0.2760 -0.5219
11768TIP3    H256796   5.474   4.476   2.204 -0.4601  0.1414  0.4304
11769TIP3   OH256797   1.650   5.864  12.645  0.7698 -0.2660 -0.1156
11769TIP3    H156798   1.710   5.801  12.605  2.7448  0.2178  1.8868
11769TIP3    H256799   1.575   5.867  12.586  1.7995 -2.4600 -1.6588
11770TIP3   OH256800   0.463   1.708  11.409  0.0476  0.2009 -0.2582
11770TIP3    H156801   0.496   1.758  11.484 -1.5584  0.6093  0.2028
11770TIP3    H256802   0.454   1.618  11.442 -0.6786  0.3842  0.0676
11771TIP3   OH256803   3.823   6.056  14.849  0.3896  0.5116  0.5087
11771TIP3    H156804   3.734   6.082  14.824 -0.0337  0.3667  1.8211
11771TIP3    H256805   3.856   6.130  14.900  0.4571 -0.0680  1.3149
11772TIP3   OH256806   4.136   4.895   6.173  0.2532  0.2841  0.1332
11772TIP3    H156807   4.116   4.845   6.253  0.9342 -1.4788 -0.7445
11772TIP3    H256808   4.218   4.941   6.194  1.2186 -1.2977  0.0276
11773TIP3   OH256809   3.799   2.697   3.072  0.1664  1.0168  0.3764
11773TIP3    H156810   3.830   2.668   3.158 -0.7089 -1.8444 -0.1780
11773TIP3    H256811   3.824   2.626   3.012 -0.4818  2.2972 -1.4910
11774TIP3   OH256812   0.955   5.030   3.436 -0.3516  0.0718 -0.2899
11774TIP3    H156813   0.979   4.963   3.500 -1.5123  0.2782  0.3781
11774TIP3    H256814   0.861   5.042   3.447 -0.3821  0.8885 -1.2969
11775TIP3   OH256815   4.523   5.444  15.909 -0.0302 -0.3595 -0.2826
11775TIP3    H156816   4.499   5.534  15.887  1.9407  0.2716 -0.1194
11775TIP3    H256817   4.500   5.434  16.001 -0.8559 -0.2518 -0.4729
11776TIP3   OH256818   0.470   3.876  16.500 -0.2817  0.1787 -0.2936
11776TIP3    H156819   0.507   3.875  16.588  2.3979 -0.1888 -1.3591
11776TIP3    H256820   0.426   3.792  16.491 -0.7378  0.2925  0.7202
11777TIP3   OH256821   1.533   3.921  11.279  0.4570  0.0196 -0.4964
11777TIP3    H156822   1.509   3.848  11.337 -0.2766  1.0100  0.5009
11777TIP3    H256823   1.527   3.884  11.191 -0.3697 -1.0077 -0.0426
11778TIP3   OH256824   3.577   5.403  11.673  0.1987  0.1369  0.1015
11778TIP3    H156825   3.591   5.309  11.687  0.3613 -0.1737 -1.8592
11778TIP3    H256826   3.628   5.424  11.595 -0.5483  1.6685 -0.0208
11779TIP3   OH256827   2.302   4.915   3.209  0.1804 -0.0139 -0.1072
11779TIP3    H156828   2.340   4.852   3.270 -1.2440 -0.6958  0.1185
11779TIP3    H256829   2.364   4.919   3.137  1.3512 -0.0357  0.8611
11780TIP3   OH256830   0.237   2.132  12.130 -0.0457 -0.0646 -0.1173
11780TIP3    H156831   0.319   2.166  12.095 -1.2133  2.7981 -0.3076
11780TIP3    H256832   0.264   2.059  12.186  2.6121  0.6857 -0.2576
11781TIP3   OH256833   0.309   2.678  13.683  0.3898 -0.9538 -0.3070
11781TIP3    H156834   0.398   2.679  13.648  0.9389 -1.4122  1.0178
11781TIP3    H256835   0.276   2.766  13.665  1.1442 -0.7358 -0.7060
11782TIP3   OH256836   3.292   4.295   5.211  0.1154 -0.0548 -0.4113
11782TIP3    H156837   3.372   4.346   5.219  1.3437 -1.8430 -0.5260
11782TIP3    H256838   3.321   4.204   5.225 -2.0104 -0.6940  0.2100
11783TIP3   OH256839   3.023   2.496   4.705  0.0593  0.3448 -0.1869
11783TIP3    H156840   3.058   2.549   4.633  0.0360  0.1388 -0.3519
11783TIP3    H256841   2.943   2.541   4.731  0.8997  1.3291  0.8019
11784TIP3   OH256842   3.244   5.398  11.575  0.2714 -0.7556  0.3240
11784TIP3    H156843   3.272   5.379  11.485 -0.8098  0.9679 -0.4236
11784TIP3    H256844   3.282   5.483  11.594 -1.9660  0.3178  0.3308
11785TIP3   OH256845   5.926   1.162   5.080 -0.2787  0.1306 -0.1612
11785TIP3    H156846   5.985   1.214   5.024 -0.7362  0.9925  0.1357
11785TIP3    H256847   5.841   1.204   5.069 -0.3009  0.5648  1.4848
11786TIP3   OH256848   5.343   0.486  12.197  0.5409 -0.1300  0.0858
11786TIP3    H156849   5.387   0.562  12.159 -2.0198  1.6938  0.4879
11786TIP3    H256850   5.318   0.515  12.285 -1.8743 -0.8028 -0.3181
11787TIP3   OH256851   3.751   5.087  14.981  0.0550  0.0675 -0.2449
11787TIP3    H156852   3.747   5.078  15.076 -0.6029 -2.1608 -0.4378
11787TIP3    H256853   3.831   5.137  14.965  0.8635 -0.6184  1.4316
11788TIP3   OH256854   0.308   3.195   2.507 -0.1293  0.2752  0.5091
11788TIP3    H156855   0.355   3.260   2.559 -1.2298  0.8000  0.8743
11788TIP3    H256856   0.224   3.185   2.552  0.0308 -1.4329  0.4832
11789TIP3   OH256857   0.836   2.925   3.812  0.3016 -0.5694 -0.2643
11789TIP3    H156858   0.858   2.944   3.721 -0.1182  1.6139  0.0238
11789TIP3    H256859   0.740   2.933   3.816  0.3174 -0.6076  0.3610
11790TIP3   OH256860   1.009   1.779  10.917 -0.1315 -0.4089  0.3034
11790TIP3    H156861   0.955   1.755  10.991  1.0156 -1.6275  0.7797
11790TIP3    H256862   1.051   1.861  10.943 -0.4808 -0.3223  0.5941
11791TIP3   OH256863   5.297   3.736  15.855 -0.1884 -0.2799 -0.2613
11791TIP3    H156864   5.245   3.779  15.787  1.3109  0.5692 -0.9398
11791TIP3    H256865   5.234   3.689  15.908 -1.6883  1.1407 -0.7103
11792TIP3   OH256866   1.319   4.598   0.352  0.1281 -1.0562  0.0986
11792TIP3    H156867   1.243   4.622   0.405  0.7640  0.9659  0.1766
11792TIP3    H256868   1.389   4.583   0.415  0.4184 -0.4484 -0.0721
11793TIP3   OH256869   0.221   6.412  12.953 -0.2334  0.4683  0.0927
11793TIP3    H156870   0.215   6.375  13.041  0.5143 -2.2013 -0.8550
11793TIP3    H256871   0.314   6.432  12.942 -0.2648  0.4525 -0.2085
11794TIP3   OH256872   6.080   3.522  15.955  0.6610  0.2976 -0.1690
11794TIP3    H156873   5.994   3.531  15.914  0.0174 -0.2299  0.9806
11794TIP3    H256874   6.103   3.430  15.941  1.0820  0.4621 -0.5536
11795TIP3   OH256875   3.899   6.434  10.904  0.0956 -0.0700 -1.4164
11795TIP3    H156876   3.924   6.440  10.812  1.9026 -0.8263 -1.0294
11795TIP3    H256877   3.948   6.358  10.937 -0.3133  0.3325  0.2261
11796TIP3   OH256878   6.661   2.875   1.604 -0.0411 -0.2019 -0.2433
11796TIP3    H156879   6.634   2.960   1.569 -1.3723 -0.5218 -0.0691
11796TIP3    H256880   6.756   2.880   1.611 -0.0364  0.9835 -0.9746
11797TIP3   OH256881   3.924   3.933   3.748 -0.0092  0.7610 -0.7405
11797TIP3    H156882   3.883   4.006   3.701  3.2468  2.0592 -1.8474
11797TIP3    H256883   3.865   3.859   3.732 -0.9215  1.9671 -3.9254
11798TIP3   OH256884   5.978   1.697  16.317 -0.0740 -0.9821 -0.5022
11798TIP3    H156885   6.014   1.786  16.311  0.2684 -1.0159  0.6395
11798TIP3    H256886   6.049   1.641  16.285 -0.4158 -0.8281 -1.5448
11799TIP3   OH256887   2.974   0.808   1.124  0.8547 -0.1681 -0.2812
11799TIP3    H156888   2.925   0.726   1.132 -1.0088  0.9870  1.0774
11799TIP3    H256889   3.034   0.793   1.051 -0.3486 -2.2782 -0.9387
11800TIP3   OH256890   5.490   2.759  13.862  0.4153 -0.3276  0.1942
11800TIP3    H156891   5.403   2.736  13.897  0.6816 -1.1744  0.3235
11800TIP3    H256892   5.523   2.825  13.923 -0.1452  0.0266  0.1268
11801TIP3   OH256893   6.255   4.882  11.678 -0.0913 -0.1378 -0.0015
11801TIP3    H156894   6.162   4.885  11.703 -0.4949  0.6137 -1.4620
11801TIP3    H256895   6.287   4.800  11.715 -1.1266 -0.0514  1.1853
11802TIP3   OH256896   3.356   2.284   1.464 -0.5427 -0.2811  0.2748
11802TIP3    H156897   3.287   2.324   1.411 -1.6826 -2.2449  0.1664
11802TIP3    H256898   3.437   2.322   1.430 -1.2102 -1.3074 -2.8647
11803TIP3   OH256899   3.687   5.178   5.110  0.2147 -0.0519  0.2717
11803TIP3    H156900   3.714   5.227   5.033 -0.5801 -0.4140 -0.2509
11803TIP3    H256901   3.679   5.087   5.079  0.2811 -0.2724  0.8772
11804TIP3   OH256902   0.375   3.552   6.092  0.3268 -0.0650  0.3939
11804TIP3    H156903   0.286   3.541   6.127 -0.7042  0.3630 -1.8813
11804TIP3    H256904   0.431   3.507   6.155 -1.6222 -1.3416  1.3338
11805TIP3   OH256905   1.372   5.228  16.363  0.0255 -0.0474 -0.1260
11805TIP3    H156906   1.416   5.250  16.444  0.3491 -1.9371  0.2509
11805TIP3    H256907   1.335   5.141  16.378 -5.3832  1.9194  0.2184
11806TIP3   OH256908   5.706   3.826   0.037 -0.3591 -0.3031  0.0483
11806TIP3    H156909   5.760   3.820   0.116 -0.8951  0.3490  0.4698
11806TIP3    H256910   5.656   3.906   0.047 -2.5202 -1.6032  0.3792
11807TIP3   OH256911   4.398   3.527  12.271  0.2353 -0.5682 -0.4619
11807TIP3    H156912   4.468   3.502  12.211  1.3979  1.1036  0.1435
11807TIP3    H256913   4.439   3.529  12.357 -0.8579 -0.6739  0.0884
11808TIP3   OH256914   2.980   1.847   2.626 -0.2332  0.1519  0.1397
11808TIP3    H156915   2.905   1.815   2.576 -0.2590  0.1845  0.1577
11808TIP3    H256916   3.028   1.902   2.564 -0.8857  1.1402  0.4724
11809TIP3   OH256917   0.817   0.931  11.692 -0.9088 -0.0401  0.2405
11809TIP3    H156918   0.813   0.919  11.787 -0.4106  1.1734  0.4408
11809TIP3    H256919   0.761   0.862  11.656 -1.3433 -0.3289  1.4277
11810TIP3   OH256920   0.131   4.756  13.629 -0.1107 -0.8422  0.1197
11810TIP3    H156921   0.206   4.813  13.644 -0.0090 -0.0459 -2.8082
11810TIP3    H256922   0.167   4.667  13.638  2.0614 -0.6005 -3.8711
11811TIP3   OH256923   1.524   5.897   4.384  0.2779  0.5559 -0.0869
11811TIP3    H156924   1.593   5.867   4.324  1.5584  0.8337  1.1853
11811TIP3    H256925   1.464   5.822   4.391  1.8437 -0.6877  0.7576
11812TIP3   OH256926   4.007   4.766   1.139  0.0286 -0.1527 -0.3448
11812TIP3    H156927   3.968   4.830   1.198  0.1664 -0.9999  0.6895
11812TIP3    H256928   4.098   4.794   1.129  0.2320 -0.4661  0.5359
11813TIP3   OH256929   0.881   1.437  13.501  0.6935  0.7661  0.0556
11813TIP3    H156930   0.874   1.468  13.591 -0.7303  0.3651  0.0977
11813TIP3    H256931   0.833   1.501  13.450  0.2107  0.1853 -0.2226
11814TIP3   OH256932   5.261   4.200  14.797 -0.1418  0.1742  0.7210
11814TIP3    H156933   5.306   4.169  14.875  0.2824  0.7548  0.7090
11814TIP3    H256934   5.187   4.139  14.786 -0.6828  0.5702  2.0320
11815TIP3   OH256935   0.368   2.924  11.440 -1.0823 -0.0308  0.4957
11815TIP3    H156936   0.321   2.999  11.404 -0.5028  1.3003  2.3411
11815TIP3    H256937   0.329   2.848  11.396 -1.2071  1.3451 -1.9673
11816TIP3   OH256938   1.124   4.181   5.748  0.5322 -0.5139 -0.4105
11816TIP3    H156939   1.146   4.188   5.655 -0.2956 -1.0375 -0.6580
11816TIP3    H256940   1.050   4.121   5.750  0.0714  0.0739  0.5287
11817TIP3   OH256941   6.033   2.485  16.253  0.0780 -0.3184 -0.1103
11817TIP3    H156942   6.126   2.465  16.269  0.1130  1.2713  2.1656
11817TIP3    H256943   6.033   2.540  16.175  0.7900 -1.9289 -1.3169
11818TIP3   OH256944   5.971   2.336   6.260 -0.4269  0.7415 -0.1124
11818TIP3    H156945   5.997   2.247   6.236 -0.7024  0.6926 -0.2363
11818TIP3    H256946   5.983   2.339   6.355 -0.9775  0.3802 -0.0280
11819TIP3   OH256947   5.072   4.242   6.440 -0.0814 -0.5273 -0.2976
11819TIP3    H156948   5.126   4.321   6.439 -0.6914 -0.1031  0.0407
11819TIP3    H256949   4.983   4.273   6.458 -0.6247 -1.1078 -1.7840
11820TIP3   OH256950   5.861   1.591  16.538 -0.3836  0.3749 -0.3301
11820TIP3    H156951   5.904   1.629  16.461 -1.7472  0.2769 -1.1781
11820TIP3    H256952   5.851   1.498  16.516  0.1176  0.1435  0.4008
11821TIP3   OH256953   6.364   5.345   3.748 -0.2970 -0.3214  0.5421
11821TIP3    H156954   6.394   5.414   3.807 -0.9487 -0.6625  1.3048
11821TIP3    H256955   6.278   5.375   3.717  0.7955  0.7016 -1.7116
11822TIP3   OH256956   2.420   1.888  11.932 -0.0504 -0.4725  0.5560
11822TIP3    H156957   2.356   1.937  11.879 -0.5102 -1.4273  0.1900
11822TIP3    H256958   2.410   1.922  12.020 -4.0205 -3.2375  1.4458
11823TIP3   OH256959   2.742   3.806  15.234 -0.4545 -0.7019 -0.5353
11823TIP3    H156960   2.788   3.777  15.313 -0.4476  1.0870  0.1628
11823TIP3    H256961   2.790   3.765  15.162  0.2395 -1.4576  0.3294
11824TIP3   OH256962   5.223   1.106   2.929 -0.1060  0.0773 -0.3758
11824TIP3    H156963   5.221   1.169   2.858 -2.2788  1.8004  1.0764
11824TIP3    H256964   5.301   1.129   2.980  0.0849  0.4399 -0.8278
11825TIP3   OH256965   3.959   4.592   2.618 -0.0315 -0.1957  0.8800
11825TIP3    H156966   4.023   4.548   2.562  0.9899  2.2003  0.0203
11825TIP3    H256967   3.967   4.549   2.703  0.7583 -1.7327  0.0600
11826TIP3   OH256968   2.240   0.981  10.717 -0.0382  0.1356 -0.2612
11826TIP3    H156969   2.268   0.890  10.717 -0.2417  0.0718 -0.0977
11826TIP3    H256970   2.286   1.021  10.790 -1.8359 -0.4345  1.2618
11827TIP3   OH256971   1.009   6.239  11.708  0.0858 -0.5880 -0.1810
11827TIP3    H156972   1.055   6.285  11.778 -0.3637 -0.6644  0.1742
11827TIP3    H256973   0.992   6.305  11.641  1.8493 -0.8335 -0.9159
11828TIP3   OH256974   6.102   4.367   2.013  0.1118 -0.1072 -0.1066
11828TIP3    H156975   6.055   4.449   1.999 -0.4352 -0.4752 -0.4558
11828TIP3    H256976   6.087   4.317   1.933 -0.0815 -0.7994  0.3551
11829TIP3   OH256977   0.710   4.101   1.349 -0.1255 -0.4235 -0.0613
11829TIP3    H156978   0.777   4.109   1.281 -1.4246  1.1440 -1.2560
11829TIP3    H256979   0.663   4.184   1.345 -0.1089 -0.1903  2.9608
11830TIP3   OH256980   1.924   3.575  15.988 -0.4583  0.2028  0.1643
11830TIP3    H156981   1.931   3.488  15.949 -1.0949  0.0178  0.4526
11830TIP3    H256982   1.968   3.567  16.073 -0.9539  0.0259  0.4060
11831TIP3   OH256983   6.066   2.306   5.471  0.4257 -0.4975 -0.3539
11831TIP3    H156984   6.008   2.383   5.470 -1.8806 -2.0920  0.8447
11831TIP3    H256985   6.033   2.253   5.543  1.6867 -2.8019 -1.3732
11832TIP3   OH256986   0.185   6.567  15.302  0.3204 -0.1467  0.4594
11832TIP3    H156987   0.206   6.647  15.351  2.4030 -1.3330  1.7049
11832TIP3    H256988   0.270   6.538  15.267 -0.8434 -0.2797 -2.4978
11833TIP3   OH256989   5.202   0.247   4.038 -0.1909 -0.3247  0.4612
11833TIP3    H156990   5.108   0.237   4.025 -0.1597 -0.0980  0.0567
11833TIP3    H256991   5.241   0.189   3.972 -0.0475 -1.2994  1.3650
11834TIP3   OH256992   2.069   4.898   2.965 -0.4532  0.0593 -0.5201
11834TIP3    H156993   2.097   4.810   2.990 -0.4976 -0.4029 -1.9758
11834TIP3    H256994   2.148   4.941   2.933 -0.2801  0.8374  0.8623
11835TIP3   OH256995   5.472   0.473  14.667 -0.1189 -0.4588 -0.0197
11835TIP3    H156996   5.537   0.524  14.716  1.6323 -1.2465 -1.4124
11835TIP3    H256997   5.495   0.382  14.683 -0.8316 -0.7582 -0.6256
11836TIP3   OH256998   4.236   2.770  16.026 -0.5087 -0.1834  0.0429
11836TIP3    H156999   4.293   2.715  15.972  0.2729  1.4871 -0.9235
11836TIP3    H257000   4.172   2.709  16.063 -0.0914 -1.6426 -1.4937
11837TIP3   OH257001   1.728   2.928   1.393  0.1333  0.3017 -0.5440
11837TIP3    H157002   1.794   2.892   1.333  0.7541  0.7037 -0.1180
11837TIP3    H257003   1.758   2.901   1.480 -0.1483  0.6675 -0.3320
11838TIP3   OH257004   3.296   2.249   3.850  0.5090 -0.0995 -0.1535
11838TIP3    H157005   3.284   2.167   3.896  1.1412 -0.1815 -0.1206
11838TIP3    H257006   3.384   2.243   3.812  0.4687  0.4555 -0.3552
11839TIP3   OH257007   3.750   4.167   5.760  0.3519 -0.1371  0.0866
11839TIP3    H157008   3.789   4.223   5.694 -0.0112  0.4925  0.3990
11839TIP3    H257009   3.661   4.200   5.771  0.1116 -0.8073  0.2378
11840TIP3   OH257010   6.426   2.309   1.451  0.4788  0.1043  0.1514
11840TIP3    H157011   6.373   2.299   1.531 -0.6843  0.0491 -0.6053
11840TIP3    H257012   6.506   2.353   1.481  1.5426 -2.7694  1.9369
11841TIP3   OH257013   1.166   6.576   3.675  0.6365  0.5372 -0.2734
11841TIP3    H157014   1.195   6.627   3.599  1.8888 -0.3279 -0.4034
11841TIP3    H257015   1.146   6.490   3.639 -1.9023  0.9908 -0.1342
11842TIP3   OH257016   0.164   3.066  16.333  0.1598  0.6919 -1.0435
11842TIP3    H157017   0.137   3.129  16.400 -0.0067  0.2476 -0.6905
11842TIP3    H257018   0.139   2.981  16.368 -0.5591  0.5044 -1.9778
11843TIP3   OH257019   6.075   0.313  12.683  0.1063  0.1895 -0.4697
11843TIP3    H157020   6.076   0.406  12.660 -3.0103  0.7375  1.0619
11843TIP3    H257021   6.049   0.268  12.603 -2.6347  1.1891 -0.2399
11844TIP3   OH257022   1.766   5.258  14.139 -0.6949  0.5960 -0.1578
11844TIP3    H157023   1.729   5.255  14.227  0.1361  0.4336  0.1960
11844TIP3    H257024   1.833   5.189  14.139  1.3236  2.4571  0.0151
11845TIP3   OH257025   5.201   3.068  14.450 -0.1958 -0.0786  0.0146
11845TIP3    H157026   5.120   3.103  14.413  0.4301 -0.4304 -1.8058
11845TIP3    H257027   5.262   3.141  14.448  0.6564 -0.7801 -2.3407
11846TIP3   OH257028   5.298   1.243  12.079  0.4052 -0.0627  0.4305
11846TIP3    H157029   5.373   1.203  12.123  1.3771  1.7080  0.4909
11846TIP3    H257030   5.307   1.216  11.987 -0.5535 -2.1993  0.9104
11847TIP3   OH257031   4.482   0.700  13.073 -0.2536  0.1598  0.1686
11847TIP3    H157032   4.503   0.794  13.073 -0.4615  0.2408 -1.3024
11847TIP3    H257033   4.536   0.664  13.003 -1.2489 -0.5319 -0.2759
11848TIP3   OH257034   5.105   2.674   2.318 -0.3339  0.1364 -0.3068
11848TIP3    H157035   5.178   2.736   2.320  0.4905 -0.7347 -1.9182
11848TIP3    H257036   5.098   2.642   2.408  0.0602  1.5828  0.2652
11849TIP3   OH257037   4.992   2.463   4.189 -0.8701  0.6107  0.0613
11849TIP3    H157038   4.986   2.378   4.144 -1.5724  1.7613 -2.2050
11849TIP3    H257039   4.906   2.502   4.178 -0.5988  1.5923  1.1772
11850TIP3   OH257040   0.842   5.284  11.685  0.1575  0.5981 -0.2339
11850TIP3    H157041   0.926   5.257  11.722  0.2687 -0.5572 -1.2661
11850TIP3    H257042   0.860   5.298  11.592 -1.0525 -1.0356 -0.7583
11851TIP3   OH257043   5.909   0.391   0.961  0.0323  0.3722  0.3006
11851TIP3    H157044   5.874   0.414   1.047  2.3824  0.2199  1.3980
11851TIP3    H257045   5.960   0.312   0.976  0.7633  0.5311 -1.1491
11852TIP3   OH257046   0.265   4.299  13.278  0.3459 -0.1712 -0.1214
11852TIP3    H157047   0.278   4.232  13.345 -0.1045 -0.2570 -0.1107
11852TIP3    H257048   0.348   4.346  13.273  0.4646 -0.3315  0.3121
11853TIP3   OH257049   1.766   2.821  13.872  0.0694  0.8174 -0.7363
11853TIP3    H157050   1.835   2.864  13.922  0.0692 -1.0057  0.8955
11853TIP3    H257051   1.685   2.847  13.916 -0.0879  0.8162 -1.0227
11854TIP3   OH257052   1.567   3.750   6.266 -0.4753  0.0730 -0.1121
11854TIP3    H157053   1.566   3.660   6.235 -0.6502  0.0837 -0.1360
11854TIP3    H257054   1.482   3.762   6.308 -0.5956  0.3429 -0.4321
11855TIP3   OH257055   5.869   1.847  12.918 -0.2958 -0.0951 -0.1962
11855TIP3    H157056   5.773   1.849  12.908 -0.1377 -1.2499 -3.6090
11855TIP3    H257057   5.896   1.938  12.908 -1.0243  0.4620  2.2173
11856TIP3   OH257058   2.909   2.655   4.174  0.9389 -0.3381 -0.2242
11856TIP3    H157059   2.871   2.642   4.087  0.6430 -2.8667  0.2095
11856TIP3    H257060   3.000   2.681   4.157  0.3821  1.0711 -1.2483
11857TIP3   OH257061   2.199   3.634  10.883  0.0042 -0.0394 -0.1261
11857TIP3    H157062   2.166   3.576  10.952 -0.1653 -2.0098 -1.7672
11857TIP3    H257063   2.176   3.722  10.913 -2.2081 -0.9812  1.2180
11858TIP3   OH257064   1.804   1.261   1.387 -0.1009  0.7380 -0.4027
11858TIP3    H157065   1.863   1.207   1.439  0.1125  1.9541  0.6508
11858TIP3    H257066   1.849   1.345   1.378 -0.7770  1.0273 -1.3289
11859TIP3   OH257067   4.992   6.630  11.968  0.2648 -0.2192 -0.0173
11859TIP3    H157068   4.967   6.710  11.922 -1.9339 -0.1339  1.1894
11859TIP3    H257069   5.012   6.567  11.898 -0.5315  0.6144 -1.0295
11860TIP3   OH257070   0.744   3.364   2.248 -0.0616 -0.3173  0.0827
11860TIP3    H157071   0.835   3.393   2.259 -0.3665  0.2039  1.4472
11860TIP3    H257072   0.700   3.392   2.329 -1.7481  0.6003 -1.0984
11861TIP3   OH257073   1.738   5.043   4.622 -0.1409  0.3286  0.3377
11861TIP3    H157074   1.829   5.070   4.633 -0.1796  1.2704 -1.2716
11861TIP3    H257075   1.742   4.952   4.594  0.4760  0.9597 -1.8225
11862TIP3   OH257076   3.632   0.777  12.055  0.1998  0.1308 -0.6022
11862TIP3    H157077   3.605   0.705  12.111  0.1102 -1.0536 -2.1206
11862TIP3    H257078   3.721   0.797  12.083 -0.0552 -0.0188  0.3549
11863TIP3   OH257079   3.290   2.583   4.704  0.1945  0.3327  0.0939
11863TIP3    H157080   3.298   2.509   4.643  0.1203 -0.1576  0.6645
11863TIP3    H257081   3.205   2.569   4.746  1.1302 -0.5084  1.8028
11864TIP3   OH257082   3.864   6.504  11.555  0.0298  0.0532 -0.3291
11864TIP3    H157083   3.836   6.450  11.629 -1.7489  0.7343 -0.4671
11864TIP3    H257084   3.948   6.466  11.529 -0.5297 -1.8094  0.4022
11865TIP3   OH257085   2.510   6.000  14.035  0.1410  0.0248  0.5000
11865TIP3    H157086   2.592   5.959  14.063  0.4669 -0.3305 -0.9171
11865TIP3    H257087   2.478   5.944  13.965 -1.9031 -0.4483  1.7340
11866TIP3   OH257088   5.690   6.706  14.525  0.1137  0.2303  0.4707
11866TIP3    H157089   5.737   6.733  14.604  0.7924  2.9177 -0.7140
11866TIP3    H257090   5.604   6.747  14.533  0.4469  1.1725 -0.4600
11867TIP3   OH257091   0.962   3.562   6.537 -0.1514  0.4666  1.1145
11867TIP3    H157092   1.052   3.594   6.537 -0.0173  0.0887  1.5615
11867TIP3    H257093   0.969   3.469   6.555 -0.5387  0.1502 -0.2244
11868TIP3   OH257094   0.924   0.467  15.651 -0.2970  0.4849 -0.0524
11868TIP3    H157095   1.018   0.451  15.650 -0.5501 -1.3565  0.5994
11868TIP3    H257096   0.902   0.476  15.744 -1.0020 -1.1141 -0.0165
11869TIP3   OH257097   2.930   6.441  12.142  0.1035 -0.2956 -0.1884
11869TIP3    H157098   2.915   6.349  12.164 -2.7135  0.0906 -0.1196
11869TIP3    H257099   2.877   6.457  12.064  0.1373  1.3917  0.0794
11870TIP3   OH257100   1.982   5.646   3.972  0.1569 -0.3123 -0.6783
11870TIP3    H157101   1.908   5.653   4.033 -0.0946 -1.1433 -0.8735
11870TIP3    H257102   2.002   5.736   3.948 -0.0930 -0.0103  0.2160
11871TIP3   OH257103   4.162   0.270  16.980  0.2098  0.3073  0.4688
11871TIP3    H157104   4.219   0.272  16.903 -0.9403 -1.2906 -0.4933
11871TIP3    H257105   4.185   0.190  17.025 -0.8586 -0.0678  0.3744
11872TIP3   OH257106   2.071   3.053   2.873  0.7414 -1.0499 -0.6324
11872TIP3    H157107   2.149   3.071   2.820  2.7633 -0.2654  2.3644
11872TIP3    H257108   2.099   3.068   2.963 -2.2451 -3.0907  0.8092
11873TIP3   OH257109   2.421   3.180   4.066  0.7045 -0.0516  0.1309
11873TIP3    H157110   2.391   3.235   4.138 -0.8753 -0.4530 -0.1864
11873TIP3    H257111   2.513   3.203   4.055  0.3434  1.8007  0.6443
11874TIP3   OH257112   0.947   4.352   2.007 -0.1930  0.2675 -0.3030
11874TIP3    H157113   0.871   4.385   1.959 -1.5726 -2.9791 -0.5809
11874TIP3    H257114   1.006   4.319   1.940  0.5220  0.9037  0.0068
11875TIP3   OH257115   5.197   1.823   5.231 -0.5153  0.4232 -0.0511
11875TIP3    H157116   5.163   1.736   5.251 -1.1465  0.5490 -0.5519
11875TIP3    H257117   5.215   1.821   5.137 -2.1248  1.3527 -0.4114
11876TIP3   OH257118   6.148   5.200   1.201  0.0901  0.5959 -0.4493
11876TIP3    H157119   6.126   5.168   1.289  0.9191  0.4975 -0.2601
11876TIP3    H257120   6.243   5.215   1.205  0.2147  0.1721 -1.4555
11877TIP3   OH257121   3.905   6.531   1.954 -0.1243 -0.4745 -0.0163
11877TIP3    H157122   3.932   6.612   1.910  1.4918 -0.5363  0.7701
11877TIP3    H257123   3.916   6.551   2.047 -0.6168 -1.3023  0.2244
11878TIP3   OH257124   3.623   1.007   0.009 -0.2023 -0.1922  0.0614
11878TIP3    H157125   3.685   1.017  -0.062  0.4955  2.7266  0.9478
11878TIP3    H257126   3.673   1.026   0.088 -1.7903  0.3885  0.9739
11879TIP3   OH257127   5.070   3.055  12.217  0.1657  0.0103 -0.5617
11879TIP3    H157128   5.098   3.001  12.143  2.5893  1.2548 -0.6811
11879TIP3    H257129   5.003   3.112  12.182  0.1805 -0.4678 -1.3882
11880TIP3   OH257130   5.158   4.106  14.500  0.6184  0.1599 -0.3005
11880TIP3    H157131   5.201   4.151  14.427 -1.0782 -0.8026 -1.9519
11880TIP3    H257132   5.181   4.014  14.488  2.6041  0.2405  2.0436
11881TIP3   OH257133   0.210   3.848  17.005 -0.7571 -0.4262 -0.3814
11881TIP3    H157134   0.202   3.917  17.071  0.1199  0.4636 -1.1779
11881TIP3    H257135   0.229   3.895  16.924  0.9982 -1.6441 -0.7272
11882TIP3   OH257136   3.864   3.186   0.924 -0.5626  0.4290 -0.3843
11882TIP3    H157137   3.890   3.152   1.009  0.9904  0.6965 -0.7200
11882TIP3    H257138   3.769   3.172   0.920 -0.1962 -3.0311 -0.1535
11883TIP3   OH257139   4.174   2.615   2.924 -0.3025  0.0125  0.8815
11883TIP3    H157140   4.147   2.656   2.842 -0.1642 -0.2821  0.6890
11883TIP3    H257141   4.264   2.587   2.909 -0.4127 -0.4096  0.9950
11884TIP3   OH257142   3.365   6.087   5.470 -0.5070 -0.3629  0.4532
11884TIP3    H157143   3.346   6.110   5.379  0.1081 -1.0163  0.1456
11884TIP3    H257144   3.376   5.992   5.469  3.3711 -0.0594  0.4260
11885TIP3   OH257145   0.244   1.387  14.987  0.0724  0.1676 -0.1494
11885TIP3    H157146   0.327   1.408  15.029  0.5448 -0.3021 -0.8150
11885TIP3    H257147   0.228   1.461  14.928 -0.7988  1.0260  1.1235
11886TIP3   OH257148   4.851   0.327   5.772 -0.0736 -0.3883 -0.1384
11886TIP3    H157149   4.809   0.305   5.855 -1.4460  0.1343 -0.6743
11886TIP3    H257150   4.932   0.371   5.798 -0.1422 -0.8367  0.9135
11887TIP3   OH257151   4.302   2.752   5.883  0.0152  0.2265  0.1406
11887TIP3    H157152   4.375   2.771   5.825  0.5534 -1.7610  0.0747
11887TIP3    H257153   4.337   2.765   5.972 -0.4822  2.1804  0.0960
11888TIP3   OH257154   2.455   0.717  11.761 -0.1515 -0.3968  0.4850
11888TIP3    H157155   2.426   0.798  11.719  0.9468  1.0421  2.3408
11888TIP3    H257156   2.538   0.695  11.718  1.1553  1.2724  1.9990
11889TIP3   OH257157   3.459   0.401   5.266  0.6219  0.1565 -0.4550
11889TIP3    H157158   3.485   0.450   5.344  0.1705 -1.6195  0.8713
11889TIP3    H257159   3.500   0.315   5.276 -0.3916 -0.4991 -1.5985
11890TIP3   OH257160   4.560   0.476   1.156 -0.2597  0.6700 -0.0774
11890TIP3    H157161   4.530   0.551   1.208 -1.7833 -0.4142  0.6937
11890TIP3    H257162   4.538   0.500   1.066 -0.5568  1.2325  0.1373
11891TIP3   OH257163   2.993   6.585  12.375 -0.0581  0.4129 -0.1681
11891TIP3    H157164   2.993   6.527  12.299  0.1104  1.3090 -0.8743
11891TIP3    H257165   2.943   6.538  12.442  0.2353 -0.6108 -0.6574
11892TIP3   OH257166   2.938   0.417   5.482 -0.1525  0.3931  0.2939
11892TIP3    H157167   2.978   0.378   5.404  1.6327 -1.8876  2.1778
11892TIP3    H257168   2.948   0.511   5.469  0.8150  0.0609 -1.8680
11893TIP3   OH257169   5.901   5.918   2.504  0.3284 -0.3712 -0.4934
11893TIP3    H157170   5.911   6.006   2.541  0.8721 -0.7544  0.2998
11893TIP3    H257171   5.814   5.919   2.465 -0.7039 -0.2189  1.6449
11894TIP3   OH257172   5.898   3.183   4.690 -0.2758 -0.2441 -0.3998
11894TIP3    H157173   5.981   3.216   4.656 -0.6576  0.0172 -1.1041
11894TIP3    H257174   5.835   3.253   4.673 -0.3879  0.1324  1.3649
11895TIP3   OH257175   4.469   6.493  12.996 -0.2140  0.2492  0.1204
11895TIP3    H157176   4.426   6.492  12.911  0.7870  0.8877 -0.4207
11895TIP3    H257177   4.475   6.586  13.019  1.7669  0.2915 -0.3297
11896TIP3   OH257178   0.620   3.853  15.292 -0.0152 -0.1476  0.7727
11896TIP3    H157179   0.684   3.786  15.316  0.6021 -0.8025 -2.3088
11896TIP3    H257180   0.670   3.934  15.290  0.2306 -0.3030  0.4717
11897TIP3   OH257181   6.425   0.849  13.915 -0.7417 -0.5242  0.2083
11897TIP3    H157182   6.372   0.907  13.860  1.7622  2.0580  0.2673
11897TIP3    H257183   6.476   0.797  13.852 -0.1920  0.1376  0.0983
11898TIP3   OH257184   2.466   3.086  12.461  0.0342  0.1463 -0.3205
11898TIP3    H157185   2.389   3.061  12.512  0.5419  1.7462  1.3085
11898TIP3    H257186   2.534   3.101  12.526  1.3110  0.2500 -1.6347
11899TIP3   OH257187   1.248   6.504   5.152  0.4363  0.6189 -0.1748
11899TIP3    H157188   1.193   6.473   5.224 -1.5991  1.7791 -1.1358
11899TIP3    H257189   1.227   6.446   5.078  0.6045  0.9815 -0.5138
11900TIP3   OH257190   2.671   6.363  16.114 -0.2018 -0.0942  0.0247
11900TIP3    H157191   2.600   6.404  16.163  0.8369  1.5548  0.2446
11900TIP3    H257192   2.700   6.291  16.170 -0.6071  0.2596  0.7096
11901TIP3   OH257193   5.459   4.197   4.429  0.0305  0.0302 -0.2951
11901TIP3    H157194   5.433   4.236   4.346 -0.7099  1.6619  0.6618
11901TIP3    H257195   5.384   4.143   4.455 -0.4509  0.8656  0.1023
11902TIP3   OH257196   0.328   2.815   6.588  0.2741  0.4719  0.0237
11902TIP3    H157197   0.259   2.749   6.584  0.5570  0.1482  0.4000
11902TIP3    H257198   0.381   2.797   6.510  0.7170 -0.1652  0.4597
11903TIP3   OH257199   6.169   1.531  15.763  0.0223  0.0629  0.0062
11903TIP3    H157200   6.090   1.581  15.741  0.3790 -0.0152 -1.5567
11903TIP3    H257201   6.136   1.450  15.803 -0.5827  1.1433  1.7924
11904TIP3   OH257202   4.375   0.514   1.795  0.1171  0.0701 -0.0978
11904TIP3    H157203   4.373   0.430   1.840  0.5223 -0.2516 -0.6657
11904TIP3    H257204   4.469   0.534   1.787  0.0373  1.5304  1.7649
11905TIP3   OH257205   2.690   5.980  16.061 -0.4264 -0.6013  0.3395
11905TIP3    H157206   2.618   6.027  16.019  0.9975  1.8877  0.4424
11905TIP3    H257207   2.728   5.926  15.992  0.3003  1.4825 -0.9930
11906TIP3   OH257208   0.804   2.638  15.003 -0.4352  0.0580  0.1043
11906TIP3    H157209   0.827   2.545  14.995 -0.9621 -0.0323 -0.4929
11906TIP3    H257210   0.782   2.650  15.095 -0.3267 -0.4001  0.1909
11907TIP3   OH257211   1.849   0.521  15.900 -0.8195  0.8265  0.1675
11907TIP3    H157212   1.939   0.499  15.877 -1.1709  1.5833 -2.2536
11907TIP3    H257213   1.822   0.452  15.961  0.5810 -0.9170 -1.0819
11908TIP3   OH257214   0.377   2.720   6.329 -0.4067 -0.0561  0.2236
11908TIP3    H157215   0.333   2.661   6.268 -0.4081  0.0710  0.0994
11908TIP3    H257216   0.383   2.803   6.281  2.3358 -0.7604 -0.8114
11909TIP3   OH257217   3.791   1.719  13.301  0.1593  0.0401  0.2059
11909TIP3    H157218   3.744   1.736  13.219 -0.3002  0.2641  0.5144
11909TIP3    H257219   3.800   1.804  13.342 -0.1704 -0.1537  0.6889
11910TIP3   OH257220   4.565   0.156   3.451 -0.0462 -0.0581  0.5128
11910TIP3    H157221   4.633   0.221   3.469 -1.0002  0.9106  0.7175
11910TIP3    H257222   4.483   0.204   3.457 -0.6836 -0.5707 -2.3961
11911TIP3   OH257223   2.680   6.753   4.380  0.1042  0.0414  0.2744
11911TIP3    H157224   2.672   6.842   4.417  0.9960  0.0414  0.4791
11911TIP3    H257225   2.764   6.721   4.412  0.8285 -0.0427 -1.5782
11912TIP3   OH257226   0.650   4.251  11.954 -0.0218  0.4442 -0.3780
11912TIP3    H157227   0.560   4.218  11.959  0.2176 -0.2086 -0.3242
11912TIP3    H257228   0.664   4.292  12.040  0.2323 -0.7781  0.1801
11913TIP3   OH257229   5.219   5.832   0.243 -0.3304 -0.4117 -0.3303
11913TIP3    H157230   5.157   5.763   0.220 -0.6943 -0.2172  0.0501
11913TIP3    H257231   5.251   5.807   0.330  0.0174 -0.4353 -0.4636
11914TIP3   OH257232   0.974   1.522   1.572 -0.3108  0.4318  0.1015
11914TIP3    H157233   1.030   1.588   1.532 -1.6012  1.3306 -0.2935
11914TIP3    H257234   0.969   1.452   1.507  0.4599  0.2758  0.2052
11915TIP3   OH257235   4.310   3.033   2.623 -0.4788 -0.0199  0.5466
11915TIP3    H157236   4.230   2.987   2.648  0.4047 -1.4241  0.9120
11915TIP3    H257237   4.285   3.085   2.547 -1.5202 -1.1692  0.0638
11916TIP3   OH257238   4.172   6.452  15.642 -0.4965 -0.2650 -0.4024
11916TIP3    H157239   4.204   6.396  15.714 -1.2413 -1.1737 -0.7481
11916TIP3    H257240   4.153   6.390  15.571 -1.0855  0.4725 -0.8957
11917TIP3   OH257241   6.337   2.133   3.770 -1.1587  1.0958  0.4884
11917TIP3    H157242   6.380   2.213   3.800 -0.2556  0.2578  1.5274
11917TIP3    H257243   6.294   2.099   3.848 -0.9162  0.1972  0.2460
11918TIP3   OH257244   1.059   5.685  15.891  0.1227  0.3817  0.2762
11918TIP3    H157245   0.983   5.631  15.869 -1.6311  2.9608 -0.5903
11918TIP3    H257246   1.034   5.729  15.972  0.8150  1.0376  0.1455
11919TIP3   OH257247   1.517   5.450  12.308 -0.2291 -0.3901 -0.0239
11919TIP3    H157248   1.535   5.508  12.233  0.0736 -1.2364 -0.6224
11919TIP3    H257249   1.602   5.411  12.329 -0.6373 -1.5409 -0.4236
11920TIP3   OH257250   2.875   3.893  15.465 -0.1103 -0.1465 -0.5386
11920TIP3    H157251   2.784   3.925  15.464 -0.0624 -0.0111 -0.5808
11920TIP3    H257252   2.869   3.806  15.503 -0.3129 -0.2967 -0.9043
11921TIP3   OH257253   3.059   2.569   4.450  0.1181  0.3057 -0.0978
11921TIP3    H157254   3.012   2.511   4.390  0.5578 -0.2923  0.1233
11921TIP3    H257255   2.996   2.638   4.472  0.0434  0.6889 -1.4651
11922TIP3   OH257256   2.080   0.541   3.437 -0.2541  0.0647 -0.4701
11922TIP3    H157257   2.033   0.591   3.503 -0.4343 -0.4056 -0.2332
11922TIP3    H257258   2.012   0.516   3.374 -0.4089 -0.9160  0.0551
11923TIP3   OH257259   1.918   2.593   2.786  0.0214  0.0355  0.1991
11923TIP3    H157260   1.841   2.559   2.741  0.0629  0.2068 -0.0046
11923TIP3    H257261   1.958   2.516   2.826  0.6875 -0.3456 -1.1263
11924TIP3   OH257262   3.420   0.878  10.542  0.4310  0.2507 -0.1300
11924TIP3    H157263   3.481   0.851  10.612  1.6882  0.6047 -1.0504
11924TIP3    H257264   3.445   0.824  10.467 -0.3497  0.4652 -0.5478
11925TIP3   OH257265   0.930   2.508   4.433  0.0340 -0.2634 -0.3402
11925TIP3    H157266   0.974   2.577   4.482  2.2539  0.0655 -2.6213
11925TIP3    H257267   0.860   2.478   4.492  1.3016  1.3823  2.1873
11926TIP3   OH257268   4.957   3.486   1.830  0.1337 -0.6070  1.0503
11926TIP3    H157269   5.026   3.420   1.833 -0.2953 -1.0552  1.1445
11926TIP3    H257270   4.907   3.472   1.911  1.1069  1.0105  1.9976
11927TIP3   OH257271   1.471   3.347  11.183 -0.3999  0.4245 -0.4832
11927TIP3    H157272   1.477   3.262  11.226  1.9135  1.1578  0.7843
11927TIP3    H257273   1.399   3.392  11.229 -0.1968 -0.0525  0.3195
11928TIP3   OH257274   5.636   2.106  10.919 -0.3745 -0.2340  0.1335
11928TIP3    H157275   5.644   2.190  10.873  0.1433 -0.6614 -0.5819
11928TIP3    H257276   5.634   2.129  11.012 -0.1171  0.5585 -0.0539
11929TIP3   OH257277   5.532   2.696  13.608  0.2701  0.1335  0.0664
11929TIP3    H157278   5.531   2.695  13.703 -2.6272 -0.8402  0.1484
11929TIP3    H257279   5.511   2.786  13.585  0.0525  0.1689  0.3929
11930TIP3   OH257280   3.939   4.144  13.666 -0.2468  0.0806 -0.1074
11930TIP3    H157281   3.854   4.101  13.660 -0.4300  0.5329 -0.9828
11930TIP3    H257282   3.983   4.101  13.739 -0.2573 -1.8682 -1.1676
11931TIP3   OH257283   1.285   4.979  16.416 -0.5128  0.0359 -0.3478
11931TIP3    H157284   1.305   4.912  16.351  0.3922  1.0709 -1.1620
11931TIP3    H257285   1.256   4.929  16.493  1.4179 -1.3877 -0.4576
11932TIP3   OH257286   1.463   4.969   5.649 -0.2665 -0.2361  0.1125
11932TIP3    H157287   1.432   4.933   5.567 -1.6338  0.3226  0.3623
11932TIP3    H257288   1.446   4.901   5.714 -1.6502  0.3242  0.3640
11933TIP3   OH257289   4.337   1.241  13.542 -0.4448  0.2755  0.0440
11933TIP3    H157290   4.422   1.197  13.542 -0.2274  0.6959 -0.2436
11933TIP3    H257291   4.286   1.194  13.476 -0.6165 -0.3037  0.5667
11934TIP3   OH257292   5.706   1.474   3.108  0.0017 -0.3446  0.2314
11934TIP3    H157293   5.698   1.379   3.116 -0.7215 -0.3117  0.0121
11934TIP3    H257294   5.793   1.488   3.072  0.8103 -0.8178  1.8968
11935TIP3   OH257295   6.620   3.250   1.810  0.0915  0.6041  0.1495
11935TIP3    H157296   6.599   3.167   1.854 -1.0739  0.9128  0.2136
11935TIP3    H257297   6.578   3.242   1.724 -0.5818  1.3694  0.3917
11936TIP3   OH257298   4.015   0.743   1.795  0.1171 -0.0833  0.1465
11936TIP3    H157299   4.027   0.690   1.873 -3.3457 -2.6734 -0.8468
11936TIP3    H257300   4.026   0.681   1.722 -0.5500  1.3822 -1.2561
11937TIP3   OH257301   4.911   2.373  11.691  0.0789  0.1326  0.4397
11937TIP3    H157302   4.885   2.312  11.760 -0.4244 -0.3024 -0.1318
11937TIP3    H257303   4.964   2.439  11.737 -2.1882  1.1906  1.6744
11938TIP3   OH257304   4.937   5.005  15.162  0.4173  0.3465  0.4867
11938TIP3    H157305   5.009   4.986  15.222  0.9894  0.4522 -0.1477
11938TIP3    H257306   4.939   4.932  15.099  0.8883  1.0771 -0.3684
11939TIP3   OH257307   2.583   5.123   3.381  0.5524 -0.0127 -0.1208
11939TIP3    H157308   2.573   5.218   3.373  2.0296  0.1726 -0.1253
11939TIP3    H257309   2.515   5.097   3.443  1.5766  1.4106  1.7261
11940TIP3   OH257310   5.642   4.583   1.800 -0.0802  0.5547 -0.0254
11940TIP3    H157311   5.690   4.629   1.732 -2.1492  1.6547 -0.8458
11940TIP3    H257312   5.637   4.646   1.872  1.4631 -0.3340  0.9091
11941TIP3   OH257313   5.675   6.502  11.927  0.1716  0.0446 -0.3087
11941TIP3    H157314   5.652   6.573  11.866 -0.4931  1.1743  1.1753
11941TIP3    H257315   5.758   6.529  11.965 -1.2125  1.3820  2.0552
11942TIP3   OH257316   2.268   4.969   5.025 -0.2105  0.0529  0.0826
11942TIP3    H157317   2.188   5.022   5.024 -0.3227 -0.0765  1.1005
11942TIP3    H257318   2.286   4.955   5.118  2.0540  1.6779 -0.0214
11943TIP3   OH257319   3.402   5.178  14.487  0.0858  0.5179  0.9948
11943TIP3    H157320   3.383   5.088  14.460  2.3367 -0.0726  1.1542
11943TIP3    H257321   3.317   5.213  14.514 -1.1306 -0.9914 -0.6267
11944TIP3   OH257322   4.256   3.547  12.971 -0.0486  0.2182  0.7592
11944TIP3    H157323   4.207   3.509  13.044  0.2998  0.2101  0.9886
11944TIP3    H257324   4.317   3.477  12.944 -2.3737 -1.0802 -1.7000
11945TIP3   OH257325   5.416   4.507   3.837  0.1111 -0.3416 -0.0699
11945TIP3    H157326   5.338   4.553   3.807 -0.8280  0.2313  2.9154
11945TIP3    H257327   5.410   4.421   3.796 -1.6715 -0.0551 -0.5083
11946TIP3   OH257328   2.543   1.636  12.268  0.4161 -0.7572  0.1224
11946TIP3    H157329   2.515   1.603  12.183 -0.0550  0.4518 -0.2098
11946TIP3    H257330   2.583   1.561  12.311  0.5383 -1.4184 -1.1124
11947TIP3   OH257331   3.181   6.742   5.694 -0.1708  0.4396 -0.4717
11947TIP3    H157332   3.195   6.771   5.604 -0.5374  0.6243 -0.4724
11947TIP3    H257333   3.101   6.787   5.721 -0.1371  0.2790 -0.0991
11948TIP3   OH257334   0.627   4.996   4.999  0.4885 -0.3371  0.1411
11948TIP3    H157335   0.597   5.035   5.081 -1.7867  1.8490 -1.6015
11948TIP3    H257336   0.586   4.910   4.997  0.8031 -0.5317  1.4062
11949TIP3   OH257337   5.882   4.002  16.277 -0.1059  0.0698  0.7953
11949TIP3    H157338   5.873   3.948  16.198 -1.4164 -0.1104  1.0505
11949TIP3    H257339   5.976   4.021  16.281  0.1620 -0.8852 -0.1606
11950TIP3   OH257340   1.235   0.450  14.678 -0.5504  0.0888 -0.0545
11950TIP3    H157341   1.196   0.446  14.765  1.7546  2.0383  1.2153
11950TIP3    H257342   1.229   0.361  14.644 -1.6394 -0.6955  2.0297
11951TIP3   OH257343   2.293   0.705   0.748 -0.2736 -0.6502 -0.0398
11951TIP3    H157344   2.385   0.713   0.772 -0.3279  0.0665 -0.0539
11951TIP3    H257345   2.247   0.713   0.832 -0.2923 -1.8839  0.0873
11952TIP3   OH257346   2.972   0.786   1.541 -0.2878 -0.1691  0.3263
11952TIP3    H157347   3.066   0.785   1.524  0.3180 -0.9421  3.0592
11952TIP3    H257348   2.942   0.697   1.519 -0.2094 -0.1419  0.1186
11953TIP3   OH257349   6.207   6.757   1.295  0.2185  0.0104 -0.3834
11953TIP3    H157350   6.192   6.686   1.357  0.6226  0.4478  0.2244
11953TIP3    H257351   6.186   6.719   1.210  3.2700 -1.8521 -0.4850
11954TIP3   OH257352   1.142   3.620  14.251 -0.0138 -0.3469 -0.0953
11954TIP3    H157353   1.227   3.598  14.212 -0.5420  0.2132 -1.6470
11954TIP3    H257354   1.078   3.597  14.183 -0.8812  1.8719 -0.1097
11955TIP3   OH257355   4.700   3.214  11.188 -0.3954  0.3201  0.4771
11955TIP3    H157356   4.716   3.200  11.095  0.8066  1.7335  0.4412
11955TIP3    H257357   4.699   3.126  11.226  1.9403 -0.1480 -0.4300
11956TIP3   OH257358   1.755   3.635  12.796 -0.0971  0.0408 -0.4148
11956TIP3    H157359   1.697   3.586  12.854 -0.9881  0.0984 -1.2191
11956TIP3    H257360   1.843   3.614  12.826 -0.5245 -0.1956  0.7234
11957TIP3   OH257361   2.251   4.419  10.846  0.2628 -0.0754 -0.3332
11957TIP3    H157362   2.246   4.436  10.752 -2.4739  1.1799 -0.0638
11957TIP3    H257363   2.333   4.461  10.873  1.3247 -0.8408 -2.1761
11958TIP3   OH257364   4.457   3.506  16.831 -0.2135 -0.0227  0.4344
11958TIP3    H157365   4.477   3.413  16.841  1.8260  0.3017 -0.2818
11958TIP3    H257366   4.472   3.544  16.918 -0.4409 -0.2362  0.5696
11959TIP3   OH257367   0.657   6.750   1.268 -0.6529 -0.1101 -0.3495
11959TIP3    H157368   0.676   6.657   1.281 -0.4891  0.0177  0.3701
11959TIP3    H257369   0.732   6.783   1.217  0.0767 -0.0524  0.7159
11960TIP3   OH257370   5.404   5.940  14.141  0.4766  0.5992  0.4451
11960TIP3    H157371   5.388   6.033  14.153  2.3441  1.2828 -1.6423
11960TIP3    H257372   5.317   5.901  14.132 -0.3162  2.5566 -1.0105
11961TIP3   OH257373   4.363   5.959   4.688 -0.3798  0.4070  1.4429
11961TIP3    H157374   4.384   6.050   4.705  1.6840  0.1003  0.7489
11961TIP3    H257375   4.333   5.958   4.597 -0.2294  0.3620  1.3944
11962TIP3   OH257376   6.044   0.504   1.903 -0.1901  0.5305  0.3108
11962TIP3    H157377   6.003   0.572   1.956 -0.1177 -0.2470  1.4016
11962TIP3    H257378   6.111   0.466   1.960 -0.0789 -0.3034 -0.3551
11963TIP3   OH257379   4.755   4.165  14.458  0.3202  0.3017  0.0558
11963TIP3    H157380   4.691   4.101  14.426 -1.3851  0.9701  1.9619
11963TIP3    H257381   4.724   4.249  14.425  0.4328  0.5866  0.6637
11964TIP3   OH257382   6.144   3.797  16.953  0.3183  0.6866  0.1991
11964TIP3    H157383   6.193   3.810  17.035  0.8291 -3.1880  0.6960
11964TIP3    H257384   6.212   3.780  16.888 -0.1941  0.9484 -0.4077
11965TIP3   OH257385   6.178   1.813   4.665  0.0053 -0.3858  0.5614
11965TIP3    H157386   6.253   1.870   4.652 -0.4633  0.2172  0.4926
11965TIP3    H257387   6.131   1.850   4.739 -1.3320  0.4395 -0.6566
11966TIP3   OH257388   2.149   2.847  11.838  0.0532  0.6040 -0.1936
11966TIP3    H157389   2.211   2.906  11.882 -0.5210  1.3597 -0.3716
11966TIP3    H257390   2.063   2.873  11.872 -0.6402  2.4732 -3.0392
11967TIP3   OH257391   4.630   5.876   3.481  0.0542 -0.0713  0.4878
11967TIP3    H157392   4.718   5.839   3.490 -0.2743 -0.6512  1.4203
11967TIP3    H257393   4.621   5.937   3.554  0.5552  1.8570 -0.9856
11968TIP3   OH257394   2.556   1.173   1.679 -0.1862 -0.4337 -0.3928
11968TIP3    H157395   2.606   1.234   1.734  0.8077 -0.9620 -0.6855
11968TIP3    H257396   2.465   1.195   1.697  0.0865 -0.8575  1.7822
11969TIP3   OH257397   0.467   0.148  16.557  0.2417  0.7559  0.6885
11969TIP3    H157398   0.371   0.156  16.558  0.1145 -0.5507  1.1476
11969TIP3    H257399   0.491   0.146  16.650  0.7519  1.4705  0.5716
11970TIP3   OH257400   4.500   0.222  16.880 -0.7157 -0.0442  0.4663
11970TIP3    H157401   4.568   0.156  16.870 -1.0755 -0.3027 -0.3816
11970TIP3    H257402   4.534   0.282  16.947  0.9461  0.5760 -0.8658
11971TIP3   OH257403   4.395   2.662   5.518 -0.2703 -0.2366  0.6859
11971TIP3    H157404   4.371   2.570   5.508  0.2068 -0.1379 -2.5759
11971TIP3    H257405   4.344   2.707   5.451 -0.2983  1.8793  2.0527
11972TIP3   OH257406   1.152   2.897  14.777  0.1400  0.0969 -0.0272
11972TIP3    H157407   1.163   2.819  14.723 -0.4878  0.4327 -0.6466
11972TIP3    H257408   1.063   2.889  14.813  0.1936  0.3722  0.1691
11973TIP3   OH257409   3.449   3.771   4.861 -0.1380  0.2824 -0.0756
11973TIP3    H157410   3.508   3.724   4.920 -0.0436 -0.5072 -0.7750
11973TIP3    H257411   3.483   3.751   4.773 -1.2511  0.0660 -0.4707
11974TIP3   OH257412   0.690   3.147   2.558 -0.3432  0.7056  0.1774
11974TIP3    H157413   0.735   3.129   2.475  0.2369 -2.4458  1.0603
11974TIP3    H257414   0.735   3.225   2.593  0.6962  0.9293 -1.5327
11975TIP3   OH257415   5.197   4.300  15.114  0.1668 -0.2819 -0.3744
11975TIP3    H157416   5.115   4.261  15.086  1.5942 -1.7150 -3.0029
11975TIP3    H257417   5.244   4.228  15.158  0.3255  0.3049  0.4379
11976TIP3   OH257418   3.469   3.716  15.285 -0.2030  0.4357  0.2168
11976TIP3    H157419   3.463   3.800  15.330  2.3213 -0.0220  1.5782
11976TIP3    H257420   3.431   3.653  15.346 -0.1053  0.2892  0.1258
11977TIP3   OH257421   1.855   4.121   5.111  0.6831  0.8174 -0.0132
11977TIP3    H157422   1.897   4.067   5.178  0.7471 -0.2273 -0.8751
11977TIP3    H257423   1.899   4.098   5.030 -1.1947  0.0402 -0.8759
11978TIP3   OH257424   2.409   1.147  13.059  0.5930 -0.0764 -0.2293
11978TIP3    H157425   2.396   1.203  13.135 -1.7162 -1.2582  0.3441
11978TIP3    H257426   2.488   1.097  13.079  0.6271  0.4007  0.9066
11979TIP3   OH257427   6.044   4.765   5.100  0.3847  0.0326  0.5890
11979TIP3    H157428   5.961   4.752   5.054  0.4793  0.5566  0.2538
11979TIP3    H257429   6.082   4.678   5.107  0.8175  0.0292 -1.1996
11980TIP3   OH257430   6.111   4.891   0.728  0.1679  0.4455  0.2289
11980TIP3    H157431   6.195   4.891   0.773  0.0314  0.5998  0.4837
11980TIP3    H257432   6.056   4.831   0.777  0.9810 -1.9479 -1.5781
11981TIP3   OH257433   0.797   3.349  15.809 -0.0837  0.6884  0.2752
11981TIP3    H157434   0.843   3.309  15.735 -1.0366 -0.3356  0.2103
11981TIP3    H257435   0.759   3.275  15.857 -1.8451  1.4876  0.1947
11982TIP3   OH257436   6.832   4.005  15.931  0.2189  0.2827 -0.3985
11982TIP3    H157437   6.897   4.035  15.995  0.8583 -0.3057 -0.7524
11982TIP3    H257438   6.754   3.987  15.984 -0.4772  3.2552 -0.2848
11983TIP3   OH257439   2.883   5.404  12.109  0.0730  0.2521 -0.2236
11983TIP3    H157440   2.944   5.422  12.180 -0.0356  0.0898 -0.0852
11983TIP3    H257441   2.914   5.322  12.071 -0.7559 -0.4882  0.6388
11984TIP3   OH257442   4.481   0.580  12.780 -0.0264 -0.3067 -0.0113
11984TIP3    H157443   4.499   0.669  12.752 -0.7127 -0.4630 -0.9601
11984TIP3    H257444   4.565   0.550  12.817  1.0079 -0.1825 -2.1226
11985TIP3   OH257445   0.265   5.168   0.958  0.1731  0.6815 -0.0863
11985TIP3    H157446   0.336   5.156   0.895  0.3661  1.0576  0.0544
11985TIP3    H257447   0.195   5.208   0.908 -0.4332 -0.8743 -0.5324
11986TIP3   OH257448   0.832   5.132  14.168  0.4820  0.6131  0.1368
11986TIP3    H157449   0.870   5.082  14.240 -0.8460 -2.6504 -1.2207
11986TIP3    H257450   0.795   5.210  14.209 -1.1505 -1.5842  3.2089
11987TIP3   OH257451   1.592   1.223   5.781  0.1612  0.1347  0.4345
11987TIP3    H157452   1.595   1.135   5.819  0.0348 -0.6883 -1.3332
11987TIP3    H257453   1.593   1.208   5.687 -0.4608  2.0311  0.0823
11988TIP3   OH257454   0.954   0.602   2.066  0.4319 -0.3043  0.7719
11988TIP3    H157455   0.904   0.541   2.121 -0.7689 -0.5418 -0.5338
11988TIP3    H257456   0.933   0.576   1.976  1.9744  0.3800  0.1831
11989TIP3   OH257457   3.906   4.698  12.414  0.3074 -0.6908 -0.2328
11989TIP3    H157458   3.938   4.784  12.441  1.1995 -0.3098 -2.2703
11989TIP3    H257459   3.887   4.709  12.320 -1.2470 -2.2535 -0.1472
11990TIP3   OH257460   0.955   6.276   5.011 -0.3928 -0.0765  0.3277
11990TIP3    H157461   0.938   6.329   5.089  1.4352  0.7217  0.2311
11990TIP3    H257462   0.934   6.334   4.937  0.4816  0.1366  0.2316
11991TIP3   OH257463   5.243   2.387   5.213  0.2093 -0.4375 -0.3585
11991TIP3    H157464   5.215   2.459   5.269  1.3617  0.9642 -1.5261
11991TIP3    H257465   5.240   2.423   5.124  3.7917 -0.7692 -0.7447
11992TIP3   OH257466   3.018   2.264   0.742 -0.6166  0.2923  0.2154
11992TIP3    H157467   2.975   2.342   0.777  0.9233  0.8880  0.8684
11992TIP3    H257468   2.971   2.244   0.661 -1.4163  1.5396  0.3543
11993TIP3   OH257469   1.165   4.430   3.330  0.1706  0.3191 -0.0515
11993TIP3    H157470   1.223   4.377   3.275 -0.3632  1.2561 -1.5705
11993TIP3    H257471   1.112   4.366   3.377  1.4549 -0.5286  0.3128
11994TIP3   OH257472   0.426   4.081   4.852  0.3406  0.4268 -0.0106
11994TIP3    H157473   0.359   4.083   4.783  0.3284 -0.6065 -0.0406
11994TIP3    H257474   0.376   4.074   4.933  0.4101 -0.3023 -0.0302
11995TIP3   OH257475   2.663   3.777  11.779 -0.8239  0.3588  0.1301
11995TIP3    H157476   2.624   3.758  11.693 -0.1304 -0.5234 -0.0020
11995TIP3    H257477   2.737   3.717  11.785  1.5248  2.9994 -0.2888
11996TIP3   OH257478   0.286   1.963  16.169 -0.0970 -0.6656  0.2495
11996TIP3    H157479   0.352   2.029  16.146  0.0404 -1.1302 -0.7475
11996TIP3    H257480   0.337   1.887  16.197 -0.2598 -0.2080  1.8905
11997TIP3   OH257481   2.536   0.530   3.555  0.0235 -0.2686 -0.7780
11997TIP3    H157482   2.485   0.516   3.635  2.3867 -2.3032  0.5131
11997TIP3    H257483   2.563   0.442   3.528  1.6538  0.6086 -2.1842
11998TIP3   OH257484   0.991   0.774   3.076  0.1985 -0.0813 -0.2478
11998TIP3    H157485   0.948   0.838   3.020  0.2656  1.5883  1.4987
11998TIP3    H257486   0.930   0.700   3.080 -1.3467  1.1657  0.1326
11999TIP3   OH257487   6.613   1.965  14.155 -0.1867  0.2329 -0.3781
11999TIP3    H157488   6.685   2.005  14.107  0.6109 -1.1666 -0.4050
11999TIP3    H257489   6.535   2.011  14.125  0.8309  3.0901  1.0433
12000TIP3   OH257490   5.946   5.037  14.825  0.8344 -0.1133  0.0112
12000TIP3    H157491   5.968   5.095  14.898 -0.9333 -1.6920  1.9172
12000TIP3    H257492   5.995   5.072  14.751  0.1492  3.5721  1.1161
12001TIP3   OH257493   4.954   0.917  16.076  0.0545 -0.1601  0.1446
12001TIP3    H157494   4.997   0.835  16.100 -0.1590 -0.1605  0.5347
12001TIP3    H257495   4.940   0.961  16.160  0.9255  0.6492 -0.1133
12002TIP3   OH257496   3.993   1.331  11.493  0.5373 -0.3258  0.0987
12002TIP3    H157497   3.955   1.404  11.543  0.7252 -0.1991  0.0579
12002TIP3    H257498   3.948   1.254  11.527  0.4633 -0.2109  0.2684
12003TIP3   OH257499   1.543   5.760  16.252  0.2521  0.6995  0.4557
12003TIP3    H157500   1.541   5.794  16.341 -1.3229  1.8588  0.0194
12003TIP3    H257501   1.480   5.689  16.252 -1.3246  2.0416 -0.1953
12004TIP3   OH257502   0.350   1.283   5.080 -0.1126  0.1807 -0.1861
12004TIP3    H157503   0.349   1.358   5.020  0.9568 -0.1231 -0.6047
12004TIP3    H257504   0.270   1.293   5.132 -0.4948  1.0588 -0.9091
12005TIP3   OH257505   3.977   5.481   4.207 -0.1937 -0.2491  0.3726
12005TIP3    H157506   3.940   5.490   4.120  0.9835  0.8759 -0.0441
12005TIP3    H257507   3.916   5.424   4.254 -1.6047  0.3105 -0.7278
12006TIP3   OH257508   5.610   6.375   5.497  0.4334  0.0726 -0.6192
12006TIP3    H157509   5.611   6.280   5.484  0.5759  0.2724 -2.3807
12006TIP3    H257510   5.685   6.392   5.554  0.1501 -0.8980  0.0804
12007TIP3   OH257511   6.255   6.771  13.554 -0.1928 -0.3188  0.1617
12007TIP3    H157512   6.259   6.769  13.650 -1.1139  0.1743  0.2153
12007TIP3    H257513   6.347   6.780  13.527 -0.0367  1.3495  1.0653
12008TIP3   OH257514   2.832   3.649  15.596 -0.1079 -0.4037  0.2427
12008TIP3    H157515   2.857   3.673  15.685 -1.5965  0.6717  0.4203
12008TIP3    H257516   2.761   3.586  15.608 -0.6853  0.1567 -0.1544
12009TIP3   OH257517   0.755   2.809   5.946 -0.4796 -0.1189  0.1396
12009TIP3    H157518   0.717   2.897   5.952 -1.6063 -0.6507  1.5567
12009TIP3    H257519   0.845   2.824   5.916 -1.2934  1.3199 -1.8102
12010TIP3   OH257520   1.335   5.462   5.300 -0.3618 -0.4112 -0.5580
12010TIP3    H157521   1.361   5.373   5.324  2.3805  0.0023 -1.6823
12010TIP3    H257522   1.312   5.504   5.383  0.1479 -1.6058  0.2096
12011TIP3   OH257523   3.037   1.512   3.311  0.7937 -0.0955 -0.5079
12011TIP3    H157524   3.115   1.568   3.318 -0.7078  1.9586  1.1894
12011TIP3    H257525   3.034   1.466   3.395 -1.2498  2.0199  0.7041
12012TIP3   OH257526   4.797   4.230  14.852 -0.4098  0.1267  0.3637
12012TIP3    H157527   4.784   4.294  14.783  0.2577  0.1761  0.2757
12012TIP3    H257528   4.742   4.156  14.828 -0.1198  0.1126 -0.2606
12013TIP3   OH257529   0.500   4.673  14.582  0.2544  0.0780 -1.0670
12013TIP3    H157530   0.568   4.707  14.524 -0.2754 -0.6253 -2.1177
12013TIP3    H257531   0.418   4.696  14.540 -0.3693  3.2801  1.4598
12014TIP3   OH257532   5.484   0.494   1.186  0.0681 -0.2928 -0.0239
12014TIP3    H157533   5.447   0.581   1.170 -0.9576 -0.7354 -0.1032
12014TIP3    H257534   5.529   0.472   1.104 -0.0242 -0.0096 -0.1521
12015TIP3   OH257535   0.746   0.008   0.588 -0.2093  0.1038  0.2616
12015TIP3    H157536   0.745   0.047   0.675  1.5400 -0.4502  0.5668
12015TIP3    H257537   0.786  -0.078   0.601 -1.0126 -0.4828 -0.9138
12016TIP3   OH257538   3.315   6.299  14.640 -0.0120  0.0800 -0.9231
12016TIP3    H157539   3.387   6.303  14.702  1.1554  0.8208 -2.2559
12016TIP3    H257540   3.283   6.389  14.633  0.1135  0.0789 -1.6439
12017TIP3   OH257541   2.482   0.415  10.622 -0.5091  0.2130  0.1812
12017TIP3    H157542   2.507   0.476  10.553 -1.4326 -0.6023 -0.9148
12017TIP3    H257543   2.387   0.427  10.631 -0.5101 -0.2019  0.8141
12018TIP3   OH257544   0.696   0.459  16.751  0.1916  0.0358 -0.3469
12018TIP3    H157545   0.743   0.406  16.687  0.4625  0.5273 -0.5567
12018TIP3    H257546   0.685   0.401  16.826 -0.8210 -0.8112 -1.1183
12019TIP3   OH257547   5.649   2.296  15.709 -0.0176 -0.4828 -0.0310
12019TIP3    H157548   5.691   2.218  15.670 -1.1181 -1.0800 -0.0522
12019TIP3    H257549   5.557   2.288  15.685 -0.3454  0.2362  0.9491
12020TIP3   OH257550   1.695   3.662   4.943  0.0270 -0.1058  0.1681
12020TIP3    H157551   1.673   3.747   4.983  0.4328 -0.0742  0.3228
12020TIP3    H257552   1.696   3.601   5.017  0.9003 -0.0244  0.2332
12021TIP3   OH257553   2.620   1.629  13.594 -0.1638 -0.2826 -0.0504
12021TIP3    H157554   2.692   1.572  13.622 -0.2136 -0.4016 -0.1622
12021TIP3    H257555   2.601   1.683  13.671 -1.6457 -1.9654  0.8438
12022TIP3   OH257556   3.394   3.204   2.294 -0.6004 -0.2764  0.3684
12022TIP3    H157557   3.312   3.179   2.252 -2.1147  0.3852  2.7197
12022TIP3    H257558   3.419   3.286   2.252 -1.1678 -0.4719 -0.3668
12023TIP3   OH257559   5.496   2.435   1.046  0.2303 -0.2228  0.4574
12023TIP3    H157560   5.527   2.346   1.029  3.4095  0.6987  0.9057
12023TIP3    H257561   5.502   2.480   0.962  1.4446  0.3169  0.8172
12024TIP3   OH257562   2.888   2.702   0.522  0.4615 -0.6709 -0.4500
12024TIP3    H157563   2.855   2.777   0.571  0.5202 -0.0150 -1.3921
12024TIP3    H257564   2.827   2.631   0.542  0.1076 -0.2319  0.0456
12025TIP3   OH257565   4.446   5.498  12.325 -0.2442  0.1818 -0.1095
12025TIP3    H157566   4.516   5.459  12.377 -0.4723 -0.4807 -0.2779
12025TIP3    H257567   4.440   5.442  12.247 -1.0702  0.1227 -0.0129
12026TIP3   OH257568   1.676   0.670  11.665 -0.6521 -0.3027 -0.0378
12026TIP3    H157569   1.728   0.613  11.609  1.7683  2.7355 -1.1808
12026TIP3    H257570   1.707   0.653  11.754 -0.3492 -1.1110 -0.2937
12027TIP3   OH257571   0.066   2.182  10.478 -0.4693  0.0775  0.1131
12027TIP3    H157572   0.113   2.256  10.440  2.3606 -2.0057 -0.8351
12027TIP3    H257573   0.103   2.172  10.566  0.1618 -0.9061 -0.2364
12028TIP3   OH257574   0.541   3.772   3.411 -0.0922 -0.2729  0.2229
12028TIP3    H157575   0.488   3.850   3.393  0.4539 -0.1552 -0.9752
12028TIP3    H257576   0.493   3.726   3.480 -0.3819  1.1666  1.0347
12029TIP3   OH257577   4.585   3.822  12.909 -0.2825  0.5786 -0.5686
12029TIP3    H157578   4.585   3.731  12.940 -0.0184  0.6109 -0.4679
12029TIP3    H257579   4.676   3.839  12.887 -0.1578  1.1233  0.3217
12030TIP3   OH257580   4.583   1.417   3.078 -0.4126  0.3377 -0.2578
12030TIP3    H157581   4.605   1.325   3.062 -1.9820 -0.1959  0.4636
12030TIP3    H257582   4.606   1.431   3.170 -0.5784  0.5283 -0.2449
12031TIP3   OH257583   5.698   3.152   2.368 -0.5396  0.5285 -0.0956
12031TIP3    H157584   5.676   3.190   2.453 -0.1676  1.6177 -0.4646
12031TIP3    H257585   5.628   3.180   2.310 -2.2535 -2.4268  0.3701
12032TIP3   OH257586   1.457   1.177   2.415 -0.1841 -0.2429 -0.0444
12032TIP3    H157587   1.446   1.215   2.502  0.3056  0.1568 -0.1475
12032TIP3    H257588   1.517   1.104   2.429 -0.5084 -0.4934  0.0335
12033TIP3   OH257589   4.096   4.121  12.283  0.3191  0.3681 -0.0850
12033TIP3    H157590   4.116   4.028  12.290  2.3966  0.7258 -0.5026
12033TIP3    H257591   4.075   4.148  12.373 -1.8960 -0.7531 -0.1876
12034TIP3   OH257592   1.287   3.075   1.616  0.4873  0.0110  0.1224
12034TIP3    H157593   1.297   3.154   1.563  0.5045 -0.8301 -1.1703
12034TIP3    H257594   1.222   3.022   1.569  1.0304 -1.0725  0.5556
12035TIP3   OH257595   3.198   4.146   3.162 -0.0755 -1.0844  0.6537
12035TIP3    H157596   3.162   4.233   3.148  1.5963 -0.3493  0.6737
12035TIP3    H257597   3.132   4.101   3.216 -0.4741  0.5352  1.5872
12036TIP3   OH257598   6.615   0.690   0.919  0.1302 -0.6084 -0.2137
12036TIP3    H157599   6.584   0.607   0.883  0.1149 -0.7898  0.2099
12036TIP3    H257600   6.664   0.731   0.847  0.8700 -1.3743 -0.1645
12037TIP3   OH257601   0.560   6.579   3.639  1.0670  0.2239  0.1168
12037TIP3    H157602   0.533   6.662   3.676 -0.8050  0.0925 -0.8412
12037TIP3    H257603   0.535   6.514   3.705 -1.7765  0.0401 -0.9845
12038TIP3   OH257604   6.046   3.025  10.524  0.7279 -0.3145 -0.1333
12038TIP3    H157605   5.987   2.965  10.479 -2.4201 -0.0203  3.0858
12038TIP3    H257606   6.019   3.112  10.494  0.7800 -0.2545 -0.0077
12039TIP3   OH257607   1.227   5.586  10.554 -0.6423 -0.5997 -0.0511
12039TIP3    H157608   1.203   5.663  10.502 -0.0420 -0.1719  0.2959
12039TIP3    H257609   1.143   5.546  10.577 -0.9739  0.1190  0.0245
12040TIP3   OH257610   5.187   3.080   5.621 -0.1113  0.8654 -0.0297
12040TIP3    H157611   5.177   3.098   5.528  0.9925 -2.6724 -1.0130
12040TIP3    H257612   5.270   3.121   5.645  0.3857  0.4958 -1.0625
12041TIP3   OH257613   1.183   0.261   4.669 -0.0779 -0.1313 -0.3386
12041TIP3    H157614   1.272   0.295   4.660  0.9746 -2.1970  1.2817
12041TIP3    H257615   1.139   0.322   4.728  1.4657 -0.9551  1.7937
12042TIP3   OH257616   4.357   2.804  12.792 -0.0773 -0.1817 -0.2310
12042TIP3    H157617   4.398   2.834  12.711 -1.8807 -0.3706 -1.2763
12042TIP3    H257618   4.412   2.731  12.820  0.2940 -0.4611 -1.5891
12043TIP3   OH257619   6.289   1.717  11.560  0.3577 -0.5118  0.7745
12043TIP3    H157620   6.325   1.748  11.643 -1.5972  0.7293  1.2445
12043TIP3    H257621   6.363   1.678  11.514  1.3586 -1.9726  3.4032
12044TIP3   OH257622   6.059   6.637   1.081  0.3994 -0.4459 -0.7809
12044TIP3    H157623   6.029   6.674   0.998  1.1058 -1.6991 -1.6199
12044TIP3    H257624   6.060   6.543   1.066 -0.5775 -0.7988  1.0341
12045TIP3   OH257625   3.508   3.985  15.874  0.5183  0.1121 -0.3799
12045TIP3    H157626   3.467   3.903  15.848  0.4471  0.4655 -1.4234
12045TIP3    H257627   3.600   3.962  15.888  0.2489 -0.4033  0.6338
12046TIP3   OH257628   4.154   3.354   0.200  0.1876  0.8256 -0.0152
12046TIP3    H157629   4.060   3.352   0.183  0.2436 -2.5010 -0.6390
12046TIP3    H257630   4.162   3.320   0.289  0.7897  0.8341 -0.0658
12047TIP3   OH257631   4.853   5.737  11.851  0.4125  0.0119 -0.0583
12047TIP3    H157632   4.877   5.736  11.759  2.1126  0.8609  0.3250
12047TIP3    H257633   4.786   5.670  11.860  0.3785 -0.2298 -1.8592
12048TIP3   OH257634   0.608   4.325   1.869 -0.4401  0.0264 -0.2705
12048TIP3    H157635   0.586   4.364   1.784 -0.0482  0.3174 -0.2434
12048TIP3    H257636   0.684   4.269   1.850 -1.3096 -1.1353 -0.4091
12049TIP3   OH257637   2.214   3.879   1.772  0.6290  0.3891  0.7051
12049TIP3    H157638   2.152   3.920   1.711  0.4524 -1.1096 -0.1597
12049TIP3    H257639   2.278   3.948   1.790 -0.3669  1.4484  0.3206
12050TIP3   OH257640   2.230   5.462  17.035 -0.0971 -0.1838 -0.2306
12050TIP3    H157641   2.201   5.553  17.026  0.3016  0.0441  0.6639
12050TIP3    H257642   2.231   5.447  17.129  2.9479 -0.0669 -0.1438
12051TIP3   OH257643   6.101   5.661  15.531 -0.0284 -0.2340 -0.2353
12051TIP3    H157644   6.041   5.615  15.589 -0.6173  2.6511  1.6730
12051TIP3    H257645   6.165   5.595  15.504 -2.0728 -2.6046  0.4424
12052TIP3   OH257646   1.926   3.231  14.945  0.3299  0.7137  0.1525
12052TIP3    H157647   1.919   3.205  14.853  1.0496  1.4662 -0.1250
12052TIP3    H257648   1.848   3.193  14.986  0.2841 -0.0996 -0.6507
12053TIP3   OH257649   6.301   6.835  15.982 -0.2471 -0.2934 -0.4933
12053TIP3    H157650   6.371   6.769  15.978  0.1744  0.2010 -1.9718
12053TIP3    H257651   6.240   6.802  16.048  1.1344 -0.9858  0.4888
12054TIP3   OH257652   5.606   5.782   3.153  0.2927  0.7434  0.0633
12054TIP3    H157653   5.661   5.726   3.099 -0.6564 -1.4944  1.2372
12054TIP3    H257654   5.638   5.768   3.242 -1.2896  0.3467  0.6226
12055TIP3   OH257655   1.669   2.934  16.692  0.0746 -0.0108 -0.0444
12055TIP3    H157656   1.751   2.929  16.739  0.1968  0.7385 -0.1779
12055TIP3    H257657   1.614   2.866  16.732  0.5046 -0.0298  0.5174
12056TIP3   OH257658   0.036   2.905   2.643  0.1038 -0.1181  0.5793
12056TIP3    H157659   0.082   2.877   2.565  0.0472 -0.4743  0.6738
12056TIP3    H257660   0.048   3.000   2.645  1.4746 -0.2889  1.0220
12057TIP3   OH257661   2.430   0.669  13.165  0.0803  0.2139  0.1178
12057TIP3    H157662   2.410   0.694  13.075 -1.3549  0.5546  0.5024
12057TIP3    H257663   2.400   0.579  13.173  2.3546 -0.6382 -0.3730
12058TIP3   OH257664   6.788   1.708  12.312 -0.3625 -0.2294  0.7560
12058TIP3    H157665   6.773   1.647  12.239  0.2441 -0.0536  0.4699
12058TIP3    H257666   6.724   1.777  12.300  1.6751  1.4627 -1.4899
12059TIP3   OH257667   3.217   6.311   4.362  0.2325 -0.2549  0.0387
12059TIP3    H157668   3.173   6.284   4.281 -1.7253  0.5469  0.7567
12059TIP3    H257669   3.207   6.407   4.364  2.5033  0.0286  0.0225
12060TIP3   OH257670   5.464   1.412   2.789 -0.2774 -0.7411  0.8070
12060TIP3    H157671   5.522   1.337   2.777  1.5475  0.9229 -2.0140
12060TIP3    H257672   5.386   1.392   2.738 -0.7964 -1.5930  1.8965
12061TIP3   OH257673   4.211   1.481   3.559 -0.0830 -0.0009  0.1168
12061TIP3    H157674   4.290   1.518   3.598  0.0542 -0.8800  0.6901
12061TIP3    H257675   4.195   1.401   3.609 -0.9818 -0.1536 -0.4045
12062TIP3   OH257676   2.027   4.616  14.023 -0.2887  0.4144 -0.6988
12062TIP3    H157677   2.050   4.557  13.951 -0.7392 -1.0900  0.3503
12062TIP3    H257678   2.108   4.627  14.072 -0.7901 -1.7033  0.7351
12063TIP3   OH257679   1.129   2.610  16.842 -0.0748  0.0016  0.3574
12063TIP3    H157680   1.190   2.681  16.864  0.7573 -0.3294 -0.7880
12063TIP3    H257681   1.184   2.532  16.839 -0.7253 -0.4488  0.1591
12064TIP3   OH257682   0.514   2.465  11.827  0.1321  0.0146  0.4566
12064TIP3    H157683   0.540   2.468  11.735 -0.4698 -0.3173  0.2708
12064TIP3    H257684   0.460   2.543  11.839 -0.3857 -0.3248  0.3413
12065TIP3   OH257685   4.867   5.895   1.096 -0.2853 -0.0268  0.1119
12065TIP3    H157686   4.814   5.822   1.128 -3.5196  2.4328  0.9183
12065TIP3    H257687   4.841   5.969   1.151  1.8496  2.0514 -1.4950
12066TIP3   OH257688   2.198   4.298  14.858 -0.0067  0.1585  0.2459
12066TIP3    H157689   2.173   4.305  14.766  0.3858 -2.0244 -0.0691
12066TIP3    H257690   2.290   4.324  14.859 -0.0536  0.3386  0.0663
12067TIP3   OH257691   1.212   3.457  14.568 -0.3085  0.1621  0.0707
12067TIP3    H157692   1.189   3.375  14.524 -0.5470  0.0145  0.4675
12067TIP3    H257693   1.308   3.455  14.572 -0.3524 -0.6130  1.0467
12068TIP3   OH257694   0.921   2.955  13.505 -0.0171  0.2215  0.6497
12068TIP3    H157695   0.867   2.910  13.570 -1.7174 -0.0301 -0.8650
12068TIP3    H257696   0.887   2.926  13.421  2.0155  0.6636 -0.4001
12069TIP3   OH257697   5.263   0.974  16.212 -0.1270  0.2601 -0.3274
12069TIP3    H157698   5.241   0.901  16.153 -0.7430 -0.0512  0.2627
12069TIP3    H257699   5.261   0.934  16.300  2.2629  0.3585 -0.1759
12070TIP3   OH257700   5.516   2.918  14.243 -0.7025 -0.6071  0.2897
12070TIP3    H157701   5.605   2.953  14.247 -1.7272  2.1434  2.6215
12070TIP3    H257702   5.512   2.856  14.316 -1.4324  1.5686  2.2192
12071TIP3   OH257703   2.005   4.534  11.412 -0.2507 -0.0011  0.2541
12071TIP3    H157704   1.936   4.578  11.463 -0.5902 -0.4203  0.1574
12071TIP3    H257705   2.083   4.540  11.467  0.0322  1.8388 -0.2790
12072TIP3   OH257706   0.996   2.633   1.273 -0.0274 -0.3209 -0.3259
12072TIP3    H157707   0.983   2.661   1.364 -1.6612  0.1960 -0.6875
12072TIP3    H257708   1.025   2.542   1.280 -0.3922 -0.3691  0.7045
12073TIP3   OH257709   6.256   6.545   1.721  0.6175  0.2926  0.6870
12073TIP3    H157710   6.198   6.617   1.746  1.2916  0.4024  2.0136
12073TIP3    H257711   6.274   6.499   1.803  0.6911 -1.0326 -0.0411
12074TIP3   OH257712   3.823   3.279   1.369 -0.1523 -0.4645 -0.1068
12074TIP3    H157713   3.791   3.354   1.319 -0.1165  0.8631  1.7757
12074TIP3    H257714   3.916   3.273   1.347  0.8328  2.5497  2.5771
12075TIP3   OH257715   1.623   2.620   3.376 -0.0360  0.5373  0.7350
12075TIP3    H157716   1.621   2.624   3.280 -0.3568  3.3596  0.7718
12075TIP3    H257717   1.568   2.545   3.398 -1.2696  0.7631 -1.2849
12076TIP3   OH257718   5.206   6.282   0.079 -0.1128 -0.0425 -0.1415
12076TIP3    H157719   5.116   6.314   0.088  0.3201  0.8551  1.3194
12076TIP3    H257720   5.223   6.233   0.159  0.5524 -0.6284 -0.6231
12077TIP3   OH257721   2.101   1.349   3.531 -0.0470  0.4724 -0.3868
12077TIP3    H157722   2.057   1.434   3.534 -0.1655  0.4663 -1.5981
12077TIP3    H257723   2.135   1.342   3.441  0.9634 -0.2591  0.0244
12078TIP3   OH257724   1.638   1.064   4.741  0.0123 -0.7618 -0.2189
12078TIP3    H157725   1.674   1.086   4.655 -0.0536 -0.1749 -0.1028
12078TIP3    H257726   1.558   1.116   4.747  0.2698 -0.4223  0.3915
12079TIP3   OH257727   3.088   5.153  14.664  0.1458 -0.1319  0.6678
12079TIP3    H157728   3.093   5.164  14.759  1.5980  1.8275  0.4225
12079TIP3    H257729   3.120   5.236  14.628  0.9178 -1.3011 -1.5408
12080TIP3   OH257730   4.988   6.341  13.999  0.2346 -0.1360  0.4966
12080TIP3    H157731   5.016   6.261  14.045 -2.2413 -0.8622  0.8860
12080TIP3    H257732   5.017   6.412  14.055  1.0368 -0.8221  0.9829
12081TIP3   OH257733   1.465   3.225   3.840  0.1743  0.6856  0.4952
12081TIP3    H157734   1.401   3.285   3.802  0.2929  0.8891  0.6188
12081TIP3    H257735   1.438   3.215   3.931  0.8574  1.5077  0.7982
12082TIP3   OH257736   4.304   1.062  12.918  0.4126  0.1621 -0.0556
12082TIP3    H157737   4.243   0.993  12.945  0.8385 -0.0198  0.4332
12082TIP3    H257738   4.249   1.141  12.913 -0.0784 -0.1977 -0.6241
12083TIP3   OH257739   5.317   6.104  15.717 -0.1481 -0.1941  0.6681
12083TIP3    H157740   5.395   6.148  15.682  1.9314 -3.2419  1.0448
12083TIP3    H257741   5.328   6.108  15.812  0.0005 -1.2770  0.7132
12084TIP3   OH257742   2.947   2.616   2.999  0.0103  0.2259  0.1725
12084TIP3    H157743   2.901   2.586   2.921 -1.2040  1.5088  0.3591
12084TIP3    H257744   3.016   2.674   2.965  2.0668 -2.2383 -0.1556
12085TIP3   OH257745   4.685   2.918  12.356  0.2612  0.3166  0.1635
12085TIP3    H157746   4.726   2.890  12.274 -0.9098 -1.5985  0.1803
12085TIP3    H257747   4.720   2.860  12.423  0.5057  1.2697  0.8931
12086TIP3   OH257748   4.337   0.732   4.997  0.0682  0.2568 -0.2447
12086TIP3    H157749   4.380   0.699   5.076  2.4464  1.9779 -0.7191
12086TIP3    H257750   4.248   0.753   5.025  0.2848 -0.9385  1.4738
12087TIP3   OH257751   6.655   6.691  16.682 -0.3845  0.1933 -0.2905
12087TIP3    H157752   6.741   6.726  16.660 -0.0124 -0.9271 -0.6925
12087TIP3    H257753   6.598   6.768  16.685  1.1586  1.3722  2.9272
12088TIP3   OH257754   5.682   6.731  14.249 -0.2598 -0.3476  0.4370
12088TIP3    H157755   5.758   6.710  14.195  0.0338  1.4952  0.0533
12088TIP3    H257756   5.717   6.736  14.338  0.1389  0.6209  0.2468
12089TIP3   OH257757   3.755   0.867   4.401  0.4189 -0.0605  0.4475
12089TIP3    H157758   3.846   0.839   4.417  0.3851 -0.6412 -0.3035
12089TIP3    H257759   3.731   0.915   4.479  1.4873  0.3762  0.5272
12090TIP3   OH257760   2.328   4.442   4.530 -0.3704 -0.4185  0.1311
12090TIP3    H157761   2.418   4.412   4.517 -0.8360 -2.0982  0.4798
12090TIP3    H257762   2.334   4.515   4.591  0.8194  0.0512 -0.5295
12091TIP3   OH257763   0.347   2.181   2.808  0.3955  0.2861 -0.4343
12091TIP3    H157764   0.260   2.167   2.770  0.4444  2.0976 -1.3155
12091TIP3    H257765   0.395   2.101   2.787 -1.0044 -0.7086 -0.0168
12092TIP3   OH257766   3.951   1.132  11.151  0.3144  0.0610  0.5003
12092TIP3    H157767   3.882   1.197  11.138  0.3125 -0.1383 -0.6084
12092TIP3    H257768   3.904   1.054  11.180 -0.0765 -0.3553 -1.1277
12093TIP3   OH257769   5.407   4.085  14.981 -0.0644  0.7353 -0.0782
12093TIP3    H157770   5.395   4.089  15.076  0.5660  0.5054  0.0173
12093TIP3    H257771   5.491   4.040  14.969 -0.2642  0.5239 -0.7516
12094TIP3   OH257772   4.064   3.405   0.820  0.4056  0.5980  0.4687
12094TIP3    H157773   4.076   3.364   0.735  0.7329  0.3348  0.6386
12094TIP3    H257774   4.034   3.334   0.877  3.4825 -0.0905  1.4201
12095TIP3   OH257775   0.616   0.151  10.974 -0.1819  0.0012 -0.1969
12095TIP3    H157776   0.671   0.163  10.897 -1.4790 -0.8899 -1.3284
12095TIP3    H257777   0.585   0.060  10.967 -2.2670  0.6496  0.0193
12096TIP3   OH257778   1.093   6.519  14.519  0.2218  0.4292 -0.8858
12096TIP3    H157779   1.075   6.536  14.611  2.3435  0.8038 -0.4953
12096TIP3    H257780   1.128   6.602  14.486  3.6285 -0.8283 -0.8486
12097TIP3   OH257781   5.021   1.304   0.189  0.5904 -0.0822 -0.6815
12097TIP3    H157782   5.079   1.304   0.265  0.9044 -0.9020 -0.9093
12097TIP3    H257783   5.058   1.238   0.130 -0.7738 -0.8813 -0.6735
12098TIP3   OH257784   1.531   4.321  15.769 -0.0497  0.1171  0.1069
12098TIP3    H157785   1.471   4.262  15.815 -3.1024  2.1464 -1.0020
12098TIP3    H257786   1.566   4.378  15.837  0.9454 -1.2554  0.8021
12099TIP3   OH257787   0.354   0.224  16.976  0.2281 -0.0056  0.1721
12099TIP3    H157788   0.333   0.207  16.884  0.0348 -0.4658  0.2986
12099TIP3    H257789   0.277   0.194  17.024  0.2717  0.3666  0.4768
12100TIP3   OH257790   0.646   1.170  13.622 -0.3319 -0.0340 -0.2890
12100TIP3    H157791   0.668   1.245  13.567 -0.7874  0.7920  0.6280
12100TIP3    H257792   0.717   1.167  13.687 -1.1621  0.6179  0.6682
12101TIP3   OH257793   5.639   0.956  15.872 -0.0796  0.2856 -0.2002
12101TIP3    H157794   5.546   0.977  15.874  0.1369  1.3933 -1.2595
12101TIP3    H257795   5.677   1.011  15.940  0.0155  0.9465 -0.7845
12102TIP3   OH257796   6.502   4.973  11.918  0.2119  0.4410 -0.2488
12102TIP3    H157797   6.531   4.942  12.003 -1.0799  0.4867  0.2344
12102TIP3    H257798   6.413   4.940  11.910  0.3390  0.3842 -1.6168
12103TIP3   OH257799   3.219   0.103   4.509  0.1362 -0.4028 -0.2563
12103TIP3    H157800   3.126   0.085   4.496 -0.1064  0.0238  0.7536
12103TIP3    H257801   3.254   0.023   4.547  0.0427 -0.3502 -0.0561
12104TIP3   OH257802   4.321   3.761  11.732 -0.2112  0.2966  0.3453
12104TIP3    H157803   4.345   3.788  11.821  0.7700  0.5901  0.0078
12104TIP3    H257804   4.383   3.807  11.676  0.0197 -0.8950 -0.4077
12105TIP3   OH257805   6.029   5.891  14.510 -0.2553  0.4096 -0.1914
12105TIP3    H157806   6.101   5.842  14.550  0.1066  0.3504 -0.8980
12105TIP3    H257807   6.016   5.850  14.424  1.2629  2.6110 -1.6031
12106TIP3   OH257808   4.662   2.521  16.572 -0.4294 -0.7014  0.1070
12106TIP3    H157809   4.755   2.517  16.594  0.0281 -2.7869 -1.7937
12106TIP3    H257810   4.654   2.597  16.513  0.2872 -1.0463 -0.4580
12107TIP3   OH257811   4.248   1.232  14.987 -0.1493  0.6241  0.5049
12107TIP3    H157812   4.173   1.231  14.927 -0.4886  0.2242  0.9156
12107TIP3    H257813   4.325   1.230  14.930 -0.4634  0.1787  0.0783
12108TIP3   OH257814   1.789   4.747   0.653  0.0597  0.3041  0.4066
12108TIP3    H157815   1.848   4.712   0.585 -0.0263  2.2453 -0.7326
12108TIP3    H257816   1.721   4.793   0.605 -0.9181  0.3837  1.8016
12109TIP3   OH257817   0.017   5.165   1.285  0.2233  0.1291 -0.1765
12109TIP3    H157818   0.086   5.116   1.330 -1.3848 -2.4082 -0.2684
12109TIP3    H257819  -0.002   5.238   1.344  0.5637 -1.1497  1.5953
12110TIP3   OH257820   4.673   3.571  14.979 -0.4629 -0.2173 -0.6516
12110TIP3    H157821   4.598   3.604  14.929  0.5559  0.2529 -1.9175
12110TIP3    H257822   4.699   3.644  15.035 -1.1873 -0.5216  0.1049
12111TIP3   OH257823   0.137   5.053  14.612  0.6225 -0.1202  0.1491
12111TIP3    H157824   0.210   5.032  14.671 -0.1883 -2.7858  0.3361
12111TIP3    H257825   0.063   5.004  14.647 -0.6638  0.5890 -1.4308
12112TIP3   OH257826   1.640   1.110  12.905 -0.2303 -0.2269 -0.3237
12112TIP3    H157827   1.650   1.176  12.973  0.8773 -2.6795  2.1184
12112TIP3    H257828   1.693   1.141  12.832 -1.3522  2.4479 -0.1086
12113TIP3   OH257829   5.558   3.474   3.391  0.0356  0.2752  0.9275
12113TIP3    H157830   5.555   3.450   3.299  1.0988 -1.4999  1.3093
12113TIP3    H257831   5.579   3.567   3.391  0.9712  0.0964 -0.6187
12114TIP3   OH257832   5.881   4.663  13.708 -0.4115  0.0909 -0.1051
12114TIP3    H157833   5.943   4.701  13.646 -1.2419  0.7415 -0.5612
12114TIP3    H257834   5.802   4.647  13.656 -1.4584  1.5277  0.9491
12115TIP3   OH257835   5.936   3.032   2.358 -0.1842 -0.0647 -1.1006
12115TIP3    H157836   5.854   3.081   2.351 -1.2013 -1.5293 -0.0617
12115TIP3    H257837   6.004   3.099   2.355 -1.3858  1.1593 -2.3823
12116TIP3   OH257838   6.617   2.082  14.394  0.0903  0.3980  0.5500
12116TIP3    H157839   6.689   2.019  14.390 -0.6907 -0.6527  1.9404
12116TIP3    H257840   6.551   2.048  14.335 -0.1660  0.1195  0.9906
12117TIP3   OH257841   1.434   6.628  12.328  0.5368 -0.0880  0.3304
12117TIP3    H157842   1.400   6.718  12.333 -1.1289 -0.5265 -1.7710
12117TIP3    H257843   1.411   6.589  12.412 -1.2501  0.6407  0.2123
12118TIP3   OH257844   1.200   6.458   2.697 -0.1354 -0.0948 -0.4669
12118TIP3    H157845   1.206   6.405   2.617 -1.2386  2.1353 -2.1323
12118TIP3    H257846   1.169   6.544   2.667  0.8025  1.2860  2.1941
12119TIP3   OH257847   3.772   3.133  16.737 -0.0773  0.3649 -0.1706
12119TIP3    H157848   3.820   3.204  16.778  1.7033 -0.4032 -0.7930
12119TIP3    H257849   3.841   3.073  16.706 -1.4712 -0.9894 -0.7661
12120TIP3   OH257850   0.968   4.251  14.570  0.1907  0.3231  0.4413
12120TIP3    H157851   0.877   4.258  14.541  0.4948 -0.9685 -0.9681
12120TIP3    H257852   0.962   4.237  14.664 -0.9442  2.5011  0.7618
12121TIP3   OH257853   4.106   3.469   3.300 -0.1839  0.4934 -0.6058
12121TIP3    H157854   4.191   3.460   3.342 -0.7667 -0.9969  0.3328
12121TIP3    H257855   4.059   3.533   3.354  0.4662  1.6514 -1.3795
12122TIP3   OH257856   0.423   5.566  13.256  0.0493  0.1645  0.1425
12122TIP3    H157857   0.353   5.629  13.272 -0.5030 -0.0888 -1.1529
12122TIP3    H257858   0.390   5.511  13.185  1.4603 -0.1395 -0.3041
12123TIP3   OH257859   1.525   4.456  14.523 -0.0612  0.1032  0.2068
12123TIP3    H157860   1.512   4.381  14.464 -0.2209  0.6555 -0.4739
12123TIP3    H257861   1.451   4.453  14.583 -0.6076  0.2888 -0.4509
12124TIP3   OH257862   5.895   2.579   2.115 -0.0578  0.2300 -0.2593
12124TIP3    H157863   5.877   2.614   2.028 -2.3674 -0.4860 -0.1539
12124TIP3    H257864   5.861   2.490   2.112  2.9425 -1.0487  0.3945
12125TIP3   OH257865   0.377   0.137  11.980 -0.3668 -0.0530  0.0311
12125TIP3    H157866   0.375   0.091  12.064  0.4644 -1.6256 -0.7633
12125TIP3    H257867   0.419   0.075  11.920 -0.2456  1.3274 -1.3696
12126TIP3   OH257868   5.369   2.161  15.653 -0.3221  0.1924 -0.3649
12126TIP3    H157869   5.456   2.119  15.654 -0.0272  0.7333 -1.3728
12126TIP3    H257870   5.325   2.120  15.578 -0.8571  0.0948 -0.0002
12127TIP3   OH257871   2.951   2.207   0.239  0.2332  0.9730 -0.1079
12127TIP3    H157872   2.938   2.212   0.145  2.4252 -1.4354 -0.6795
12127TIP3    H257873   3.040   2.239   0.253  0.0444  1.0331  1.0985
12128TIP3   OH257874   1.871   5.903  12.928  0.0578 -0.2659  0.0962
12128TIP3    H157875   1.817   5.888  12.850 -0.7258 -1.5640  0.8569
12128TIP3    H257876   1.841   5.987  12.962 -1.1298 -0.7267  0.2160
12129TIP3   OH257877   1.354   6.531   4.714 -0.2724 -0.1242  0.0611
12129TIP3    H157878   1.427   6.563   4.661  1.8385 -3.4216  0.6427
12129TIP3    H257879   1.366   6.572   4.799  0.2141  0.2427 -0.1814
12130TIP3   OH257880   2.423   4.160   0.499  0.0823  0.2419 -0.0703
12130TIP3    H157881   2.513   4.184   0.522  0.4256 -1.1951  0.1788
12130TIP3    H257882   2.430   4.071   0.464 -1.2083  0.2288 -0.3433
12131TIP3   OH257883   1.189   0.338   0.906  0.3820  0.6424  0.1756
12131TIP3    H157884   1.211   0.361   0.996 -0.1261  0.7754  0.2685
12131TIP3    H257885   1.271   0.308   0.868  0.6790  0.9479  0.5721
12132TIP3   OH257886   2.461   5.295   1.542 -0.0696  0.3999  0.0323
12132TIP3    H157887   2.369   5.270   1.537 -0.2754 -0.2104  4.0265
12132TIP3    H257888   2.507   5.226   1.494 -1.4870 -1.1698  0.8201
12133TIP3   OH257889   0.257   6.133  12.107 -0.4138 -0.2288  0.1993
12133TIP3    H157890   0.260   6.162  12.198 -2.2138 -2.5383  1.0857
12133TIP3    H257891   0.226   6.210  12.059 -1.7026  0.3806  1.9072
12134TIP3   OH257892   0.167   4.281   0.940  0.0967  0.2180  0.1666
12134TIP3    H157893   0.174   4.235   1.023  0.6246 -1.0946 -0.5707
12134TIP3    H257894   0.257   4.298   0.913 -0.0713  0.8482 -0.0443
12135TIP3   OH257895   0.512   6.864   0.147 -0.1479  0.1711 -0.3365
12135TIP3    H157896   0.559   6.947   0.159 -1.3067  1.1281 -1.9236
12135TIP3    H257897   0.426   6.880   0.186 -0.3538 -0.2999 -0.5862
12136TIP3   OH257898   3.245   0.742   1.479  0.4029 -0.5136 -0.1593
12136TIP3    H157899   3.233   0.680   1.408 -0.4004  0.7036 -1.1299
12136TIP3    H257900   3.227   0.828   1.440  3.0436  0.5573  0.6732
12137TIP3   OH257901   6.421   5.140   5.774 -0.0304  0.1648  0.3229
12137TIP3    H157902   6.339   5.092   5.778  0.7130 -1.0792  1.6656
12137TIP3    H257903   6.402   5.216   5.720 -1.6913 -0.7964 -0.5297
12138TIP3   OH257904   0.605   6.065  11.708  0.1330 -0.3676 -0.3096
12138TIP3    H157905   0.694   6.030  11.709  0.5015  0.5398 -0.1344
12138TIP3    H257906   0.564   6.025  11.631  0.5916 -1.0206 -0.2189
12139TIP3   OH257907   3.823   3.551   2.196 -0.4710 -0.2275 -0.0586
12139TIP3    H157908   3.773   3.492   2.253 -0.9482  0.3497  0.1367
12139TIP3    H257909   3.757   3.608   2.157  0.1619  2.0498  1.9446
12140TIP3   OH257910   4.937   0.492   3.170  0.5622 -0.3411 -0.0870
12140TIP3    H157911   4.952   0.400   3.192 -1.0356 -0.4419  0.7486
12140TIP3    H257912   4.882   0.489   3.092  1.6063 -0.0454 -0.8632
12141TIP3   OH257913   5.756   1.747   4.400  0.8131 -0.3163  0.2491
12141TIP3    H157914   5.851   1.755   4.412  0.8277 -1.0225  0.6795
12141TIP3    H257915   5.720   1.747   4.489  0.3529  0.4789  0.0729
12142TIP3   OH257916   0.732   2.922   2.369  0.4913  0.2183 -0.0874
12142TIP3    H157917   0.654   2.973   2.350  0.0279 -1.7692 -4.8356
12142TIP3    H257918   0.805   2.974   2.336  1.1061  1.1178  2.4068
12143TIP3   OH257919   3.905   2.498  11.541 -0.2284 -0.4341  0.2383
12143TIP3    H157920   3.941   2.416  11.507 -0.8879 -1.2465  1.4281
12143TIP3    H257921   3.959   2.566  11.501 -0.7047 -1.3404 -2.0853
12144TIP3   OH257922   6.738   4.155   0.111 -0.6527 -0.2137 -0.1472
12144TIP3    H157923   6.740   4.063   0.087  0.3734 -0.3619  0.4580
12144TIP3    H257924   6.805   4.196   0.057 -0.9468  0.1403 -0.2488
12145TIP3   OH257925   2.076   2.159  16.176  0.1232 -0.1303 -0.5139
12145TIP3    H157926   2.128   2.205  16.243  0.1361  1.7348 -1.7273
12145TIP3    H257927   2.090   2.066  16.194  0.5005  0.3117  1.7690
12146TIP3   OH257928   1.170   3.774  14.501  0.0781  0.4102  0.0658
12146TIP3    H157929   1.191   3.704  14.439 -0.0719  0.6240 -0.2270
12146TIP3    H257930   1.075   3.781  14.497 -0.1063 -0.7658  1.6144
12147TIP3   OH257931   4.816   6.139  13.583 -0.6070 -0.3507  0.0840
12147TIP3    H157932   4.854   6.196  13.650 -2.9321  0.5786  0.7219
12147TIP3    H257933   4.815   6.192  13.504  1.3627 -1.1528 -0.5235
12148TIP3   OH257934   3.888   0.157  15.265 -0.0951 -0.1274 -0.3027
12148TIP3    H157935   3.834   0.106  15.326  1.6427 -0.7984  0.7394
12148TIP3    H257936   3.934   0.219  15.320  1.3462 -0.5984 -0.9410
12149TIP3   OH257937   0.466   0.072  14.620  0.3213 -0.3244 -0.1208
12149TIP3    H157938   0.408   0.055  14.545  1.7205  0.7946 -1.5313
12149TIP3    H257939   0.419   0.136  14.673 -0.8276 -1.3622  0.1587
12150TIP3   OH257940   3.229   4.720  13.017 -0.2725  0.5141 -0.5293
12150TIP3    H157941   3.293   4.791  13.005 -0.1402  0.4447 -0.2444
12150TIP3    H257942   3.277   4.640  12.998 -0.0320  0.3948  0.5175
12151TIP3   OH257943   6.732   2.029   4.011  0.0238  0.1061  0.4243
12151TIP3    H157944   6.687   1.977   3.945  0.5188 -0.5687  0.6041
12151TIP3    H257945   6.808   1.976   4.036  0.4154  0.8094  0.7838
12152TIP3   OH257946   6.735   6.828   5.386  0.2133 -0.0683 -0.1138
12152TIP3    H157947   6.796   6.814   5.458 -0.4715  0.5297  0.6070
12152TIP3    H257948   6.698   6.742   5.368 -1.6125  0.1317  2.1152
12153TIP3   OH257949   0.717   0.972  14.405  0.0840  0.2083 -0.0776
12153TIP3    H157950   0.753   0.933  14.484  1.3272 -1.8654 -1.5688
12153TIP3    H257951   0.762   1.056  14.397 -0.8723  0.9718  1.9301
12154TIP3   OH257952   4.690   4.477   0.705 -0.5501 -0.0219  0.0772
12154TIP3    H157953   4.713   4.393   0.745  1.1598 -0.0414 -0.8497
12154TIP3    H257954   4.608   4.461   0.660 -0.1434 -1.2606 -0.2646
12155TIP3   OH257955   4.152   4.400   5.124 -1.1592 -0.1081 -0.0203
12155TIP3    H157956   4.186   4.345   5.053 -2.3162 -1.8026  0.6882
12155TIP3    H257957   4.154   4.489   5.088  0.6725 -0.5834 -1.2418
12156TIP3   OH257958   3.722   2.693  13.821 -0.2769 -0.1421  0.5233
12156TIP3    H157959   3.708   2.736  13.737 -1.5756 -1.6450 -0.1025
12156TIP3    H257960   3.802   2.642  13.809 -0.4048 -0.2767  0.2286
12157TIP3   OH257961   1.215   0.448  15.677  0.0762 -0.1340 -0.0766
12157TIP3    H157962   1.259   0.366  15.656  0.2943 -0.6004  2.0221
12157TIP3    H257963   1.272   0.490  15.741 -0.6252  1.1169 -0.2346
12158TIP3   OH257964   1.711   3.926   6.124  0.5814  0.2831  0.0641
12158TIP3    H157965   1.670   3.848   6.160 -1.5025  0.4037 -1.8436
12158TIP3    H257966   1.688   3.996   6.185  1.1315 -0.2918  0.9532
12159TIP3   OH257967   0.014   4.641  13.247 -0.5192 -0.0443 -0.2697
12159TIP3    H157968  -0.045   4.663  13.175 -0.0623 -1.3942 -1.1130
12159TIP3    H257969  -0.044   4.625  13.322 -1.1478 -0.2204 -0.7801
12160TIP3   OH257970   5.312   6.122  10.977  0.0995 -0.2891  0.7163
12160TIP3    H157971   5.235   6.161  11.017  2.0015  2.0290  2.4708
12160TIP3    H257972   5.280   6.081  10.897 -2.5686  2.9908 -0.1288
12161TIP3   OH257973   0.601   0.160  14.877  0.2385 -0.0802  0.0699
12161TIP3    H157974   0.543   0.224  14.838  2.5592  1.9358 -0.3045
12161TIP3    H257975   0.611   0.093  14.810  0.5549  0.9907 -0.9849
12162TIP3   OH257976   2.920   5.013   1.709  0.1747  0.3151 -0.2036
12162TIP3    H157977   2.829   4.995   1.684  0.2658 -0.6578  0.1183
12162TIP3    H257978   2.915   5.091   1.763 -0.6815 -0.6218  1.1346
12163TIP3   OH257979   6.158   6.080   2.082 -0.1244 -0.2106  0.1937
12163TIP3    H157980   6.112   6.156   2.117 -0.0942 -0.9081  1.8305
12163TIP3    H257981   6.135   6.008   2.141  2.3536 -0.7790  0.6112
12164TIP3   OH257982   0.017   5.346  14.007  0.3525 -0.2003  0.3596
12164TIP3    H157983  -0.067   5.312  14.038 -0.5494  0.9900 -0.6827
12164TIP3    H257984   0.083   5.293  14.053 -0.8970  0.2755  2.8611
12165TIP3   OH257985   3.728   0.101   2.604  0.3268  0.4783 -0.2864
12165TIP3    H157986   3.746   0.069   2.515  0.2624 -0.3738  0.0010
12165TIP3    H257987   3.784   0.048   2.660 -4.0780 -3.6744  0.8779
12166TIP3   OH257988   3.678   4.027   1.471 -0.1399 -0.1335 -0.2075
12166TIP3    H157989   3.751   4.088   1.482 -0.8088  0.3126  2.4668
12166TIP3    H257990   3.670   4.017   1.376  1.1625  2.5241 -0.7057
12167TIP3   OH257991   6.025   3.534  15.443  0.2385  0.3765  0.4768
12167TIP3    H157992   6.045   3.459  15.500  3.2916  0.9891  0.4131
12167TIP3    H257993   6.048   3.611  15.496  0.6247  1.0690 -0.6541
12168TIP3   OH257994   1.990   5.906   1.841 -0.5061  0.5799 -0.0300
12168TIP3    H157995   1.937   5.847   1.788 -0.2577  0.1019  0.2444
12168TIP3    H257996   2.026   5.850   1.911 -0.3774  1.0804  0.3122
12169TIP3   OH257997   1.120   1.326   3.538  0.2258 -0.2356 -0.1689
12169TIP3    H157998   1.112   1.233   3.561 -1.3209 -0.4456 -1.3891
12169TIP3    H257999   1.139   1.326   3.444  0.9737  0.6959 -0.0369
12170TIP3   OH258000   0.487   0.056   4.044  0.1536 -0.2869  0.2618
12170TIP3    H158001   0.479   0.127   3.980 -0.0766 -0.7840 -0.2690
12170TIP3    H258002   0.423   0.077   4.111 -0.5759 -0.4809 -0.3652
12171TIP3   OH258003   6.313   4.766  14.449  0.1408 -0.4233 -0.0417
12171TIP3    H158004   6.344   4.717  14.373  1.6292  1.0357 -0.4261
12171TIP3    H258005   6.281   4.849  14.413  2.6303  1.1022  1.0068
12172TIP3   OH258006   0.382   6.616   3.098 -0.2813  0.2849  0.0276
12172TIP3    H158007   0.338   6.535   3.073 -0.7936  0.8820 -1.0858
12172TIP3    H258008   0.475   6.599   3.081 -0.4653  0.1689 -0.9735
12173TIP3   OH258009   1.292   1.581  13.265  0.1853  0.1011  0.0446
12173TIP3    H158010   1.352   1.627  13.323  0.1876  1.3464 -0.8756
12173TIP3    H258011   1.238   1.651  13.227  0.4274 -0.5998 -1.7025
12174TIP3   OH258012   6.345   4.220   3.639 -0.5948  0.0080  0.2044
12174TIP3    H158013   6.358   4.162   3.564  4.1015  1.4842 -0.4570
12174TIP3    H258014   6.360   4.165   3.716 -1.0961 -0.6394 -0.1584
12175TIP3   OH258015   2.396   5.236  15.981 -0.7610  0.2395  0.3580
12175TIP3    H158016   2.387   5.167  15.915 -1.0584  1.2748 -0.7073
12175TIP3    H258017   2.338   5.208  16.052 -1.4364 -0.2458 -0.3669
12176TIP3   OH258018   0.509   2.734   0.804 -0.2629  0.5953 -0.3555
12176TIP3    H158019   0.498   2.829   0.817  0.4627  0.6973 -0.4672
12176TIP3    H258020   0.598   2.716   0.834 -0.9218 -0.3196  1.1523
12177TIP3   OH258021   6.630   1.011   6.109 -0.3346  0.2848  0.4233
12177TIP3    H158022   6.699   1.011   6.175  1.5241  0.0899 -1.3994
12177TIP3    H258023   6.568   0.945   6.138  1.2897 -0.9942  1.1570
12178TIP3   OH258024   5.919   4.135   2.410  0.7702  0.1173 -0.4810
12178TIP3    H158025   5.980   4.072   2.449 -0.3336 -0.2884  0.6695
12178TIP3    H258026   5.908   4.203   2.477 -2.1202 -1.2185  0.5664
12179TIP3   OH258027   0.959   3.312  12.045 -0.1951  0.3170 -0.4302
12179TIP3    H158028   1.027   3.361  11.999  0.1675 -1.7357 -2.2461
12179TIP3    H258029   0.999   3.288  12.129 -0.0676  2.2608  0.0992
12180TIP3   OH258030   5.186   3.355   0.516  0.1920 -0.2903  0.8195
12180TIP3    H158031   5.270   3.311   0.525 -0.4568 -1.4397  1.6224
12180TIP3    H258032   5.175   3.404   0.598 -0.2524 -0.7731  1.0567
12181TIP3   OH258033   2.566   3.327   0.498  0.3733 -0.2095 -0.0936
12181TIP3    H158034   2.616   3.264   0.447  1.7169 -0.2901  1.2576
12181TIP3    H258035   2.532   3.278   0.573  2.5804  0.8434  1.7229
12182TIP3   OH258036   6.539   4.415   2.672  0.3414  0.5607  0.0768
12182TIP3    H158037   6.543   4.496   2.621  0.3674  0.9046  0.6171
12182TIP3    H258038   6.623   4.372   2.654 -0.4419 -0.3235 -1.7620
12183TIP3   OH258039   1.740   3.196   5.539 -0.0951 -0.6249 -0.6444
12183TIP3    H158040   1.818   3.211   5.592  1.0902 -1.2153 -2.1392
12183TIP3    H258041   1.734   3.100   5.532 -2.9713 -0.7791  2.2514
12184TIP3   OH258042   2.191   3.860   4.191 -0.0766  0.6076  0.4096
12184TIP3    H158043   2.120   3.893   4.245 -0.4255  1.4959 -0.5630
12184TIP3    H258044   2.194   3.919   4.116  1.4404  0.3654  0.2411
12185TIP3   OH258045   1.658   6.594   3.816  0.5255 -0.5420  0.0895
12185TIP3    H158046   1.673   6.683   3.849 -0.2003 -0.7546  1.0483
12185TIP3    H258047   1.562   6.585   3.814  0.5103 -0.4598 -2.3696
12186TIP3   OH258048   0.545   5.614  12.389 -0.2495 -0.0350 -0.2056
12186TIP3    H158049   0.456   5.584  12.410 -0.7955  0.1801 -2.0794
12186TIP3    H258050   0.586   5.539  12.345  0.6069 -0.2085  0.8321
12187TIP3   OH258051   0.807   3.768   2.340  0.5619 -0.5589  0.3801
12187TIP3    H158052   0.825   3.685   2.296 -0.5144  0.3321 -1.8350
12187TIP3    H258053   0.782   3.828   2.271  1.7476  1.8055  1.8549
12188TIP3   OH258054   3.178   4.571  12.147  0.2289  0.0664  0.0427
12188TIP3    H158055   3.266   4.555  12.182  1.4178  2.9479 -1.3623
12188TIP3    H258056   3.126   4.499  12.183  2.9453 -1.3319  1.5703
12189TIP3   OH258057   1.535   2.749   4.825  0.1515 -0.2585  0.2984
12189TIP3    H158058   1.586   2.805   4.883 -0.8941 -0.2937  1.2923
12189TIP3    H258059   1.600   2.696   4.779  1.0552  0.4691  0.7170
12190TIP3   OH258060   4.154   5.750   3.444  0.1926 -0.2458  0.6887
12190TIP3    H158061   4.116   5.695   3.513  0.4491 -0.0460  0.9963
12190TIP3    H258062   4.098   5.827   3.442  0.4971 -0.0108  1.0498
12191TIP3   OH258063   4.167   3.618   0.994 -0.0394 -0.1602  0.5065
12191TIP3    H158064   4.155   3.533   0.951 -0.9570  0.8753 -1.4063
12191TIP3    H258065   4.221   3.668   0.933  1.0813  0.4257  1.9312
12192TIP3   OH258066   0.810   6.487   3.547 -0.1836  0.4567 -0.3083
12192TIP3    H158067   0.830   6.574   3.513 -0.0877  0.3528 -0.5213
12192TIP3    H258068   0.724   6.496   3.588 -0.5633  0.4551 -1.0830
12193TIP3   OH258069   4.945   1.937  13.995 -0.1596 -0.3112 -0.0722
12193TIP3    H158070   4.928   2.007  14.058  0.6137  0.0914 -0.3003
12193TIP3    H258071   4.882   1.952  13.925  0.8638  0.9791 -0.7646
12194TIP3   OH258072   3.164   3.498  13.689 -0.2271 -0.1497  0.4568
12194TIP3    H158073   3.160   3.459  13.776  0.3671 -1.7087 -0.1883
12194TIP3    H258074   3.155   3.592  13.705  0.1126 -0.3783  2.2109
12195TIP3   OH258075   4.299   3.995  12.741  0.7885 -0.2585  0.5756
12195TIP3    H158076   4.291   3.992  12.646  2.2364  1.6168  0.3313
12195TIP3    H258077   4.269   3.909  12.771  0.3288 -0.8878 -1.5583
12196TIP3   OH258078   3.786   2.974   0.210  0.3392  0.0648 -0.5777
12196TIP3    H158079   3.703   2.967   0.257  0.6020  0.6622 -0.0098
12196TIP3    H258080   3.761   2.969   0.117 -0.3289  0.1844 -0.4107
12197TIP3   OH258081   6.541   5.285  13.003  0.6825  0.0071  0.0959
12197TIP3    H158082   6.517   5.344  12.931  0.5857 -0.2089 -0.0503
12197TIP3    H258083   6.487   5.313  13.076  0.3408 -0.1572 -0.0895
12198TIP3   OH258084   0.749   2.111  11.318  0.1849  0.0206  0.1822
12198TIP3    H158085   0.726   2.071  11.402  0.8580  1.1924  0.9562
12198TIP3    H258086   0.827   2.162  11.337 -1.7938  3.5016 -0.1237
12199TIP3   OH258087   5.491   1.870   1.689 -0.6117  0.3907 -0.5440
12199TIP3    H158088   5.482   1.951   1.741  0.6759  0.9610 -1.1749
12199TIP3    H258089   5.559   1.820   1.734 -0.3442  0.3389 -1.0079
12200TIP3   OH258090   2.876   4.082   3.662 -0.0407  0.1035  0.6883
12200TIP3    H158091   2.962   4.126   3.662 -0.3025  0.7400 -1.6834
12200TIP3    H258092   2.892   3.998   3.620 -0.3962 -0.2555  1.2576
12201TIP3   OH258093   6.828   6.075  14.999 -0.6952  0.0825  0.2108
12201TIP3    H158094   6.756   6.078  15.062 -1.4174  1.4901 -0.6237
12201TIP3    H258095   6.862   6.164  14.998 -0.6561  0.0806 -1.3112
12202TIP3   OH258096   5.603   6.184   1.215 -0.1383  0.3016  0.2312
12202TIP3    H158097   5.669   6.196   1.284 -0.5536  0.2000  0.6523
12202TIP3    H258098   5.594   6.089   1.207  0.9805  0.2736 -1.0093
12203TIP3   OH258099   2.384   5.899   2.289 -0.5900 -0.3472  0.1785
12203TIP3    H158100   2.393   5.847   2.369  1.8063  0.6014  0.6317
12203TIP3    H258101   2.466   5.949   2.284 -1.1535  0.4745 -2.2856
12204TIP3   OH258102   4.014   5.164   5.028 -0.2422  0.2899 -0.2396
12204TIP3    H158103   3.946   5.218   4.988  0.0927  0.2024 -0.9346
12204TIP3    H258104   4.073   5.227   5.069  0.0096  0.4457 -0.8309
12205TIP3   OH258105   5.914   1.039   2.070  0.5090  0.7984  0.3907
12205TIP3    H158106   5.953   1.120   2.037 -0.5136  1.1158 -0.0914
12205TIP3    H258107   5.906   0.984   1.992 -1.7924  1.4966  0.0749
12206TIP3   OH258108   1.856   5.948   1.550  0.4479  0.5602  0.1060
12206TIP3    H158109   1.916   6.010   1.591  0.4876  1.5133 -1.2970
12206TIP3    H258110   1.775   5.955   1.599  0.9005  0.6662  0.8441
12207TIP3   OH258111   4.756   3.508   2.370  0.7116  0.3339  0.5590
12207TIP3    H158112   4.794   3.554   2.445  0.7682  0.7342  0.2869
12207TIP3    H258113   4.761   3.416   2.394 -0.0451  0.4960  1.4110
12208TIP3   OH258114   1.157   2.782  12.752 -0.3181  0.0371 -0.9437
12208TIP3    H158115   1.191   2.754  12.667  0.9467  1.0567 -0.8028
12208TIP3    H258116   1.158   2.702  12.805 -2.4570 -0.9545 -2.2232
12209TIP3   OH258117   3.622   0.478  14.774 -0.2421 -0.1572  0.2148
12209TIP3    H158118   3.688   0.460  14.841  1.4992  0.8945 -1.1123
12209TIP3    H258119   3.660   0.549  14.722 -2.6094  0.7518 -0.4086
12210TIP3   OH258120   4.495   6.336  16.527 -0.0375  0.2796  0.4450
12210TIP3    H158121   4.561   6.275  16.562 -0.8043 -0.8542 -0.0243
12210TIP3    H258122   4.462   6.293  16.448 -0.8497  1.1539  0.2881
12211TIP3   OH258123   1.339   5.987   3.427  0.1618  0.1868  0.8405
12211TIP3    H158124   1.425   5.984   3.470 -0.3349 -0.0647  1.8582
12211TIP3    H258125   1.281   6.026   3.493 -0.7154 -0.5754  0.5400
12212TIP3   OH258126   1.579   6.418   3.019  0.3310  0.1711  0.2889
12212TIP3    H158127   1.574   6.465   3.103 -1.7859 -1.6773  1.2931
12212TIP3    H258128   1.491   6.382   3.007  1.3825 -2.0641 -1.2807
12213TIP3   OH258129   6.817   0.053  13.082  0.4840  0.1710 -0.3626
12213TIP3    H158130   6.856  -0.016  13.027 -0.2511  0.5225 -1.3591
12213TIP3    H258131   6.888   0.116  13.095  1.0281 -0.5292  0.1620
12214TIP3   OH258132   4.002   4.385  13.433  0.4220 -0.0422 -0.1684
12214TIP3    H158133   4.020   4.463  13.486 -0.0353 -0.9355  1.3734
12214TIP3    H258134   3.945   4.417  13.363  1.5787  1.3018 -0.5675
12215TIP3   OH258135   3.858   3.285   4.577 -0.1264  0.0505  0.5274
12215TIP3    H158136   3.775   3.274   4.531 -0.7199  0.5224  1.4583
12215TIP3    H258137   3.836   3.275   4.669  0.9596 -0.3922  0.7568
12216TIP3   OH258138   1.517   0.853   1.215 -0.2937  0.7507 -0.3442
12216TIP3    H158139   1.464   0.804   1.278  0.1914 -1.7597 -1.7220
12216TIP3    H258140   1.607   0.825   1.232 -0.1003  0.4053 -1.7749
12217TIP3   OH258141   2.983   3.397  12.642  0.4184 -0.1544  0.3057
12217TIP3    H158142   3.074   3.413  12.670 -0.1126  2.7396  0.7736
12217TIP3    H258143   2.932   3.406  12.722 -0.3491 -1.3450 -0.0322
12218TIP3   OH258144   3.928   2.225  14.946  0.0181  0.3480 -0.2676
12218TIP3    H158145   3.977   2.205  15.025 -1.7009 -1.5398  0.3969
12218TIP3    H258146   3.908   2.318  14.952  2.2996  0.8652  0.0811
12219TIP3   OH258147   6.649   5.225  16.357 -0.2732  0.7567 -0.2591
12219TIP3    H158148   6.651   5.140  16.312  1.6383 -0.9494  2.7313
12219TIP3    H258149   6.734   5.264  16.339  0.8399 -0.3072  2.2921
12220TIP3   OH258150   0.562   3.983   1.969  0.1857 -0.2524  0.0833
12220TIP3    H158151   0.474   4.002   1.935  0.2818  0.9843  0.4513
12220TIP3    H258152   0.547   3.917   2.037 -0.4393 -0.2462 -0.0398
12221TIP3   OH258153   1.861   2.888  11.389  0.4533 -0.1936 -0.1394
12221TIP3    H158154   1.772   2.914  11.409  1.1649  1.7514  0.6654
12221TIP3    H258155   1.899   2.864  11.474  0.7501 -0.8953 -0.4588
12222TIP3   OH258156   3.186   5.868   2.805 -0.5212  0.3884 -0.5140
12222TIP3    H158157   3.277   5.891   2.786 -0.2452  1.0173  1.3062
12222TIP3    H258158   3.136   5.906   2.732  0.6283  0.3832 -1.3289
12223TIP3   OH258159   6.133   1.370   2.602  0.0933 -0.2238 -0.5209
12223TIP3    H158160   6.227   1.357   2.588  0.0876 -0.5864 -0.2329
12223TIP3    H258161   6.114   1.453   2.559  0.3367 -0.6608 -1.5006
12224TIP3   OH258162   1.595   6.823  14.811  0.3931  0.5110 -0.0430
12224TIP3    H158163   1.584   6.885  14.738 -0.2174  0.1051 -0.3027
12224TIP3    H258164   1.556   6.741  14.779 -0.2523  0.4394  0.8845
12225TIP3   OH258165   3.103   0.157  16.333 -0.0510  0.2938 -0.2190
12225TIP3    H158166   3.101   0.062  16.331 -0.2345  0.2826 -2.5988
12225TIP3    H258167   3.026   0.181  16.385  0.2543 -0.8461  0.7876
12226TIP3   OH258168   6.502   6.465  16.762  0.0033 -0.3739  0.0283
12226TIP3    H158169   6.566   6.514  16.709  0.0803  0.1484  0.5852
12226TIP3    H258170   6.428   6.524  16.771 -0.6124 -1.0260 -0.7072
12227TIP3   OH258171   6.285   4.751   0.285 -0.2565 -0.1295  0.1242
12227TIP3    H158172   6.195   4.784   0.291 -0.1265  0.1066  0.8744
12227TIP3    H258173   6.311   4.735   0.376  0.7993  0.7281 -0.0009
12228TIP3   OH258174   3.346   3.641   0.253 -0.8333  0.3985  0.5655
12228TIP3    H158175   3.404   3.624   0.327  1.1306 -0.6013 -1.0976
12228TIP3    H258176   3.292   3.563   0.246  0.8003 -0.6878 -0.5830
12229TIP3   OH258177   2.146   4.087  14.488 -0.4219 -0.0085 -0.2894
12229TIP3    H158178   2.205   4.042  14.548  0.8065  1.3696 -0.4174
12229TIP3    H258179   2.068   4.105  14.540 -0.1104 -0.4817  0.3480
12230TIP3   OH258180   6.303   3.945  15.411  0.0829  0.2874  0.2426
12230TIP3    H158181   6.212   3.936  15.438  0.4040 -2.0429  0.7222
12230TIP3    H258182   6.322   3.865  15.363  1.4740  1.4022 -1.1438
12231TIP3   OH258183   6.373   3.249   3.588 -0.2952  0.1513 -0.3969
12231TIP3    H158184   6.337   3.274   3.673 -1.2804 -0.2795 -0.6735
12231TIP3    H258185   6.324   3.301   3.525 -1.3562 -1.3462 -0.8710
12232TIP3   OH258186   1.524   3.919  11.002  0.2680 -0.5308  0.1728
12232TIP3    H158187   1.613   3.884  10.994  0.2169 -0.6588  0.1652
12232TIP3    H258188   1.537   4.012  11.024  0.4025 -0.4350 -0.3067
12233TIP3   OH258189   2.121   6.768   0.444 -0.1930  0.1843 -0.3167
12233TIP3    H158190   2.173   6.698   0.405 -1.0380 -0.9729  0.5766
12233TIP3    H258191   2.117   6.747   0.537 -0.7691  1.2296 -0.0816
12234TIP3   OH258192   0.343   2.162  16.559  0.5176 -0.1162 -0.1596
12234TIP3    H158193   0.285   2.092  16.527  0.2824 -1.4044  2.7600
12234TIP3    H258194   0.431   2.125  16.552  0.4284 -0.5787  0.9973
12235TIP3   OH258195   1.508   6.556  16.263 -0.0057 -0.2962 -0.8005
12235TIP3    H158196   1.530   6.649  16.256 -0.2032 -0.3867 -3.1997
12235TIP3    H258197   1.593   6.512  16.262  0.2114 -0.1499  2.1063
12236TIP3   OH258198   1.535   1.156   3.235  0.1276 -0.2491  0.2648
12236TIP3    H158199   1.469   1.090   3.212 -0.7208 -0.1507  2.2394
12236TIP3    H258200   1.609   1.136   3.178 -0.3161 -2.5518  0.3867
12237TIP3   OH258201   4.692   4.466   6.260  0.3944  0.0063  1.0987
12237TIP3    H158202   4.679   4.553   6.222 -1.2754 -0.2748  0.9670
12237TIP3    H258203   4.609   4.420   6.246  1.4107 -1.8050  0.7188
12238TIP3   OH258204   5.553   2.288  15.173  0.1786  0.4435  0.0332
12238TIP3    H158205   5.622   2.345  15.207 -0.0799  1.0334 -0.3952
12238TIP3    H258206   5.569   2.203  15.213 -0.2204  1.1414  1.7448
12239TIP3   OH258207   3.847   2.517  12.320 -0.6755  0.3741 -0.9796
12239TIP3    H158208   3.815   2.429  12.338  1.0917 -0.1202 -0.0501
12239TIP3    H258209   3.883   2.547  12.404  2.0522  0.5219 -2.0939
12240TIP3   OH258210   1.541   0.961   3.491  0.2619  0.4797  0.0958
12240TIP3    H158211   1.448   0.985   3.487  0.1171 -0.1168 -0.1037
12240TIP3    H258212   1.564   0.938   3.401  1.1050  2.4602 -0.2512
12241TIP3   OH258213   2.335   0.511   1.019 -0.2923  0.3253 -0.3566
12241TIP3    H158214   2.393   0.495   0.945 -0.8317 -0.0102 -0.7095
12241TIP3    H258215   2.394   0.531   1.092  0.2454  0.5015 -0.8361
12242TIP3   OH258216   5.028   4.099   5.974 -0.4039  0.0387 -0.0826
12242TIP3    H158217   4.999   4.018   5.933 -1.2823  0.4966 -0.3857
12242TIP3    H258218   4.976   4.167   5.933 -0.0523  0.7020  0.5435
12243TIP3   OH258219   4.969   5.401   3.398  0.3919 -0.4270 -0.4436
12243TIP3    H158220   4.997   5.461   3.466  1.4607  1.3510 -2.3218
12243TIP3    H258221   5.005   5.438   3.317 -2.2633 -1.4315 -2.2381
12244TIP3   OH258222   0.414   5.048  16.415  0.5072  0.4517 -0.5083
12244TIP3    H158223   0.385   5.033  16.325  0.5500  0.5379 -0.5370
12244TIP3    H258224   0.345   5.010  16.469  0.7462 -0.0962 -0.5800
12245TIP3   OH258225   2.375   3.497   5.235  0.9391 -0.2248  0.3625
12245TIP3    H158226   2.324   3.499   5.154 -0.0368 -1.4843  0.9182
12245TIP3    H258227   2.331   3.559   5.293  1.5721  0.5913  0.0120
12246TIP3   OH258228   6.740   5.491  13.096 -0.4331 -0.3749  0.1212
12246TIP3    H158229   6.720   5.398  13.106 -1.8197 -0.3418 -1.7710
12246TIP3    H258230   6.698   5.515  13.013  0.1974  1.8607  0.4030
12247TIP3   OH258231   1.180   5.413  11.567 -0.0319 -0.0090  0.3364
12247TIP3    H158232   1.184   5.344  11.633  0.3888 -0.6985 -0.3876
12247TIP3    H258233   1.097   5.397  11.521 -0.5298  0.7260  0.9518
12248TIP3   OH258234   4.784   5.162  12.814 -0.2828 -0.0424 -0.4592
12248TIP3    H158235   4.857   5.223  12.821 -0.0845 -0.2888 -0.3416
12248TIP3    H258236   4.706   5.216  12.825 -0.1287  0.2680 -0.8747
12249TIP3   OH258237   3.243   5.098  11.616 -0.2531  0.0687  0.8677
12249TIP3    H158238   3.172   5.124  11.557 -0.5410 -1.2958  0.5842
12249TIP3    H258239   3.320   5.145  11.583 -0.3217 -0.9380 -0.8523
12250TIP3   OH258240   3.877   6.092   3.657 -0.0341  0.0852 -0.2691
12250TIP3    H158241   3.852   6.028   3.724  0.0888 -0.4598 -0.7423
12250TIP3    H258242   3.913   6.040   3.586  0.6916  0.7223 -0.3863
12251TIP3   OH258243   6.615   4.125  15.674  0.3979  0.7724 -0.4555
12251TIP3    H158244   6.595   4.031  15.670  1.4728  0.5230 -0.2851
12251TIP3    H258245   6.558   4.164  15.608 -0.6103  0.1092 -0.0180
12252TIP3   OH258246   4.984   4.258   5.456  0.0736 -0.1990 -0.3736
12252TIP3    H158247   4.938   4.330   5.413 -0.9190  0.6287  1.9419
12252TIP3    H258248   4.916   4.211   5.504  1.1107 -1.1206  0.2412
12253TIP3   OH258249   5.481   3.114  12.566  0.1436  0.7934 -0.7784
12253TIP3    H158250   5.567   3.083  12.596  0.6779  1.3943 -1.6541
12253TIP3    H258251   5.493   3.208  12.552 -1.0840  1.1915  0.5598
12254TIP3   OH258252   4.911   5.537   1.666 -0.3537 -0.1953  0.3225
12254TIP3    H158253   4.901   5.444   1.644 -0.7413  0.4621 -2.6156
12254TIP3    H258254   4.917   5.581   1.582  2.3203  2.2591  1.6451
12255TIP3   OH258255   5.417   5.629  13.447  0.0709 -0.5604  0.4487
12255TIP3    H158256   5.465   5.561  13.401  0.6015 -1.5788  2.4290
12255TIP3    H258257   5.351   5.582  13.498 -1.8020  0.6743 -0.7255
12256TIP3   OH258258   6.516   5.923   0.520 -0.2364 -0.3240  0.4137
12256TIP3    H158259   6.601   5.953   0.551 -0.0511 -0.9549  0.5101
12256TIP3    H258260   6.510   5.832   0.549 -0.5657 -0.5527 -0.3549
12257TIP3   OH258261   1.881   2.729  16.395 -0.0847  0.0648 -0.1362
12257TIP3    H158262   1.886   2.821  16.421  0.4025  0.3371 -1.1254
12257TIP3    H258263   1.951   2.686  16.443 -0.7270  0.0729  0.8284
12258TIP3   OH258264   0.868   4.798   6.580  0.2547  0.1714  0.4470
12258TIP3    H158265   0.901   4.801   6.670  2.0749  0.9880 -0.1863
12258TIP3    H258266   0.947   4.790   6.526 -0.8302 -0.9832 -1.0653
12259TIP3   OH258267   6.777   0.617   1.095 -0.0479 -0.6852 -0.1646
12259TIP3    H158268   6.716   0.648   1.028 -0.4950 -0.5719  0.2864
12259TIP3    H258269   6.759   0.524   1.104  0.0286 -0.7053 -0.2163
12260TIP3   OH258270   6.456   0.294  12.509  0.3106  0.0055  0.0616
12260TIP3    H158271   6.476   0.286  12.415 -0.1358  3.8229 -0.5239
12260TIP3    H258272   6.370   0.252  12.518  1.2570 -2.3042 -0.6813
12261TIP3   OH258273   5.925   4.716   0.033  0.5375  0.2757 -0.0928
12261TIP3    H158274   5.882   4.729   0.117  0.6654 -1.0191  0.1905
12261TIP3    H258275   5.903   4.794  -0.018 -0.3048  0.6463  0.8202
12262TIP3   OH258276   3.292   4.987  15.888 -0.0224  0.1605  0.2371
12262TIP3    H158277   3.379   4.979  15.927 -0.0845  0.1559  0.3758
12262TIP3    H258278   3.249   5.056  15.938 -0.4571 -0.5324  0.8538
12263TIP3   OH258279   4.563   5.503  15.484 -0.0355 -0.2684 -0.5027
12263TIP3    H158280   4.511   5.546  15.551  0.7453  0.1511 -0.1559
12263TIP3    H258281   4.621   5.444  15.533  0.2024 -0.3198 -0.8412
12264TIP3   OH258282   4.093   5.105  11.516 -0.0199  0.5494  0.2553
12264TIP3    H158283   4.046   5.032  11.556  0.2196 -2.1951 -3.8636
12264TIP3    H258284   4.181   5.100  11.552  0.2364 -1.8924 -0.5542
12265TIP3   OH258285   5.623   2.641  16.659 -0.1887  0.7959 -0.3397
12265TIP3    H158286   5.578   2.607  16.737 -0.8259  0.8519 -0.6725
12265TIP3    H258287   5.689   2.575  16.639 -0.0406  0.7671  0.2296
12266TIP3   OH258288   0.337   3.024   3.073 -0.0855  0.4554  0.3773
12266TIP3    H158289   0.251   2.992   3.100  0.7774 -0.2762  2.4626
12266TIP3    H258290   0.341   3.005   2.979 -1.3137 -1.6429  0.6786
12267TIP3   OH258291   2.728   4.413   4.429 -0.7117 -0.6389 -0.4012
12267TIP3    H158292   2.676   4.494   4.423 -0.6022 -0.6148 -1.1045
12267TIP3    H258293   2.663   4.343   4.429 -0.7376 -0.6704 -2.5052
12268TIP3   OH258294   3.976   4.932   5.185  0.0962 -0.2752  0.3414
12268TIP3    H158295   4.015   5.016   5.160 -1.2460  0.2872  0.0434
12268TIP3    H258296   3.953   4.891   5.102  0.0105 -0.5839  0.5156
12269TIP3   OH258297   3.066   0.968  16.162 -0.2308 -0.4128  0.2322
12269TIP3    H158298   3.009   0.947  16.237  0.2871 -1.4363  0.3682
12269TIP3    H258299   3.067   1.063  16.158 -1.2963 -0.3700  0.7376
12270TIP3   OH258300   2.991   6.353   3.307 -0.5716 -0.4844 -0.2282
12270TIP3    H158301   3.074   6.305   3.302  0.8314  1.8674 -1.9056
12270TIP3    H258302   2.947   6.334   3.224 -0.4367  0.3288 -0.4996
12271TIP3   OH258303   6.523   1.611  11.476  0.4426 -0.3749 -0.5571
12271TIP3    H158304   6.476   1.571  11.403 -0.4961 -1.1058  0.4048
12271TIP3    H258305   6.615   1.595  11.458  0.2149 -0.6675 -1.4970
12272TIP3   OH258306   0.303   1.981   1.058  0.2018  0.3758 -0.5188
12272TIP3    H158307   0.343   2.003   0.974 -0.3532  1.1057 -0.5993
12272TIP3    H258308   0.230   1.923   1.036  1.0846 -0.8194 -0.3855
12273TIP3   OH258309   4.700   1.220  14.958  0.0242  0.2774 -0.0578
12273TIP3    H158310   4.643   1.185  15.027 -1.9478 -0.7885 -2.1188
12273TIP3    H258311   4.666   1.307  14.940  1.0804  0.9026  0.8490
12274TIP3   OH258312   0.723   2.684  11.185  0.4952  0.4217  0.2863
12274TIP3    H158313   0.786   2.755  11.196  1.1106 -0.3607  2.2117
12274TIP3    H258314   0.638   2.727  11.189  0.8642  1.1049  1.0444
12275TIP3   OH258315   4.314   2.158   0.998 -0.1878  0.1866  0.0825
12275TIP3    H158316   4.244   2.211   1.035  0.3674 -0.8439  2.8783
12275TIP3    H258317   4.387   2.168   1.059  0.5299 -2.3056 -0.2371
12276TIP3   OH258318   0.218   5.882   3.363  0.2827  0.3447 -0.3227
12276TIP3    H158319   0.173   5.814   3.312  3.2726 -1.1893 -1.1071
12276TIP3    H258320   0.302   5.893   3.319  0.5906  3.3858  0.8188
12277TIP3   OH258321   2.732   3.898   2.219  0.3771  0.4511  0.8842
12277TIP3    H158322   2.651   3.882   2.268  0.7241  0.4587  1.4678
12277TIP3    H258323   2.781   3.816   2.227  0.2483  0.3023  0.1792
12278TIP3   OH258324   1.363   4.408   4.362 -0.3129 -0.3876 -0.1675
12278TIP3    H158325   1.441   4.454   4.393  0.7914 -1.6824 -0.9302
12278TIP3    H258326   1.396   4.347   4.297 -2.1266 -0.2077 -1.3119
12279TIP3   OH258327   0.934   1.614  11.841  0.5877 -0.1475 -0.2767
12279TIP3    H158328   0.941   1.653  11.754  1.1249  1.1673  0.3165
12279TIP3    H258329   0.948   1.521  11.828  0.6328  0.0371 -1.5981
12280TIP3   OH258330   4.153   2.904  12.968  0.5592  0.1464  0.1495
12280TIP3    H158331   4.228   2.869  12.919 -1.0040 -1.2887 -1.3906
12280TIP3    H258332   4.163   2.999  12.962  0.7455  0.0512 -2.6389
12281TIP3   OH258333   3.962   1.581  11.584  0.2097  0.0835 -0.3838
12281TIP3    H158334   3.957   1.661  11.636  0.1765  1.0101 -1.7421
12281TIP3    H258335   3.892   1.590  11.519  0.0043 -1.2048 -0.3616
12282TIP3   OH258336   6.174   6.327   3.818 -0.4728  0.0395  0.1114
12282TIP3    H158337   6.126   6.259   3.865  0.2599 -1.6823 -1.4607
12282TIP3    H258338   6.172   6.298   3.726 -0.2723  2.2626 -0.6571
12283TIP3   OH258339   1.701   4.976   1.080 -0.3704 -0.6653  0.1510
12283TIP3    H158340   1.787   4.995   1.120 -0.5296 -0.4987  0.4173
12283TIP3    H258341   1.721   4.954   0.989 -0.2098  0.9840 -0.2281
12284TIP3   OH258342   1.978   2.539  11.648 -0.2204 -0.2294 -0.1545
12284TIP3    H158343   1.962   2.633  11.649 -0.4157 -0.2332  1.7266
12284TIP3    H258344   2.066   2.529  11.684 -0.0200 -0.7467 -0.7725
12285TIP3   OH258345   5.945   2.111  12.844 -0.1269 -0.2127 -0.0445
12285TIP3    H158346   6.012   2.163  12.800  0.4150  0.1353  1.1315
12285TIP3    H258347   5.968   2.118  12.937  0.1753 -2.8380  0.1564
12286TIP3   OH258348   5.896   2.418   3.706 -0.6527 -0.2934 -0.1666
12286TIP3    H158349   5.969   2.358   3.694 -0.4831 -0.0977 -0.1133
12286TIP3    H258350   5.933   2.493   3.752 -0.9062 -0.2321 -0.0574
12287TIP3   OH258351   3.299   4.118   2.001 -0.4747  0.6389  0.2288
12287TIP3    H158352   3.225   4.059   1.990 -0.2223  0.4247 -0.3717
12287TIP3    H258353   3.346   4.085   2.077 -0.5918  0.3441  0.1736
12288TIP3   OH258354   0.240   1.858   1.757  0.2029  0.4231 -0.6987
12288TIP3    H158355   0.176   1.928   1.766 -0.1604  0.4965 -3.2070
12288TIP3    H258356   0.266   1.860   1.665  1.3907 -1.7056 -0.4870
12289TIP3   OH258357   2.565   6.151  16.510  0.5343  0.0762  0.0792
12289TIP3    H158358   2.570   6.065  16.468 -2.0096  0.7623 -1.8323
12289TIP3    H258359   2.477   6.154  16.548  0.7446  1.6565  0.5168
12290TIP3   OH258360   5.838   6.856  13.491 -0.0928  0.4304 -0.0387
12290TIP3    H158361   5.906   6.923  13.484 -0.3917  0.8480  0.8491
12290TIP3    H258362   5.882   6.780  13.530 -0.2003  0.8178  0.8577
12291TIP3   OH258363   2.550   4.036  15.861  0.1757  0.1555 -0.2695
12291TIP3    H158364   2.506   4.117  15.833 -1.4182 -0.1941  1.0667
12291TIP3    H258365   2.525   4.026  15.953 -2.3881 -3.4634 -1.1190
12292TIP3   OH258366   5.296   0.106   2.929  0.1555  0.5335 -0.3546
12292TIP3    H158367   5.372   0.072   2.881  0.2999  0.8196 -0.3342
12292TIP3    H258368   5.232   0.035   2.927  0.5861  0.1275 -0.0020
12293TIP3   OH258369   6.099   4.562   4.304 -0.4436  0.1396  0.1038
12293TIP3    H158370   6.034   4.594   4.367  0.0669  0.9688  0.2262
12293TIP3    H258371   6.123   4.639   4.253 -0.9827 -0.5570 -1.2604
12294TIP3   OH258372   2.423   6.723  14.550  0.0559  0.3097  0.4781
12294TIP3    H158373   2.398   6.652  14.491 -2.5531  0.3628  1.3980
12294TIP3    H258374   2.489   6.685  14.608  0.2771 -0.6946 -0.4179
12295TIP3   OH258375   0.284   0.871  13.362 -0.2073 -0.4123 -0.2652
12295TIP3    H158376   0.227   0.903  13.292  0.9342  0.4032 -0.8375
12295TIP3    H258377   0.317   0.788  13.329 -1.4057 -1.1280  0.2697
12296TIP3   OH258378   0.991   4.355   3.100  0.1314 -0.0530  0.4227
12296TIP3    H158379   1.076   4.357   3.056 -0.3498  2.5339 -0.5473
12296TIP3    H258380   0.929   4.330   3.031 -0.0327 -0.9137  0.8740
12297TIP3   OH258381   2.470   1.257  14.568  0.2044 -0.4779 -0.6691
12297TIP3    H158382   2.533   1.210  14.514  0.0862 -1.0320 -0.3402
12297TIP3    H258383   2.417   1.307  14.506  0.7153 -0.3068 -0.9755
12298TIP3   OH258384   6.624   2.798  16.320  0.5326 -0.3819 -0.4095
12298TIP3    H158385   6.666   2.726  16.273 -2.0362 -0.9509 -2.0077
12298TIP3    H258386   6.628   2.873  16.261  0.3079 -0.1306 -0.1146
12299TIP3   OH258387   6.756   1.574  14.856  0.6771  0.4169 -0.1499
12299TIP3    H158388   6.808   1.509  14.809 -1.1268 -0.6433 -0.7996
12299TIP3    H258389   6.666   1.541  14.850 -0.0978  2.2217  0.8029
12300TIP3   OH258390   1.237   6.248  10.902 -0.5785 -0.2727  0.3494
12300TIP3    H158391   1.212   6.282  10.816 -1.4575 -0.3666  0.5628
12300TIP3    H258392   1.161   6.263  10.957  0.5489  1.2971  1.5691
12301TIP3   OH258393   2.458   3.462   0.143 -0.1595  0.2302  0.5847
12301TIP3    H158394   2.384   3.474   0.083  0.3725 -0.1017 -0.1596
12301TIP3    H258395   2.444   3.374   0.179 -0.3713  0.3469  0.7843
12302TIP3   OH258396   2.371   3.953  16.520  0.0276 -0.1048 -0.0845
12302TIP3    H158397   2.295   3.913  16.478 -1.0627  1.9052 -0.1372
12302TIP3    H258398   2.335   4.010  16.587  1.4019  1.6745 -0.7735
12303TIP3   OH258399   1.195   1.962  16.399  0.3353  0.9889  0.1218
12303TIP3    H158400   1.278   1.913  16.399  0.8972  1.8312  1.9688
12303TIP3    H258401   1.129   1.896  16.420  0.4639  0.2570 -1.6124
12304TIP3   OH258402   4.191   6.827  14.185 -0.1478  0.6098 -0.4090
12304TIP3    H158403   4.116   6.768  14.190 -1.3924  2.2042  0.6827
12304TIP3    H258404   4.235   6.802  14.104 -0.1058 -2.3514  0.4044
12305TIP3   OH258405   4.844   6.657  13.875  0.3957  0.3186 -0.3442
12305TIP3    H158406   4.775   6.591  13.869 -0.2011  0.8859  0.0721
12305TIP3    H258407   4.803   6.729  13.922  0.9132  1.1381 -1.1166
12306TIP3   OH258408   3.282   1.686  11.112  0.5884 -0.1222  1.0017
12306TIP3    H158409   3.293   1.773  11.150  1.5482 -0.6056  1.8768
12306TIP3    H258410   3.287   1.701  11.017 -1.0772  0.9894  1.0336
12307TIP3   OH258411   3.396   4.050  11.919  1.3983 -0.3185 -0.5487
12307TIP3    H158412   3.372   4.103  11.843  2.0595 -0.1986 -0.6751
12307TIP3    H258413   3.396   3.960  11.887 -0.8613 -0.5504 -0.0626
12308TIP3   OH258414   4.932   2.632  14.625  0.0615 -0.0107  0.3436
12308TIP3    H158415   4.891   2.654  14.542 -0.3603 -1.2523  0.1995
12308TIP3    H258416   4.979   2.711  14.651 -1.1590  0.9311 -0.2510
12309TIP3   OH258417   6.232   4.860  15.350  0.5502  0.6978 -0.4387
12309TIP3    H158418   6.251   4.806  15.274  0.3921  1.8141 -1.2874
12309TIP3    H258419   6.318   4.883  15.386  0.6410  0.7701 -0.7030
12310TIP3   OH258420   2.918   6.390  15.426  0.1070 -0.4990 -0.1970
12310TIP3    H158421   2.887   6.475  15.396 -1.2599 -0.1031  2.1560
12310TIP3    H258422   3.014   6.398  15.423  0.1090  2.2432  2.6960
12311TIP3   OH258423   0.749   3.904  15.592  0.2498 -0.0477  0.5165
12311TIP3    H158424   0.770   3.813  15.569 -2.4814 -0.6980  0.2771
12311TIP3    H258425   0.745   3.950  15.508  0.0400 -0.0865  0.5059
12312TIP3   OH258426   4.072   3.445   4.277 -0.1400  0.2833 -0.4001
12312TIP3    H158427   4.159   3.432   4.315 -0.6160  0.1440  0.6845
12312TIP3    H258428   4.027   3.502   4.340 -0.7043  0.6864 -1.1498
12313TIP3   OH258429   0.522   2.347   5.914 -0.0428  0.2073  0.0319
12313TIP3    H158430   0.489   2.367   6.002 -0.4188 -0.6657  0.0910
12313TIP3    H258431   0.534   2.252   5.913 -0.5600  0.1446 -1.0398
12314TIP3   OH258432   5.175   2.284   2.166 -0.2145 -0.2086  0.0389
12314TIP3    H158433   5.240   2.323   2.109  1.3175 -1.5629  0.7722
12314TIP3    H258434   5.091   2.302   2.124  0.7894 -0.3260 -2.1072
12315TIP3   OH258435   1.986   6.454  13.986  0.1064  0.9018  0.2626
12315TIP3    H158436   2.044   6.379  13.993  0.8142  1.4387  0.3147
12315TIP3    H258437   2.036   6.527  14.024 -1.1117  1.1080  1.5989
12316TIP3   OH258438   3.085   6.760  12.684  0.4736 -0.0338 -0.1918
12316TIP3    H158439   3.081   6.831  12.748  0.1516 -0.2266  0.0036
12316TIP3    H258440   3.090   6.805  12.600 -0.5542  0.2370 -0.1253
12317TIP3   OH258441   2.064   2.712  12.793 -0.4805  0.5519 -0.0644
12317TIP3    H158442   2.109   2.696  12.710  2.7465 -1.0215  1.7614
12317TIP3    H258443   2.090   2.801  12.818  4.1680 -1.0341  2.0452
12318TIP3   OH258444   4.387   4.710   3.227 -0.0753  0.0340 -0.0629
12318TIP3    H158445   4.396   4.663   3.310  3.9489 -2.2467 -1.5082
12318TIP3    H258446   4.343   4.647   3.169  1.0537 -0.1658 -0.7392
12319TIP3   OH258447   0.497   1.200  15.381 -0.0620  0.2628 -0.7522
12319TIP3    H158448   0.485   1.277  15.327  1.1465  0.7046 -0.4083
12319TIP3    H258449   0.587   1.172  15.365  1.3887  2.0728  3.0361
12320TIP3   OH258450   1.418   4.397  12.781 -0.3220  0.2355 -0.3023
12320TIP3    H158451   1.430   4.302  12.782 -1.7843 -0.0026  2.1514
12320TIP3    H258452   1.494   4.431  12.828 -0.2585  0.2131 -0.3885
12321TIP3   OH258453   4.711   4.699  12.378 -0.0786 -0.4722 -0.0368
12321TIP3    H158454   4.628   4.657  12.398 -0.9903  0.6874 -1.1889
12321TIP3    H258455   4.687   4.776  12.326  1.6383  0.4779  0.4809
12322TIP3   OH258456   5.385   6.209  14.131 -0.2589  0.6599  0.1517
12322TIP3    H158457   5.365   6.255  14.050  0.7443 -1.0130 -1.1080
12322TIP3    H258458   5.463   6.252  14.165  0.8753 -0.2549 -1.1952
12323TIP3   OH258459   0.144   5.593  13.945 -0.4745  0.0159 -0.5481
12323TIP3    H158460   0.090   5.516  13.962 -1.3684  0.6679 -0.3834
12323TIP3    H258461   0.224   5.578  13.997 -0.2932 -1.1459 -1.1166
12324TIP3   OH258462   0.637   1.963  12.103  0.1751  0.7145 -0.1561
12324TIP3    H158463   0.544   1.950  12.124  0.8067  0.7033  2.9834
12324TIP3    H258464   0.658   1.892  12.043 -1.8381  0.8232 -1.0868
12325TIP3   OH258465   2.486   6.802   0.013 -0.1495 -0.5660 -0.2856
12325TIP3    H158466   2.486   6.877  -0.047 -0.0995  1.2721  1.9007
12325TIP3    H258467   2.576   6.769   0.011  0.2223  0.4155 -0.1240
12326TIP3   OH258468   5.357   4.823  10.504  0.4278  0.2826  0.6773
12326TIP3    H158469   5.356   4.727  10.499 -0.8032  0.3176 -0.8710
12326TIP3    H258470   5.369   4.842  10.597 -1.4817 -1.4302  1.3761
12327TIP3   OH258471   3.387   0.949  16.138 -0.5609 -0.7361  0.0809
12327TIP3    H158472   3.296   0.980  16.139 -0.6078 -0.8635 -0.2723
12327TIP3    H258473   3.385   0.867  16.188 -0.3523  0.0558  1.4185
12328TIP3   OH258474   0.706   4.177  14.966  0.4113 -0.1955  0.2415
12328TIP3    H158475   0.620   4.170  15.008 -0.5213  2.9241 -0.8437
12328TIP3    H258476   0.710   4.102  14.907 -0.4161 -1.8103  2.1130
12329TIP3   OH258477   2.441   3.918   1.446  0.5148 -0.2191 -0.3064
12329TIP3    H158478   2.418   3.938   1.537 -1.5935  1.4657 -1.1317
12329TIP3    H258479   2.516   3.974   1.428  1.0933 -0.7283  0.4184
12330TIP3   OH258480   1.436   3.814   0.827  0.1242  0.2364 -0.4169
12330TIP3    H158481   1.445   3.760   0.906 -1.6916 -0.2332 -0.4689
12330TIP3    H258482   1.414   3.901   0.861 -0.0088  0.1930 -0.3907
12331TIP3   OH258483   1.123   6.396   1.371  0.2620 -0.5953  0.2510
12331TIP3    H158484   1.132   6.491   1.376 -2.5260 -0.2996  1.0977
12331TIP3    H258485   1.196   6.362   1.424  2.1161  0.9331 -1.1590
12332TIP3   OH258486   5.719   0.812   3.069 -0.4787  0.0259  0.7987
12332TIP3    H158487   5.734   0.724   3.102 -1.0450 -0.4520 -0.1735
12332TIP3    H258488   5.633   0.807   3.027  0.7082  0.2481 -1.8249
12333TIP3   OH258489   5.930   6.042   1.499  0.0114 -0.0239 -0.1205
12333TIP3    H158490   5.955   5.960   1.457 -1.4157 -1.2285  1.2684
12333TIP3    H258491   5.875   6.087   1.434 -0.9995 -1.2000 -0.1142
12334TIP3   OH258492   0.808   3.098   0.056  0.0271 -0.0203 -0.4785
12334TIP3    H158493   0.720   3.066   0.039 -0.1513  0.9273 -1.4596
12334TIP3    H258494   0.814   3.180   0.007  0.9324  0.7282  0.8022
12335TIP3   OH258495   4.451   4.292  12.838 -0.2892 -0.1549  0.2384
12335TIP3    H158496   4.458   4.386  12.855 -1.1078 -0.0213 -0.0826
12335TIP3    H258497   4.397   4.287  12.759  1.5152 -0.8237 -1.0159
12336TIP3   OH258498   3.430   3.216   3.532 -0.1195 -0.0908 -0.1205
12336TIP3    H158499   3.487   3.215   3.455 -0.6701  0.5725 -0.5486
12336TIP3    H258500   3.432   3.307   3.562  2.6496 -0.9026  2.6285
12337TIP3   OH258501   2.128   6.006  14.166 -0.9503 -0.1430  0.1529
12337TIP3    H158502   2.129   5.911  14.173  0.0596 -0.1786 -0.2770
12337TIP3    H258503   2.158   6.037  14.251 -0.4306 -0.2400  0.0089
12338TIP3   OH258504   4.003   6.338   2.861 -0.4593  0.0499  0.0033
12338TIP3    H158505   3.993   6.384   2.777  0.8210 -0.0495 -0.2143
12338TIP3    H258506   4.025   6.248   2.837  0.5235  0.1647  0.4441
12339TIP3   OH258507   4.167   0.425  16.621 -0.1660  0.2373 -0.0463
12339TIP3    H158508   4.122   0.508  16.634  0.9253  1.2571 -2.1598
12339TIP3    H258509   4.254   0.438  16.658 -0.3841 -0.4174  0.7206
12340TIP3   OH258510   6.445   1.829  13.691 -0.6721 -0.9010 -0.0540
12340TIP3    H158511   6.496   1.816  13.771  1.1701  0.3323 -0.9673
12340TIP3    H258512   6.365   1.874  13.721 -0.2529 -0.9216  1.1477
12341TIP3   OH258513   4.348   2.795  13.195 -0.3069  0.2237 -0.3788
12341TIP3    H158514   4.390   2.717  13.159  1.2542  0.5700  0.5713
12341TIP3    H258515   4.278   2.815  13.134 -1.1917 -2.2937 -0.2919
12342TIP3   OH258516   1.980   1.719   5.630 -0.4770  0.2491 -0.5557
12342TIP3    H158517   1.978   1.749   5.721  2.0050 -0.8741 -0.0613
12342TIP3    H258518   1.888   1.720   5.603 -1.7577 -2.2504  2.9276
12343TIP3   OH258519   2.630   6.088  11.608  0.0999  0.1468  0.0954
12343TIP3    H158520   2.642   6.020  11.542 -1.1883 -1.0882  1.0696
12343TIP3    H258521   2.541   6.121  11.593  0.1278  0.4828  0.6407
12344TIP3   OH258522   1.571   1.920   1.614 -0.5684  0.7661  0.0919
12344TIP3    H158523   1.614   1.862   1.552 -2.2935 -0.7253  0.2100
12344TIP3    H258524   1.608   1.896   1.699  0.7810  1.8504 -0.1566
12345TIP3   OH258525   2.989   3.522  10.717 -0.9178 -0.1409 -0.3237
12345TIP3    H158526   3.074   3.483  10.700 -0.3542  1.2119 -0.7661
12345TIP3    H258527   2.978   3.587  10.648 -2.0765  0.0746  0.0365
12346TIP3   OH258528   3.734   6.684   4.072  0.2160  0.1221  0.0272
12346TIP3    H158529   3.685   6.606   4.046 -1.2154  0.9877  0.0018
12346TIP3    H258530   3.760   6.667   4.163 -0.6059 -0.1461  0.2212
12347TIP3   OH258531   3.438   4.325   5.833 -0.1230 -0.0294  0.1321
12347TIP3    H158532   3.344   4.320   5.853 -0.0404  1.4823  1.0135
12347TIP3    H258533   3.442   4.334   5.738 -0.8581 -0.1242  0.0878
12348TIP3   OH258534   4.389   0.864  12.681  0.2129  0.2588  0.2682
12348TIP3    H158535   4.400   0.958  12.663  0.9990  0.0500 -0.3930
12348TIP3    H258536   4.334   0.861  12.759 -0.6659  1.2558 -0.2816
12349TIP3   OH258537   4.753   6.219   6.416  0.5496  0.6655  0.2196
12349TIP3    H158538   4.722   6.201   6.505  2.4377 -0.1897  0.7432
12349TIP3    H258539   4.735   6.139   6.367  0.8261  0.6153  0.2014
12350TIP3   OH258540   5.370   4.616  15.537  0.0712 -0.4004  0.5863
12350TIP3    H158541   5.418   4.560  15.598 -0.3949 -0.1531  1.1901
12350TIP3    H258542   5.436   4.648  15.476  0.3681 -1.4983  0.3083
12351TIP3   OH258543   0.770   1.195  14.698  0.4077 -0.4202 -0.0785
12351TIP3    H158544   0.751   1.177  14.606  1.1627 -0.7301 -0.1870
12351TIP3    H258545   0.687   1.181  14.744  0.9147 -4.8738 -0.0388
12352TIP3   OH258546   3.856   4.167   1.761 -0.6264 -0.0392  0.3392
12352TIP3    H158547   3.933   4.147   1.815 -1.2885  0.2151  1.4024
12352TIP3    H258548   3.891   4.222   1.691  0.3167 -0.6778  0.2900
12353TIP3   OH258549   4.669   5.917  14.153 -0.1703  0.0296  0.4779
12353TIP3    H158550   4.680   5.923  14.058 -2.1690 -0.9352  0.1451
12353TIP3    H258551   4.682   5.825  14.173 -0.7598  0.0510  0.9836
12354TIP3   OH258552   6.437   5.924  12.461  0.4264 -0.3315  0.7166
12354TIP3    H158553   6.441   5.903  12.368 -0.4867 -1.8126  0.9719
12354TIP3    H258554   6.362   5.983  12.470 -0.5314 -1.5129  0.7052
12355TIP3   OH258555   5.903   1.610  14.209  0.0808 -0.0894  0.7002
12355TIP3    H158556   5.995   1.632  14.198  0.0195 -0.6457 -1.1127
12355TIP3    H258557   5.897   1.517  14.186 -0.8642 -0.1867  1.2619
12356TIP3   OH258558   5.775   6.855  13.173 -0.0501 -0.0304 -0.0072
12356TIP3    H158559   5.858   6.869  13.219  0.7020  2.4970 -1.8856
12356TIP3    H258560   5.726   6.795  13.229  2.1866  0.0832  2.2416
12357TIP3   OH258561   0.331   5.201   0.273  0.1768  0.6194  0.3217
12357TIP3    H158562   0.308   5.293   0.260 -0.8732  0.4186  0.6855
12357TIP3    H258563   0.248   5.157   0.287  0.5367 -0.6082 -1.0705
12358TIP3   OH258564   3.396   2.969   4.435  0.4926  0.1798  0.4550
12358TIP3    H158565   3.468   3.019   4.474  0.9532 -0.4997  0.4854
12358TIP3    H258566   3.390   2.890   4.488  0.4435 -0.2760 -0.2183
12359TIP3   OH258567   0.074   3.896  13.189  0.1444 -0.3758 -0.1292
12359TIP3    H158568   0.010   3.839  13.232  0.3723 -0.1632  0.5028
12359TIP3    H258569   0.158   3.851  13.201  0.4020  0.3405  0.8346
12360TIP3   OH258570   3.334   6.545  16.363  0.1085  0.2624 -0.1370
12360TIP3    H158571   3.372   6.518  16.447 -1.0509 -1.4437 -0.1130
12360TIP3    H258572   3.380   6.493  16.298 -0.0088  0.5130 -0.4229
12361TIP3   OH258573   1.199   1.955  14.425  0.2801 -0.3115 -0.2010
12361TIP3    H158574   1.273   2.010  14.399 -0.4335  1.1604  0.7860
12361TIP3    H258575   1.231   1.906  14.501  0.4869 -0.2601 -0.2551
12362TIP3   OH258576   1.004   3.339  15.113  0.4009  0.1596  0.4894
12362TIP3    H158577   0.987   3.278  15.042  0.4982  1.5959 -0.8244
12362TIP3    H258578   1.020   3.284  15.189 -1.2336 -1.4077 -0.2302
12363TIP3   OH258579   6.026   4.885  13.177  0.3257  0.0824  0.5580
12363TIP3    H158580   5.951   4.859  13.122 -1.1066  0.8611  2.0346
12363TIP3    H258581   6.049   4.805  13.224  1.4825 -0.5585 -1.0203
12364TIP3   OH258582   2.184   2.238   6.021  0.3690 -0.1814  0.7612
12364TIP3    H158583   2.136   2.241   6.104  1.0231 -1.4477  1.2191
12364TIP3    H258584   2.160   2.154   5.982  1.9993 -0.7580  0.9062
12365TIP3   OH258585   0.360   2.852  11.743  0.4010 -0.3283  0.0804
12365TIP3    H158586   0.311   2.810  11.672  0.9109 -0.7192 -0.0469
12365TIP3    H258587   0.412   2.919  11.700 -1.0416  1.0556  0.3851
12366TIP3   OH258588   5.777   4.863  15.277  0.0279  0.1066  0.0778
12366TIP3    H158589   5.844   4.925  15.306  1.5058 -0.4301 -1.9507
12366TIP3    H258590   5.712   4.917  15.232  0.4924  0.3550 -0.3008
12367TIP3   OH258591   2.701   2.783  16.381  0.4879  0.4297 -0.1228
12367TIP3    H158592   2.712   2.745  16.294 -1.2058  1.0360 -0.6429
12367TIP3    H258593   2.720   2.711  16.442  0.0045 -0.4836 -1.0297
12368TIP3   OH258594   1.014   1.002  14.915 -0.0239  0.4499 -0.1801
12368TIP3    H158595   1.092   1.016  14.861  0.5015 -0.0317  0.4289
12368TIP3    H258596   1.013   0.908  14.932 -0.7583  0.4496 -0.2037
12369TIP3   OH258597   6.147   0.374  13.768 -0.2400  0.2379  0.0417
12369TIP3    H158598   6.089   0.421  13.828 -1.6542  0.5908 -1.5235
12369TIP3    H258599   6.233   0.412  13.783 -0.6829  0.7757  1.3624
12370TIP3   OH258600   2.396   0.580   1.496  0.0833 -0.2221 -0.2149
12370TIP3    H158601   2.469   0.526   1.526  1.3155  1.2689 -0.3767
12370TIP3    H258602   2.377   0.639   1.569  1.0922  1.4052 -1.1944
12371TIP3   OH258603   4.855   4.346   2.316 -0.0708 -0.5288  0.1127
12371TIP3    H158604   4.849   4.434   2.353  3.4610  0.2155 -0.7082
12371TIP3    H258605   4.850   4.287   2.391  0.9929  0.5934  1.1004
12372TIP3   OH258606   3.778   4.163  16.479 -0.1779 -0.6907 -0.5137
12372TIP3    H158607   3.774   4.094  16.413  1.0502 -2.2012  0.8810
12372TIP3    H258608   3.861   4.208  16.461  0.0365 -0.9436 -0.1743
12373TIP3   OH258609   2.322   1.868   0.014  0.6318 -0.2038  0.1492
12373TIP3    H158610   2.259   1.937  -0.005 -0.1170 -0.9073  0.0116
12373TIP3    H258611   2.292   1.830   0.096  1.2034 -0.1804  0.3710
12374TIP3   OH258612   2.986   2.910   5.412  0.0598 -0.0940  0.3189
12374TIP3    H158613   2.936   2.944   5.486 -1.5188  0.2511 -0.8504
12374TIP3    H258614   3.073   2.950   5.421 -0.7344  1.6252  0.8400
12375TIP3   OH258615   2.501   0.309  11.207  0.3655 -0.1707 -0.3477
12375TIP3    H158616   2.413   0.298  11.171  0.4248 -1.1535 -0.2054
12375TIP3    H258617   2.487   0.317  11.302  0.4087  0.0101 -0.3553
12376TIP3   OH258618   6.602   3.276   3.808  0.1254  0.1209 -0.1364
12376TIP3    H158619   6.522   3.328   3.804 -0.4955 -0.8696 -1.3330
12376TIP3    H258620   6.580   3.194   3.764  1.9379  0.0119 -0.9362
12377TIP3   OH258621   2.820   6.053   1.168 -0.3217 -0.3683 -0.0339
12377TIP3    H158622   2.838   6.137   1.125 -1.1486  0.3755  1.0160
12377TIP3    H258623   2.767   6.005   1.104 -0.1536  0.0577 -0.5035
12378TIP3   OH258624   3.856   0.296   5.763 -0.3251 -0.6095 -0.4022
12378TIP3    H158625   3.764   0.322   5.768 -0.1974  0.5442 -2.7185
12378TIP3    H258626   3.904   0.373   5.792 -0.0642 -0.3671 -1.4448
12379TIP3   OH258627   3.653   4.244   5.021  0.3518 -0.1648  0.5068
12379TIP3    H158628   3.579   4.198   4.981  1.5048 -0.6427 -1.1526
12379TIP3    H258629   3.612   4.313   5.074 -1.3131 -1.3072  0.7922
12380TIP3   OH258630   5.008   0.451  10.413  0.1866  0.1775  0.5466
12380TIP3    H158631   5.076   0.390  10.387 -0.9699 -0.6011 -0.7851
12380TIP3    H258632   5.040   0.537  10.383 -0.5020 -0.5100 -2.4531
12381TIP3   OH258633   2.405   1.277  16.075  0.6450  0.8766 -0.2763
12381TIP3    H158634   2.420   1.286  16.169  2.0618  0.1741 -0.4055
12381TIP3    H258635   2.401   1.367  16.043 -0.3953  1.1293  0.5203
12382TIP3   OH258636   1.141   5.727   1.242  0.2103  0.3176 -0.4300
12382TIP3    H158637   1.109   5.765   1.160 -0.4514 -1.2232 -0.9159
12382TIP3    H258638   1.065   5.686   1.281  0.7202  0.2681  0.5297
12383TIP3   OH258639   4.814   4.274   5.909 -0.1562  0.1515 -0.0276
12383TIP3    H158640   4.755   4.202   5.890  1.1452 -0.5456 -1.7796
12383TIP3    H258641   4.803   4.334   5.835  0.2969  0.7118  0.3488
12384TIP3   OH258642   0.504   1.448   1.113  0.2476 -0.4408 -0.6081
12384TIP3    H158643   0.434   1.472   1.175  1.1134 -0.9704  0.6198
12384TIP3    H258644   0.499   1.514   1.045 -1.1705 -0.2134 -0.3192
12385TIP3   OH258645   2.823   4.301  12.611 -0.0954  0.0533 -0.1217
12385TIP3    H158646   2.914   4.333  12.611  0.0946 -0.4101 -1.6894
12385TIP3    H258647   2.770   4.380  12.600  0.2626  0.1200 -1.6307
12386TIP3   OH258648   0.083   0.455   5.185 -0.2374 -0.7986 -0.0982
12386TIP3    H158649   0.120   0.531   5.230  1.4799 -1.4114 -0.4159
12386TIP3    H258650   0.048   0.491   5.103  3.0345 -0.6312 -1.5814
12387TIP3   OH258651   0.559   5.099   3.189  0.3863  0.3232  0.4403
12387TIP3    H158652   0.590   5.059   3.271  0.1851 -0.2007  0.2623
12387TIP3    H258653   0.619   5.065   3.122 -0.1854 -0.2103  0.1893
12388TIP3   OH258654   6.569   5.825  15.363  0.0672  0.5228  0.6156
12388TIP3    H158655   6.545   5.746  15.315 -1.1153  0.8343  0.6729
12388TIP3    H258656   6.621   5.794  15.437  0.2801 -0.1233  0.2014
12389TIP3   OH258657   6.843   0.650  16.932  0.6848 -0.2562  0.1012
12389TIP3    H158658   6.895   0.717  16.975  1.5134 -1.1192  0.4764
12389TIP3    H258659   6.763   0.695  16.904  1.9448  1.2824 -1.1844
12390TIP3   OH258660   5.010   5.271   5.018 -0.3627  0.5862  0.0369
12390TIP3    H158661   5.016   5.270   4.923 -1.2706 -0.1585 -0.0325
12390TIP3    H258662   5.071   5.203   5.046  0.8087  1.6240  0.0708
12391TIP3   OH258663   1.450   2.154  11.067  0.0693  0.0255 -0.3987
12391TIP3    H158664   1.398   2.124  10.992 -0.4424  1.9906 -0.8705
12391TIP3    H258665   1.393   2.140  11.143  0.6835 -2.2131 -0.2754
12392TIP3   OH258666   1.964   5.895  16.096 -0.0443 -0.6533  0.0571
12392TIP3    H158667   1.982   5.817  16.043  2.1453 -1.8903  2.3802
12392TIP3    H258668   1.869   5.904  16.092 -0.2200 -2.4329 -1.6475
12393TIP3   OH258669   4.411   1.271   6.305  0.1899  0.2643 -0.1935
12393TIP3    H158670   4.414   1.186   6.262  0.4415  0.7650 -1.2206
12393TIP3    H258671   4.456   1.330   6.244  0.3381  1.0572  0.6649
12394TIP3   OH258672   3.700   3.308   3.032  0.3204  0.5249  0.3799
12394TIP3    H158673   3.769   3.252   2.996  0.5714 -0.9710  2.9205
12394TIP3    H258674   3.658   3.346   2.955  0.3068 -2.9674 -1.5692
12395TIP3   OH258675   2.559   1.874   1.973 -0.5323  0.1349 -0.1032
12395TIP3    H158676   2.603   1.958   1.960  0.4057 -0.5254 -1.4711
12395TIP3    H258677   2.473   1.886   1.933 -0.1922  0.2910 -0.8192
12396TIP3   OH258678   0.552   3.682  16.058  0.0775  0.4933 -0.2909
12396TIP3    H158679   0.621   3.689  16.124  0.8310 -0.4080 -0.9700
12396TIP3    H258680   0.568   3.753  15.997 -0.6060  1.3143  0.4620
12397TIP3   OH258681   1.297   4.104   2.995  0.4430 -0.5860 -0.1161
12397TIP3    H158682   1.339   4.028   2.956 -1.7450 -2.1051  0.2789
12397TIP3    H258683   1.285   4.165   2.922  3.1647 -0.1022 -0.2343
12398TIP3   OH258684   5.231   0.511   4.181  0.1822 -0.6330 -0.7706
12398TIP3    H158685   5.249   0.604   4.196  0.4290 -0.7702 -0.1847
12398TIP3    H258686   5.316   0.474   4.155  0.5728 -1.0837  1.0074
12399TIP3   OH258687   2.778   0.165  12.292 -0.0090  0.3696 -0.0563
12399TIP3    H158688   2.792   0.105  12.219  0.4402  1.1478 -0.6313
12399TIP3    H258689   2.854   0.224  12.289  1.4861 -1.1722  2.6626
12400TIP3   OH258690   5.930   1.295  15.174  0.3298  0.2743  0.4538
12400TIP3    H158691   5.990   1.338  15.113  0.0087  0.3014  0.1544
12400TIP3    H258692   5.969   1.209  15.189  0.9734  0.6577  1.0481
12401TIP3   OH258693   6.833   2.287  10.865 -0.6565 -0.3651  0.1079
12401TIP3    H158694   6.740   2.287  10.840 -1.3114  1.6768  2.1701
12401TIP3    H258695   6.841   2.361  10.925  2.3905 -0.3700 -0.1639
12402TIP3   OH258696   1.578   3.007   3.074 -0.3811 -0.6817 -0.0104
12402TIP3    H158697   1.519   3.072   3.035  0.1276  1.0273  1.9218
12402TIP3    H258698   1.557   3.008   3.167  1.6319 -1.1682  0.5028
12403TIP3   OH258699   1.532   5.229   2.000  0.0198 -0.6485  0.0164
12403TIP3    H158700   1.503   5.319   1.985 -0.0611 -0.4075  1.4828
12403TIP3    H258701   1.453   5.176   1.985  0.0032 -0.4546 -0.5949
12404TIP3   OH258702   0.296   3.584  16.063 -0.1418  0.1946 -0.4081
12404TIP3    H158703   0.385   3.616  16.049 -0.3317  1.3936  0.8511
12404TIP3    H258704   0.253   3.654  16.112 -1.7369 -0.4314 -0.8542
12405TIP3   OH258705   4.383   1.037   1.608 -0.1571 -0.1492  0.8047
12405TIP3    H158706   4.369   0.990   1.690  2.4193 -0.1368  1.3144
12405TIP3    H258707   4.393   0.968   1.542  0.2094 -0.2324  0.9455
12406TIP3   OH258708   6.695   3.834  14.044 -0.1281  0.1640 -0.0193
12406TIP3    H158709   6.652   3.818  14.128 -1.0156 -0.6271 -0.5975
12406TIP3    H258710   6.771   3.889  14.066 -1.4567  1.6692  1.0184
12407TIP3   OH258711   2.894   3.492  11.798 -0.2296 -0.6824 -0.0375
12407TIP3    H158712   2.923   3.476  11.708 -0.4320 -0.3223 -0.1686
12407TIP3    H258713   2.906   3.408  11.842  0.1008 -0.7957 -0.3382
12408TIP3   OH258714   4.410   5.720   3.393 -0.0852  0.5760 -0.1506
12408TIP3    H158715   4.327   5.733   3.438 -0.3369 -0.3167 -0.3352
12408TIP3    H258716   4.473   5.770   3.444 -0.5480  0.4281  0.5795
12409TIP3   OH258717   3.266   3.713   3.045  0.6298 -0.3838 -0.0332
12409TIP3    H158718   3.268   3.769   3.123 -0.2559  1.8034 -1.4503
12409TIP3    H258719   3.176   3.680   3.041  0.9727 -1.3926  0.4438
12410TIP3   OH258720   1.154   1.365  13.816  0.6152  0.6550  0.4845
12410TIP3    H158721   1.189   1.409  13.739 -0.1659 -0.0584 -0.2960
12410TIP3    H258722   1.226   1.311  13.849  0.6978  0.3079 -0.2502
12411TIP3   OH258723   3.530   1.908  14.258  0.6679 -0.0452 -0.4127
12411TIP3    H158724   3.491   1.861  14.184  0.6861 -2.3983  0.9703
12411TIP3    H258725   3.596   1.848  14.292  0.8557  1.0964  1.3617
12412TIP3   OH258726   4.857   3.923  14.352  0.7211 -0.1850 -0.1443
12412TIP3    H158727   4.822   3.903  14.439  1.0266 -1.0733 -0.2166
12412TIP3    H258728   4.902   4.007  14.363 -0.6447  0.5486  0.1572
12413TIP3   OH258729   0.727   5.601  13.374  0.1019 -0.0524 -0.1730
12413TIP3    H158730   0.751   5.515  13.408  1.8667  0.9662  1.2849
12413TIP3    H258731   0.639   5.616  13.408  1.3154  0.4044  3.1080
12414TIP3   OH258732   2.273   2.857   1.343  0.4477 -0.4266 -0.0382
12414TIP3    H158733   2.280   2.914   1.266  0.4337 -0.1607  0.1569
12414TIP3    H258734   2.267   2.917   1.417 -0.7612 -0.6752  0.0752
12415TIP3   OH258735   5.093   3.134  16.571 -0.2364 -0.4939  0.2712
12415TIP3    H158736   5.120   3.086  16.493  0.6616  0.3795  0.0321
12415TIP3    H258737   5.169   3.187  16.594 -0.1724 -1.3632  2.2519
12416TIP3   OH258738   1.949   3.527  13.922  0.4470 -0.3879  0.0492
12416TIP3    H158739   2.000   3.577  13.986 -1.8953  2.5745 -0.1666
12416TIP3    H258740   1.892   3.472  13.975 -2.0841  2.6581  0.8305
12417TIP3   OH258741   1.266   3.001  15.051 -0.0846  0.3175 -0.0833
12417TIP3    H158742   1.271   3.065  14.980 -0.8397  0.4440 -0.0307
12417TIP3    H258743   1.173   2.991  15.067  0.0819  0.8876  1.4312
12418TIP3   OH258744   2.003   0.260  11.771  0.0222 -0.1968 -0.2865
12418TIP3    H158745   1.915   0.223  11.758  0.2016 -1.6023  2.1287
12418TIP3    H258746   2.054   0.227  11.697 -1.0765 -0.6223 -0.8786
12419TIP3   OH258747   0.004   2.432  13.566  0.0705 -0.0122  0.1335
12419TIP3    H158748   0.055   2.376  13.507  1.7662  0.5763  0.9752
12419TIP3    H258749  -0.062   2.472  13.509  2.1135  1.1241 -1.6210
12420TIP3   OH258750   2.874   4.154  14.816  0.4774 -0.0559 -0.2508
12420TIP3    H158751   2.878   4.226  14.879 -1.7505 -0.2649  0.2160
12420TIP3    H258752   2.823   4.087  14.860  1.6671 -1.5674 -1.0666
12421TIP3   OH258753   1.163   4.170  13.757  0.5173  0.1024  0.2349
12421TIP3    H158754   1.084   4.135  13.797 -0.7772  0.4755 -1.8267
12421TIP3    H258755   1.213   4.207  13.830 -1.2535 -0.0491  1.5806
12422TIP3   OH258756   3.145   4.203   3.779  0.0941 -0.0257 -0.1745
12422TIP3    H158757   3.179   4.251   3.703 -0.4512  0.2598 -0.2477
12422TIP3    H258758   3.084   4.264   3.820  0.1040 -0.3180  0.2781
12423TIP3   OH258759   4.954   5.424   6.493 -0.1798 -0.7277  0.1207
12423TIP3    H158760   4.890   5.354   6.488 -0.4580 -0.5763  1.1746
12423TIP3    H258761   4.965   5.454   6.403 -2.5126  0.0672  0.0510
12424TIP3   OH258762   3.627   1.018  15.873  0.9887 -0.2143  0.2312
12424TIP3    H158763   3.680   0.950  15.915 -0.5168 -0.5934  1.5983
12424TIP3    H258764   3.678   1.099  15.885  1.2622 -0.5549  1.5719
12425TIP3   OH258765   6.488   0.168   1.122  0.1844  0.5779  0.0525
12425TIP3    H158766   6.456   0.088   1.164 -1.2063  1.1751  0.1989
12425TIP3    H258767   6.451   0.239   1.175 -0.3196  1.3336 -1.2712
12426TIP3   OH258768   1.699   0.215   5.238 -0.4081  0.4792 -0.1424
12426TIP3    H158769   1.692   0.204   5.333 -1.2831  0.4653 -0.2005
12426TIP3    H258770   1.629   0.161   5.202 -1.3255  1.9885 -0.6950
12427TIP3   OH258771   0.958   3.084  11.386 -0.1694  0.1282  0.1060
12427TIP3    H158772   0.882   3.142  11.393 -1.3579 -1.4811  1.1062
12427TIP3    H258773   1.004   3.095  11.468 -0.7969 -0.8202  0.6100
12428TIP3   OH258774   6.863   6.516  12.404  0.2099  0.3019  0.4001
12428TIP3    H158775   6.826   6.471  12.480  0.7505 -3.1237 -1.1696
12428TIP3    H258776   6.791   6.522  12.342  1.1272 -2.8254 -1.1601
12429TIP3   OH258777   0.576   3.301   5.057  0.0541  0.3459 -1.2834
12429TIP3    H158778   0.648   3.239   5.048 -0.8282 -0.7469 -1.0183
12429TIP3    H258779   0.613   3.385   5.030  1.3799 -0.2154 -1.2831
12430TIP3   OH258780   4.717   6.198   3.515 -0.0047  0.3642 -0.0947
12430TIP3    H158781   4.674   6.186   3.600 -0.2816  0.3362 -0.2383
12430TIP3    H258782   4.781   6.268   3.530  2.3998 -1.8793  1.0664
12431TIP3   OH258783   3.219   1.901  13.662 -0.4070  0.5493 -0.3470
12431TIP3    H158784   3.164   1.843  13.609 -0.7723  0.1892  0.4054
12431TIP3    H258785   3.201   1.989  13.629  0.7341  0.1941 -2.0256
12432TIP3   OH258786   3.502   2.895  12.112 -0.1931 -0.2603  0.0773
12432TIP3    H158787   3.476   2.986  12.126  1.9975  0.7684 -1.8594
12432TIP3    H258788   3.426   2.854  12.070 -1.6040  0.3111  1.9486
12433TIP3   OH258789   0.139   4.938  16.119  0.1757  0.5605  0.3724
12433TIP3    H158790   0.182   4.855  16.138 -0.0604  0.6296  1.2459
12433TIP3    H258791   0.123   4.936  16.025  0.6578 -0.1449  0.2993
12434TIP3   OH258792   5.244   0.341   3.645 -0.0991 -0.5217  0.7129
12434TIP3    H158793   5.164   0.298   3.675 -1.6062 -0.4114 -2.7077
12434TIP3    H258794   5.272   0.290   3.569  1.5428  1.0105  0.2107
12435TIP3   OH258795   0.206   6.449  16.517  0.7189  0.5276 -0.2810
12435TIP3    H158796   0.137   6.471  16.454  1.5896  0.9839 -1.1016
12435TIP3    H258797   0.251   6.532  16.534  1.6099  0.0895 -0.4243
12436TIP3   OH258798   0.417   2.999  12.014  0.4571  0.0940 -0.2157
12436TIP3    H158799   0.489   2.946  12.049  1.0962  0.3256 -1.1397
12436TIP3    H258800   0.449   3.030  11.929  0.3420  2.3834  0.4872
12437TIP3   OH258801   6.563   3.391   6.285 -0.1689 -0.0465  0.1529
12437TIP3    H158802   6.472   3.421   6.283 -0.2297 -0.0187  1.7490
12437TIP3    H258803   6.593   3.414   6.373  0.5850 -2.3366  0.5584
12438TIP3   OH258804   3.040   0.572   2.462 -0.2248  0.4921  0.1450
12438TIP3    H158805   3.003   0.500   2.515 -2.5494  0.6392 -1.1692
12438TIP3    H258806   3.009   0.554   2.373  2.5340  0.9633 -0.9912
12439TIP3   OH258807   2.692   2.248  13.835  0.0471  0.4901 -0.3176
12439TIP3    H158808   2.600   2.220  13.827  0.4052 -0.8934  0.1110
12439TIP3    H258809   2.714   2.282  13.748 -0.8940  0.9196 -0.3988
12440TIP3   OH258810   0.520   2.356   2.953 -0.2883  0.2023 -0.0588
12440TIP3    H158811   0.523   2.451   2.968 -0.9338  0.4546 -1.3856
12440TIP3    H258812   0.439   2.342   2.903 -0.7959 -1.2051  1.0884
12441TIP3   OH258813   5.316   1.821  16.955  0.4822 -0.4262  0.3122
12441TIP3    H158814   5.258   1.793  16.885 -0.9475 -1.3009  1.7996
12441TIP3    H258815   5.345   1.909  16.929  0.1532 -0.8172 -1.4379
12442TIP3   OH258816   4.334   1.793   4.769 -0.4085 -0.1704  0.7283
12442TIP3    H158817   4.374   1.719   4.725 -1.0693 -0.6536  0.9127
12442TIP3    H258818   4.337   1.770   4.862  1.2643  0.9821  0.9971
12443TIP3   OH258819   6.369   3.262  12.647  0.7270 -0.9163  0.3117
12443TIP3    H158820   6.412   3.335  12.603  0.4987 -0.5966  0.6203
12443TIP3    H258821   6.364   3.194  12.579 -1.2797  0.2079 -0.7569
12444TIP3   OH258822   3.472   4.589  15.515 -0.0261  0.0356  0.5977
12444TIP3    H158823   3.436   4.646  15.583  0.7461 -0.6076  1.5609
12444TIP3    H258824   3.539   4.538  15.559 -0.3426 -1.2613 -0.3712
12445TIP3   OH258825   4.598   6.828  11.990 -0.3916  0.5328 -0.2727
12445TIP3    H158826   4.631   6.794  11.907 -0.0252 -2.1468  0.8592
12445TIP3    H258827   4.505   6.842  11.975 -0.2492  0.5069 -1.2409
12446TIP3   OH258828   4.973   3.301  15.912 -0.2411 -0.6362 -0.0769
12446TIP3    H158829   4.951   3.375  15.968 -0.1938 -0.7955  0.1545
12446TIP3    H258830   5.035   3.336  15.849 -1.5504 -0.0427 -1.0767
12447TIP3   OH258831   2.589   0.954  13.133  0.4145 -0.4004 -0.1580
12447TIP3    H158832   2.563   0.933  13.223 -0.3735  1.0297 -0.0204
12447TIP3    H258833   2.682   0.973  13.139  0.2693  0.1831  0.4740
12448TIP3   OH258834   6.109   4.734  14.188 -0.3903 -0.4646 -0.1237
12448TIP3    H158835   6.111   4.820  14.146  1.2804 -0.2084  0.4182
12448TIP3    H258836   6.022   4.729  14.228 -0.4871  1.0024 -0.1018
12449TIP3   OH258837   5.155   1.018   0.240 -0.2793  0.3269 -0.0409
12449TIP3    H158838   5.188   0.930   0.260 -0.5469  0.1746 -0.2512
12449TIP3    H258839   5.136   1.015   0.146  1.7112  1.2744 -0.5138
12450TIP3   OH258840   0.915   4.582  16.953  0.4947 -0.1591  0.6119
12450TIP3    H158841   0.976   4.565  17.025 -0.3853 -0.1482  1.3736
12450TIP3    H258842   0.829   4.564  16.990  0.0555 -0.6034 -0.5788
12451TIP3   OH258843   1.395   1.374   2.623 -0.0138 -0.0221 -0.2653
12451TIP3    H158844   1.453   1.395   2.695  0.9191 -0.9738 -0.7073
12451TIP3    H258845   1.394   1.452   2.568 -1.0079  0.8356  0.9269
12452TIP3   OH258846   1.940   1.667  16.542 -0.2977 -0.1200 -0.4093
12452TIP3    H158847   1.933   1.640  16.633 -0.5915 -0.6074 -0.5702
12452TIP3    H258848   1.941   1.763  16.545 -0.1167 -0.1370  0.1142
12453TIP3   OH258849   6.802   5.154   5.841 -0.0273 -0.0165 -0.0845
12453TIP3    H158850   6.879   5.099   5.848  0.2571  0.3426 -0.3796
12453TIP3    H258851   6.793   5.172   5.748 -1.4418 -1.4204 -0.2753
12454TIP3   OH258852   6.425   3.397  16.794  0.7422  0.1884  0.7883
12454TIP3    H158853   6.377   3.463  16.745  1.8023 -0.1026 -0.7101
12454TIP3    H258854   6.357   3.341  16.833 -0.1353  0.5847 -0.1418
12455TIP3   OH258855   2.602   1.317  15.030  0.1332  0.4937  0.2888
12455TIP3    H158856   2.634   1.406  15.045  0.6586  0.4201 -0.3403
12455TIP3    H258857   2.528   1.327  14.970 -1.2985  0.6952  2.0157
12456TIP3   OH258858   5.311   5.793   0.508 -0.8216  0.7084 -0.0691
12456TIP3    H158859   5.347   5.710   0.540 -2.8948 -0.2254 -0.0385
12456TIP3    H258860   5.388   5.850   0.498  0.6866 -1.2715 -0.3152
12457TIP3   OH258861   1.966   5.393  12.180  0.6122  0.1752  0.2117
12457TIP3    H158862   1.949   5.455  12.109  0.3562  1.8297  1.6260
12457TIP3    H258863   2.049   5.352  12.157 -0.4773 -0.8929 -2.0409
12458TIP3   OH258864   2.119   4.170  15.185 -0.1506 -0.0533 -0.5721
12458TIP3    H158865   2.102   4.126  15.101 -0.6980 -0.3989 -0.2874
12458TIP3    H258866   2.042   4.149  15.238 -1.0480  2.2898 -0.8518
12459TIP3   OH258867   0.567   5.270   4.242 -0.0779  0.1849  0.0713
12459TIP3    H158868   0.627   5.296   4.311 -2.1915  2.9403  1.0321
12459TIP3    H258869   0.484   5.252   4.287 -0.8287 -0.5405 -1.5081
12460TIP3   OH258870   3.670   0.726  16.421 -0.2909  0.2116 -0.0840
12460TIP3    H158871   3.712   0.645  16.390  0.6791  2.0101 -4.0412
12460TIP3    H258872   3.737   0.769  16.473 -0.8017 -1.3778  2.0333
12461TIP3   OH258873   6.393   0.470  13.833 -0.2094 -0.2564  0.3497
12461TIP3    H158874   6.462   0.509  13.779 -0.3003 -0.0587  0.3774
12461TIP3    H258875   6.431   0.468  13.921  0.5571 -2.0346  0.0157
12462TIP3   OH258876   6.415   1.385  12.324  0.0460 -0.1406 -0.0298
12462TIP3    H158877   6.371   1.343  12.251  1.3987  1.6711 -2.0221
12462TIP3    H258878   6.427   1.476  12.296  2.3222  0.1602  1.6178
12463TIP3   OH258879   3.858   2.428   1.606  0.7056 -0.1265 -0.9296
12463TIP3    H158880   3.854   2.403   1.514  0.5214 -1.0264 -0.6902
12463TIP3    H258881   3.933   2.379   1.640 -1.8931 -3.5700  0.4464
12464TIP3   OH258882   3.899   0.582   3.690  0.0172  0.4684 -0.6626
12464TIP3    H158883   3.824   0.566   3.633  0.3217 -1.9684 -0.4696
12464TIP3    H258884   3.877   0.536   3.771  1.3622  0.4087 -0.3188
12465TIP3   OH258885   6.086   0.149   2.312  0.6344  0.4460  0.2447
12465TIP3    H158886   6.095   0.207   2.236 -3.1530  2.3622  1.0225
12465TIP3    H258887   6.099   0.206   2.388 -1.3770 -0.0309  1.0119
12466TIP3   OH258888   0.986   1.491   5.529 -0.3157 -0.9311  0.2905
12466TIP3    H158889   1.037   1.426   5.578  1.9527 -0.5065 -1.3414
12466TIP3    H258890   0.941   1.440   5.461  1.2714 -0.8925 -0.8391
12467TIP3   OH258891   5.830   5.093  13.502  0.4351 -0.5178  0.1587
12467TIP3    H158892   5.900   5.092  13.437  1.2028 -2.8813  0.9238
12467TIP3    H258893   5.765   5.155  13.467  2.2089  0.6142 -1.2904
12468TIP3   OH258894   1.077   1.975  12.474 -0.7241  0.2383  0.1290
12468TIP3    H158895   1.118   1.897  12.512 -0.3261 -0.2860 -1.2999
12468TIP3    H258896   1.007   1.941  12.419  0.4553  0.7309 -1.7772
12469TIP3   OH258897   5.518   1.101   3.770 -0.0868 -0.1412  0.6355
12469TIP3    H158898   5.516   1.150   3.852 -0.8495  1.6424 -0.3953
12469TIP3    H258899   5.426   1.079   3.754  0.0412 -0.3234  0.1554
12470TIP3   OH258900   1.215   4.184   0.354  0.7126  0.3307  0.2217
12470TIP3    H158901   1.258   4.265   0.327  1.1979  0.2409  0.6930
12470TIP3    H258902   1.155   4.163   0.283  2.0913 -0.0156 -0.8791
12471TIP3   OH258903   5.960   0.638  12.674 -0.0161 -0.6788 -0.2670
12471TIP3    H158904   5.975   0.605  12.585 -0.2148  0.6252 -0.8092
12471TIP3    H258905   6.041   0.685  12.695  0.9614 -2.8205  1.1592
12472TIP3   OH258906   0.597   5.760   0.372 -0.1685 -0.0568  0.2553
12472TIP3    H158907   0.525   5.774   0.433 -0.7055 -0.2458 -0.3238
12472TIP3    H258908   0.676   5.762   0.426 -0.6323 -0.1333  0.9363
12473TIP3   OH258909   3.273   2.364  13.034  0.0069  0.1482 -0.3592
12473TIP3    H158910   3.316   2.430  12.979  1.6815  0.9289  1.7728
12473TIP3    H258911   3.338   2.294  13.043  0.1183  0.4207  1.2617
12474TIP3   OH258912   1.948   1.807   0.935 -0.3115  0.0512  0.0089
12474TIP3    H158913   1.885   1.759   0.881  0.0545 -1.1325  0.5982
12474TIP3    H258914   2.029   1.757   0.928  0.2278  0.8744  0.2410
12475TIP3   OH258915   0.398   2.225  13.843 -0.0693 -0.0309  0.4737
12475TIP3    H158916   0.350   2.276  13.777  0.5717  2.2583  1.6646
12475TIP3    H258917   0.399   2.136  13.808 -0.1467  0.9811 -2.3866
12476TIP3   OH258918   4.385   6.681   5.303 -0.0971  0.0989  0.0402
12476TIP3    H158919   4.371   6.699   5.396 -0.0293  1.4058 -0.1928
12476TIP3    H258920   4.313   6.622   5.279 -0.8060  0.6975  0.6438
12477TIP3   OH258921   6.837   0.889  17.031  0.7507  0.0127 -0.1591
12477TIP3    H158922   6.764   0.884  16.969  1.0538 -0.1876 -0.5033
12477TIP3    H258923   6.797   0.923  17.111 -0.4158 -3.0857  0.7174
12478TIP3   OH258924   4.682   0.066  15.343  0.6541 -0.6772  0.2898
12478TIP3    H158925   4.777   0.069  15.330  0.7001 -0.5507  0.6469
12478TIP3    H258926   4.664   0.131  15.411  0.1036  0.4735 -0.9116
12479TIP3   OH258927   4.782   3.360   2.081  0.0738 -0.0321 -0.6815
12479TIP3    H158928   4.806   3.403   2.163 -3.9974  1.8846 -0.2563
12479TIP3    H258929   4.734   3.281   2.107  0.9500 -0.8188 -1.3434
12480TIP3   OH258930   1.495   2.708   3.962  0.1666 -0.6818 -0.1647
12480TIP3    H158931   1.577   2.733   4.004  0.3312 -3.5341  1.5151
12480TIP3    H258932   1.521   2.645   3.895 -0.5622 -1.2998  0.1050
12481TIP3   OH258933   1.097   4.306   4.192 -0.4116  0.3462  0.2141
12481TIP3    H158934   1.185   4.341   4.204 -0.0815  0.0512 -1.1569
12481TIP3    H258935   1.108   4.211   4.192 -0.9589  0.2585  1.5085
12482TIP3   OH258936   3.601   0.553  10.716  0.1505  0.4810  0.5086
12482TIP3    H158937   3.615   0.469  10.760 -2.2171  0.4335  1.3327
12482TIP3    H258938   3.636   0.541  10.628  2.2884 -0.4235  1.3941
12483TIP3   OH258939   3.549   1.295  13.791  0.4063  0.0017  0.0406
12483TIP3    H158940   3.530   1.230  13.859 -0.8736 -1.2971 -1.4851
12483TIP3    H258941   3.620   1.257  13.740  0.4504  0.3548 -0.1642
12484TIP3   OH258942   1.016   5.188  16.562  0.7889 -0.7210 -0.2489
12484TIP3    H158943   0.999   5.154  16.475  1.2308 -1.1122 -0.1854
12484TIP3    H258944   0.985   5.278  16.559 -0.6141 -1.1809 -0.3496
12485TIP3   OH258945   4.458   5.524   2.258 -0.9291  0.1259  0.8404
12485TIP3    H158946   4.474   5.609   2.217  0.2283 -0.6324 -0.3677
12485TIP3    H258947   4.385   5.539   2.318 -1.9495  1.5535 -0.6862
12486TIP3   OH258948   0.812   2.098  11.910 -0.2843 -0.0532 -0.0786
12486TIP3    H158949   0.740   2.077  11.969 -0.0410  1.3745  0.7580
12486TIP3    H258950   0.772   2.149  11.839 -0.5009 -1.4054 -0.9751
12487TIP3   OH258951   3.705   2.270  14.206  0.6330 -0.5221  0.1916
12487TIP3    H158952   3.740   2.183  14.186  1.2848  0.0369 -1.1688
12487TIP3    H258953   3.709   2.318  14.124 -0.1619  0.6667  0.8088
12488TIP3   OH258954   3.873   6.684  12.588  0.1656 -0.4034 -0.0922
12488TIP3    H158955   3.807   6.676  12.656 -2.2332  0.8701 -2.0831
12488TIP3    H258956   3.846   6.621  12.520  0.4072  0.8208 -1.3738
12489TIP3   OH258957   4.754   4.526   1.118  0.0940 -0.2352 -0.5266
12489TIP3    H158958   4.661   4.520   1.097 -0.0177  0.7762 -0.3899
12489TIP3    H258959   4.784   4.604   1.071  0.3783  0.6841  1.1154
12490TIP3   OH258960   3.324   5.080  12.279 -0.3308  0.0065 -0.0360
12490TIP3    H158961   3.273   5.005  12.249 -1.1377  0.8616 -0.8645
12490TIP3    H258962   3.332   5.067  12.374  0.0373 -1.3988 -0.2370
12491TIP3   OH258963   0.813   5.646   1.237 -0.0471 -0.0268  0.3685
12491TIP3    H158964   0.816   5.589   1.161  0.5085 -0.9107  1.0321
12491TIP3    H258965   0.747   5.606   1.295  1.3525 -0.8382  1.4625
12492TIP3   OH258966   5.074   0.015  16.228 -0.1133 -0.1687  0.0703
12492TIP3    H158967   5.022  -0.021  16.299  0.7539 -1.1696  0.2209
12492TIP3    H258968   5.011   0.062  16.173 -0.7475  0.9662  1.6851
12493TIP3   OH258969   3.213   2.325   1.232  0.1977  0.0010  0.7970
12493TIP3    H158970   3.183   2.376   1.157  0.5444  1.2400  1.4734
12493TIP3    H258971   3.307   2.311   1.216  0.5307  1.2635  1.5275
12494TIP3   OH258972   4.043   3.002  14.921  0.0657  0.8795  0.1492
12494TIP3    H158973   3.977   2.949  14.965  0.8293 -0.0114  0.2431
12494TIP3    H258974   3.993   3.057  14.861 -0.6837 -0.5710 -0.5961
12495TIP3   OH258975   3.572   4.737  11.298 -0.4279 -0.0414  0.3221
12495TIP3    H158976   3.571   4.768  11.208  1.0540  0.5187  0.4686
12495TIP3    H258977   3.595   4.644  11.292 -0.6779 -0.0927  0.1193
12496TIP3   OH258978   5.569   6.354   3.531  0.3317  0.6312 -0.0724
12496TIP3    H158979   5.479   6.378   3.552 -0.1528 -0.2781 -1.0311
12496TIP3    H258980   5.611   6.438   3.508 -0.6823  0.8898 -1.0663
12497TIP3   OH258981   1.884   4.768  16.666  0.4075  0.3487 -0.2695
12497TIP3    H158982   1.950   4.787  16.733  0.4802  1.0647 -0.5371
12497TIP3    H258983   1.806   4.816  16.696  0.3254  0.3564 -0.4949
12498TIP3   OH258984   1.791   4.044   2.821  0.1873 -0.6416 -0.1545
12498TIP3    H158985   1.822   4.020   2.908  0.9024  0.4044 -0.1070
12498TIP3    H258986   1.870   4.067   2.772 -0.4349  2.2516  0.0186
12499TIP3   OH258987   4.997   0.631  14.919 -0.1331  0.2601  0.2681
12499TIP3    H158988   5.054   0.630  14.842 -1.9608 -2.2031 -1.1877
12499TIP3    H258989   4.997   0.541  14.950 -1.2372  0.7400  1.7931
12500TIP3   OH258990   3.105   6.399  11.217 -0.1100  0.1846 -0.2510
12500TIP3    H158991   3.190   6.410  11.260 -1.2071  1.8266  1.6321
12500TIP3    H258992   3.074   6.313  11.245  0.2363  0.2482  0.3343
12501TIP3   OH258993   1.692   4.223  13.069  0.2921 -0.1430  0.3260
12501TIP3    H158994   1.711   4.233  13.162 -2.3528  0.2970  0.9077
12501TIP3    H258995   1.724   4.304  13.029  0.8464 -0.0484  0.9467
12502TIP3   OH258996   6.116   3.452   4.626  0.5966 -0.6688  0.5391
12502TIP3    H158997   6.048   3.412   4.571 -0.0916  0.1917  0.7266
12502TIP3    H258998   6.102   3.415   4.713 -0.4837  0.4181  0.8731
12503TIP3   OH258999   1.130   6.217  15.963 -0.1429 -0.2027  0.5962
12503TIP3    H159000   1.113   6.248  16.052  1.0535 -0.8463  1.0767
12503TIP3    H259001   1.197   6.276  15.929 -1.4803  0.8143 -0.3724
12504TIP3   OH259002   5.882   3.015  15.124 -0.1081  0.1851  0.2077
12504TIP3    H159003   5.860   2.979  15.210  0.4489  1.4157  0.8926
12504TIP3    H259004   5.977   3.004  15.117 -0.1186  0.3040 -0.1456
12505TIP3   OH259005   1.668   4.104   0.390  0.4328 -0.2261 -0.4495
12505TIP3    H159006   1.630   4.190   0.372  0.8618  0.4093  1.4837
12505TIP3    H259007   1.718   4.083   0.312  1.2095  1.7900 -0.5435
12506TIP3   OH259008   4.870   0.103  13.645  0.4707  0.1085 -0.7508
12506TIP3    H159009   4.943   0.164  13.652  0.9927 -0.6194  0.3729
12506TIP3    H259010   4.911   0.016  13.643 -0.3891 -0.4225  1.7309
12507TIP3   OH259011   1.197   6.065   0.273  0.2282  0.0536 -0.5458
12507TIP3    H159012   1.215   6.158   0.259  2.1571 -0.1511  0.1802
12507TIP3    H259013   1.104   6.055   0.255  0.1044  2.0083 -1.2166
12508TIP3   OH259014   6.169   4.063  13.005  0.2513  0.4849  0.1878
12508TIP3    H159015   6.129   4.005  12.940 -1.2946  0.4796  1.0739
12508TIP3    H259016   6.138   4.150  12.981 -1.8942  0.2799  1.9179
12509TIP3   OH259017   3.837   3.592   3.325  0.6412  0.0578 -0.2496
12509TIP3    H159018   3.835   3.564   3.416  0.1180 -1.1512 -0.6159
12509TIP3    H259019   3.883   3.676   3.327  0.6035  0.0697  1.1231
12510TIP3   OH259020   0.389   3.167  13.698  0.7372  0.5515 -0.5169
12510TIP3    H159021   0.370   3.123  13.780  1.8735  1.3079  0.1868
12510TIP3    H259022   0.483   3.152  13.684  0.1099 -1.8708 -3.1113
12511TIP3   OH259023   5.144   3.082   5.318 -0.5610 -0.6161  0.0679
12511TIP3    H159024   5.137   2.987   5.318 -0.2987 -0.6559 -1.2803
12511TIP3    H259025   5.144   3.106   5.225 -1.1456  0.7367  0.3955
12512TIP3   OH259026   4.876   0.041  16.007  0.6753  0.1680 -0.0238
12512TIP3    H159027   4.856   0.092  15.928 -1.0817  1.0102  0.9070
12512TIP3    H259028   4.790   0.016  16.042  1.1697  2.4728  3.3118
12513TIP3   OH259029   4.966   5.529  13.657 -0.1930 -0.1510  0.1533
12513TIP3    H159030   4.956   5.452  13.713 -0.7180  0.0795  0.3724
12513TIP3    H259031   4.884   5.534  13.608  0.2237 -0.3016 -0.5865
12514TIP3   OH259032   5.391   3.852  14.704  0.1790  0.0337 -0.2237
12514TIP3    H159033   5.422   3.912  14.637 -1.5492  0.1829 -0.9328
12514TIP3    H259034   5.338   3.787  14.657  0.0516 -0.6610  0.8250
12515TIP3   OH259035   1.089   1.400   4.732 -0.0942 -0.3048 -0.7567
12515TIP3    H159036   1.044   1.449   4.663 -0.0682 -0.6813 -1.0444
12515TIP3    H259037   1.182   1.414   4.715 -0.0957  0.0809 -0.4484
12516TIP3   OH259038   4.740   0.141  11.530 -0.8346 -0.1242  0.3177
12516TIP3    H159039   4.752   0.132  11.435 -3.0728 -0.6573  0.0348
12516TIP3    H259040   4.787   0.222  11.552  0.2759 -0.3357 -1.1057
12517TIP3   OH259041   0.414   5.795  16.598  0.3723 -0.0711  0.3419
12517TIP3    H159042   0.393   5.878  16.643  0.1683  0.5193 -0.8123
12517TIP3    H259043   0.445   5.738  16.668 -3.5061 -0.5013  1.9981
12518TIP3   OH259044   5.601   1.920   0.963 -0.4642  0.4192 -0.5853
12518TIP3    H159045   5.630   1.832   0.939 -1.9258  0.1452 -1.4293
12518TIP3    H259046   5.507   1.920   0.948 -0.6731  1.7953  0.4679
12519TIP3   OH259047   3.381   5.668  13.402  0.3862  0.6183 -0.0522
12519TIP3    H159048   3.296   5.658  13.360 -0.2895 -0.0928  1.4317
12519TIP3    H259049   3.379   5.756  13.441 -0.8587 -0.4343  2.4466
12520TIP3   OH259050   3.775   2.060  12.489  0.5207 -0.3204 -0.0029
12520TIP3    H159051   3.744   2.126  12.427 -2.5796 -2.4636 -0.9872
12520TIP3    H259052   3.754   2.096  12.575  1.2924  1.0555 -0.3783
12521TIP3   OH259053   5.609   2.012  15.667  0.6240 -0.0374 -0.0731
12521TIP3    H159054   5.591   1.918  15.663 -0.8166  0.2442 -1.1941
12521TIP3    H259055   5.688   2.023  15.615  0.7262 -0.6180 -0.0489
12522TIP3   OH259056   1.326   6.386  15.895 -0.2491  0.9159 -0.3762
12522TIP3    H159057   1.274   6.457  15.857  1.1061  1.8498 -0.5639
12522TIP3    H259058   1.404   6.430  15.930 -0.5371 -0.1478  1.7803
12523TIP3   OH259059   6.035   4.929  10.897  0.5146 -0.2983  0.2766
12523TIP3    H159060   6.005   4.950  10.809  0.2693 -1.6719  0.0028
12523TIP3    H259061   5.965   4.876  10.935  0.0223  1.3593  1.8069
12524TIP3   OH259062   6.680   5.544   0.154 -0.2718 -0.5785  0.4503
12524TIP3    H159063   6.693   5.627   0.108 -0.2673  0.1460  1.7074
12524TIP3    H259064   6.585   5.531   0.154 -0.4528  0.4681  1.9495
12525TIP3   OH259065   2.689   1.623  15.643 -0.1059 -0.4215  0.1828
12525TIP3    H159066   2.689   1.611  15.548 -1.5137 -0.3419  0.1500
12525TIP3    H259067   2.745   1.700  15.657 -0.8044  0.2625 -0.6943
12526TIP3   OH259068   6.668   1.763   2.742  0.2972 -0.1229  0.0582
12526TIP3    H159069   6.674   1.734   2.651  0.1705 -2.1991  0.6542
12526TIP3    H259070   6.653   1.682   2.791 -2.8872  1.2614  1.6219
12527TIP3   OH259071   0.423   1.177  12.849 -0.5539  0.7613 -0.2204
12527TIP3    H159072   0.515   1.201  12.864 -0.7282  1.2906  0.0314
12527TIP3    H259073   0.399   1.225  12.770 -0.2810 -0.3023 -0.9828
12528TIP3   OH259074   5.515   5.439  14.890 -0.0495  0.3721 -0.0739
12528TIP3    H159075   5.588   5.390  14.926  1.1907  1.4872 -0.9550
12528TIP3    H259076   5.479   5.488  14.964  1.3402  1.2857  0.0294
12529TIP3   OH259077   3.738   5.493  16.026  0.1239 -0.4244 -0.5908
12529TIP3    H159078   3.791   5.531  16.095 -2.5566 -0.1459  1.4777
12529TIP3    H259079   3.754   5.550  15.950  1.1524  0.8855  0.5421
12530TIP3   OH259080   1.698   5.961  16.107 -0.3540 -0.0407 -0.5795
12530TIP3    H159081   1.647   5.890  16.147  0.4000 -1.8352 -2.6568
12530TIP3    H259082   1.679   6.037  16.162 -3.7404 -1.0559 -0.1134
12531TIP3   OH259083   5.679   5.427   1.645  0.2137 -0.1522  0.0434
12531TIP3    H159084   5.587   5.402   1.641  0.3881 -0.6974 -1.0296
12531TIP3    H259085   5.681   5.503   1.703 -0.7736 -0.7031  0.8180
12532TIP3   OH259086   2.603   4.965  13.948  0.4257 -0.1158 -0.5854
12532TIP3    H159087   2.554   4.941  13.869  0.3185 -1.2803 -0.1937
12532TIP3    H259088   2.544   5.023  13.996  0.8900  1.4224 -1.8178
12533TIP3   OH259089   2.136   6.664  14.086  0.4743  0.2068  0.1537
12533TIP3    H159090   2.210   6.653  14.145  0.7300  0.2341 -0.1576
12533TIP3    H259091   2.167   6.727  14.020  0.0791  0.4363  0.1810
12534TIP3   OH259092   0.549   0.486  12.505  0.1570 -0.3181  0.1042
12534TIP3    H159093   0.492   0.450  12.437  0.0530  0.2478 -0.1203
12534TIP3    H259094   0.582   0.410  12.553  0.1159 -0.7146 -0.4919
12535TIP3   OH259095   1.707   5.232  15.764  0.0162 -0.0117  0.6747
12535TIP3    H159096   1.746   5.151  15.732  1.4920  1.2448 -0.8688
12535TIP3    H259097   1.613   5.221  15.749  0.3037 -1.0109 -0.5098
12536TIP3   OH259098   0.710   3.151   0.342  0.1733 -0.8981 -0.2372
12536TIP3    H159099   0.693   3.206   0.418 -1.6569  0.2097 -1.3801
12536TIP3    H259100   0.661   3.070   0.359 -0.6228 -0.4658 -0.4252
12537TIP3   OH259101   6.543   3.300   2.147  0.9869 -0.4818 -0.1737
12537TIP3    H159102   6.500   3.370   2.098  0.7036  0.0953  0.8701
12537TIP3    H259103   6.535   3.222   2.091 -0.1508 -0.0569 -0.6164
12538TIP3   OH259104   5.642   5.196   2.406  0.6002  0.0133 -0.5167
12538TIP3    H159105   5.626   5.244   2.325  0.2732 -2.2014 -1.8462
12538TIP3    H259106   5.735   5.211   2.425  0.3476  1.6819 -0.4757
12539TIP3   OH259107   6.825   5.841  12.773 -0.1829 -0.0621 -0.2505
12539TIP3    H159108   6.888   5.774  12.798 -1.4242 -0.9702  0.5825
12539TIP3    H259109   6.808   5.825  12.680  1.1993  0.5499 -0.6298
12540TIP3   OH259110   1.428   1.976   4.039  0.0400 -0.4155 -0.3503
12540TIP3    H159111   1.439   1.905   4.101  0.1942  0.8984  1.2070
12540TIP3    H259112   1.377   2.042   4.086 -1.8060 -0.2607 -2.3955
12541TIP3   OH259113   5.819   1.986  16.772 -0.0819  0.8499  0.3786
12541TIP3    H159114   5.774   1.902  16.771  0.1965  0.7023 -0.1530
12541TIP3    H259115   5.785   2.032  16.695 -0.4443  1.3414  0.8216
12542TIP3   OH259116   5.158   1.824  14.129  0.0841  0.8354 -0.9311
12542TIP3    H159117   5.132   1.740  14.167 -0.3544  1.1155 -0.5989
12542TIP3    H259118   5.075   1.864  14.100  0.0377  1.9833  0.6256
12543TIP3   OH259119   3.177   1.301  12.450 -0.2321 -0.0510 -0.4035
12543TIP3    H159120   3.191   1.333  12.361 -0.3643 -0.7010 -0.6637
12543TIP3    H259121   3.182   1.206  12.443  0.5508 -0.0949  0.4176
12544TIP3   OH259122   0.832   1.135   6.205  0.2781 -0.0180  0.1446
12544TIP3    H159123   0.892   1.076   6.159 -1.4798 -0.4455 -1.6873
12544TIP3    H259124   0.819   1.208   6.145 -0.3658  0.5051  0.8999
12545TIP3   OH259125   4.699   0.076  12.927  0.7122  0.1171 -0.2301
12545TIP3    H159126   4.648   0.144  12.882  0.1846  0.4073  0.7781
12545TIP3    H259127   4.634   0.025  12.975  1.3514  0.5094  1.1004
12546TIP3   OH259128   6.359   5.836  15.733 -0.0353  0.0297 -0.0791
12546TIP3    H159129   6.271   5.810  15.761  0.0196  0.0158  0.0829
12546TIP3    H259130   6.417   5.788  15.791  0.0596  0.9163  0.5784
12547TIP3   OH259131   5.252   1.591  14.532 -0.5019 -0.0875 -0.0454
12547TIP3    H159132   5.340   1.581  14.496 -0.5667 -0.7628 -0.0334
12547TIP3    H259133   5.199   1.531  14.481 -1.2526  1.3475 -1.0124
12548TIP3   OH259134   5.689   2.969  12.734  0.6686  0.1879  0.6050
12548TIP3    H159135   5.737   2.887  12.726  1.4450  0.5632  1.2806
12548TIP3    H259136   5.756   3.034  12.758  0.1891  1.1486 -0.5343
12549TIP3   OH259137   5.772   2.498  11.046  0.1328 -0.1933  0.0135
12549TIP3    H159138   5.734   2.581  11.075  0.8675  0.0946  0.1667
12549TIP3    H259139   5.728   2.432  11.099 -0.3049  0.1161  0.0411
12550TIP3   OH259140   4.229   0.520   2.561  0.2031 -0.3222  0.0405
12550TIP3    H159141   4.183   0.589   2.512  1.1969 -0.5179 -1.2345
12550TIP3    H259142   4.321   0.546   2.559  0.5765 -1.5836 -0.3265
12551TIP3   OH259143   2.459   1.354   5.905 -0.2014  0.0213 -0.0114
12551TIP3    H159144   2.498   1.379   5.821 -2.6875  1.4679 -0.8582
12551TIP3    H259145   2.495   1.415   5.968 -0.2358  0.6038 -0.5480
12552TIP3   OH259146   1.693   5.079   0.230  1.0022 -0.0475  0.3255
12552TIP3    H159147   1.747   5.093   0.308  0.3067 -0.6984  0.9461
12552TIP3    H259148   1.739   5.012   0.180  2.4102  1.6526 -0.7908
12553TIP3   OH259149   2.540   6.422  11.117  0.4367 -0.6912 -0.2516
12553TIP3    H159150   2.485   6.448  11.044 -1.2085  0.3419  1.2833
12553TIP3    H259151   2.482   6.374  11.176  0.9708  0.9387  1.7056
12554TIP3   OH259152   6.270   0.953   3.510 -0.5235  0.3020  0.1143
12554TIP3    H159153   6.191   0.929   3.462 -1.0437 -0.0167  1.1128
12554TIP3    H259154   6.261   0.911   3.595  0.3739  0.8760  0.5137
12555TIP3   OH259155   1.908   1.498   1.392  0.4614 -0.2402  0.2268
12555TIP3    H159156   1.929   1.575   1.338 -1.0126 -0.2046 -0.3360
12555TIP3    H259157   1.940   1.521   1.479 -0.6708  1.3795  0.2567
12556TIP3   OH259158   1.393   0.746  11.671  0.1414 -0.1647 -0.6585
12556TIP3    H159159   1.482   0.712  11.681  0.1542  0.0790  0.0998
12556TIP3    H259160   1.404   0.841  11.671  0.2286 -0.0702 -3.8347
12557TIP3   OH259161   1.353   1.593   4.514 -0.6035 -0.4179  0.1033
12557TIP3    H159162   1.443   1.562   4.501 -0.3242  0.2264  0.4486
12557TIP3    H259163   1.311   1.579   4.429 -0.3199 -1.1557  0.0728
12558TIP3   OH259164   0.308   6.578  13.881 -0.0882  0.3432 -0.6602
12558TIP3    H159165   0.270   6.552  13.965  2.6401  0.5661  0.7585
12558TIP3    H259166   0.369   6.648  13.903  0.5767  0.5396 -2.8868
12559TIP3   OH259167   0.677   0.584   4.735  0.0436  0.1620 -0.3860
12559TIP3    H159168   0.728   0.585   4.816  2.4838 -0.3484 -1.8162
12559TIP3    H259169   0.713   0.656   4.683 -2.0398  1.0111 -0.7326
12560TIP3   OH259170   5.207   6.862  15.208  0.0655 -0.2783  0.0712
12560TIP3    H159171   5.225   6.874  15.115 -0.1703 -0.8159 -0.0472
12560TIP3    H259172   5.278   6.806  15.239 -0.8512 -1.6256 -0.1922
12561TIP3   OH259173   3.131   4.052   2.268 -0.5626 -0.0579  0.2044
12561TIP3    H159174   3.162   4.066   2.357  0.0802  0.4495 -0.0864
12561TIP3    H259175   3.099   4.138   2.240 -2.5503 -0.6343  0.5990
12562TIP3   OH259176   3.309   1.758  12.203 -0.3062 -0.0032  0.0821
12562TIP3    H159177   3.348   1.775  12.117  1.0567  0.7695  0.8242
12562TIP3    H259178   3.375   1.706  12.249 -1.4454 -1.2777  0.3362
12563TIP3   OH259179   2.323   5.904  16.190  0.1456  0.6477 -0.1527
12563TIP3    H159180   2.348   5.986  16.149 -1.3724  0.4050 -1.6580
12563TIP3    H259181   2.310   5.843  16.118 -0.3001 -0.4825  0.8354
12564TIP3   OH259182   5.727   5.117   1.604  0.3054  0.5766  0.7268
12564TIP3    H159183   5.805   5.137   1.656  0.0470 -0.3615  1.5075
12564TIP3    H259184   5.657   5.166   1.647  0.2734  0.6279  0.6180
12565TIP3   OH259185   4.851   4.784   1.432 -0.5814  0.2083  0.3868
12565TIP3    H159186   4.767   4.742   1.452 -0.4972 -0.0902  0.1275
12565TIP3    H259187   4.838   4.822   1.345 -0.5850  0.5303  0.5282
12566TIP3   OH259188   6.395   1.436  13.765  0.5086  0.3779 -0.5879
12566TIP3    H159189   6.342   1.515  13.771 -0.5465 -0.3208 -0.5050
12566TIP3    H259190   6.457   1.442  13.838 -2.0043 -0.6294  1.7798
12567TIP3   OH259191   6.510   2.915  15.422 -0.3084 -0.0183  0.1795
12567TIP3    H159192   6.551   2.892  15.338 -0.0434  2.3041 -0.4193
12567TIP3    H259193   6.497   2.832  15.466  2.6023 -1.1088 -0.7368
12568TIP3   OH259194   6.502   5.086  14.302 -0.1999  0.3092  0.1809
12568TIP3    H159195   6.408   5.080  14.319 -0.1136  0.1114  0.6072
12568TIP3    H259196   6.525   5.001  14.263 -0.0431  0.0371  0.8611
12569TIP3   OH259197   6.197   1.546  13.546  0.1072  0.2809  0.2936
12569TIP3    H159198   6.133   1.609  13.513 -0.1292 -1.3142 -2.7297
12569TIP3    H259199   6.146   1.487  13.602 -0.7450  0.0422 -0.6944
12570TIP3   OH259200   1.843   1.116   5.684 -0.3492  0.0824 -0.2188
12570TIP3    H159201   1.888   1.162   5.613  0.7204  0.6663  0.8017
12570TIP3    H259202   1.780   1.178   5.719 -0.6865 -0.1117 -0.4771
12571TIP3   OH259203   1.730   4.587   2.527 -0.4270 -0.0575  0.2618
12571TIP3    H159204   1.802   4.525   2.515 -0.3944  0.2139 -1.1002
12571TIP3    H259205   1.718   4.627   2.441 -2.6550 -0.5846  0.2677
12572TIP3   OH259206   0.942   4.848  15.240  0.3502 -0.1390 -0.0681
12572TIP3    H159207   0.946   4.780  15.172  0.1599 -1.5186  1.2517
12572TIP3    H259208   0.867   4.823  15.294 -0.5674  1.9193 -0.3275
12573TIP3   OH259209   6.481   6.542   1.274  0.1060 -0.9577 -0.0842
12573TIP3    H159210   6.527   6.624   1.252 -0.0738 -0.0966  2.4532
12573TIP3    H259211   6.389   6.567   1.276  0.0757 -1.1103  1.0009
12574TIP3   OH259212   1.806   4.591   6.297 -0.3669 -0.5253 -0.3209
12574TIP3    H159213   1.752   4.653   6.345 -0.2370  0.5903 -1.5485
12574TIP3    H259214   1.840   4.532   6.363  0.5308  1.4703  1.0757
12575TIP3   OH259215   3.677   3.167   4.162  0.8091 -0.0915 -0.1366
12575TIP3    H159216   3.668   3.087   4.110  1.6076 -1.2368  1.3957
12575TIP3    H259217   3.765   3.161   4.198 -0.0505  0.1150  2.1428
12576TIP3   OH259218   6.472   0.429   3.128 -0.3153 -0.1029 -0.3254
12576TIP3    H159219   6.448   0.337   3.141 -2.2530  0.3968 -0.0523
12576TIP3    H259220   6.391   0.471   3.099  0.2787  1.6996  0.4921
12577TIP3   OH259221   6.073   1.597   2.781  0.5344 -0.8604 -0.1662
12577TIP3    H159222   6.113   1.650   2.851  0.5732  1.1036 -1.6019
12577TIP3    H259223   6.147   1.566   2.729  0.3922  0.4252 -1.1889
12578TIP3   OH259224   2.457   5.586   1.652 -0.5630  0.3992  0.2890
12578TIP3    H159225   2.513   5.550   1.720 -0.6371 -0.6059 -0.1489
12578TIP3    H259226   2.447   5.514   1.589 -0.4420  1.3129 -0.8124
12579TIP3   OH259227   0.370   4.916  14.779 -0.2677  0.0765  0.2961
12579TIP3    H159228   0.309   4.845  14.760 -0.4113  0.5269 -0.9814
12579TIP3    H259229   0.349   4.941  14.869 -1.4779 -0.2523  0.1280
12580TIP3   OH259230   3.117   2.060  13.411 -0.0689 -0.2440 -0.1553
12580TIP3    H159231   3.029   2.034  13.384 -0.6085 -0.9976  2.1222
12580TIP3    H259232   3.137   2.137  13.357 -2.4450  0.4093 -0.2218
12581TIP3   OH259233   3.864   4.515   1.153 -0.2776 -0.1667 -0.5174
12581TIP3    H159234   3.927   4.587   1.145 -0.9609  0.3001 -1.9466
12581TIP3    H259235   3.795   4.550   1.210 -0.0765 -0.0861 -0.3217
12582TIP3   OH259236   0.467   4.466  16.883  0.1547 -0.0595  0.6478
12582TIP3    H159237   0.489   4.373  16.893 -2.5090 -0.8220  0.1549
12582TIP3    H259238   0.413   4.470  16.804 -0.5744  1.7687  1.1883
12583TIP3   OH259239   2.865   0.585  12.238 -0.8851  0.1012 -0.1173
12583TIP3    H159240   2.813   0.595  12.159  1.1469  1.4878 -1.3709
12583TIP3    H259241   2.801   0.567  12.307 -2.8318  0.2033 -1.8134
12584TIP3   OH259242   1.567   0.073  13.963  0.2536  0.3138 -0.2893
12584TIP3    H159243   1.583   0.131  14.037 -1.0420 -0.1875  0.4211
12584TIP3    H259244   1.573  -0.016  14.000 -1.2234  0.0687 -0.5706
12585TIP3   OH259245   3.207   2.550   1.695 -0.5527  0.4689 -0.7598
12585TIP3    H159246   3.239   2.460   1.697 -1.3112  0.1918 -0.8794
12585TIP3    H259247   3.271   2.597   1.641  2.1990  0.9681  2.5557
12586TIP3   OH259248   0.973   0.590   2.598  0.5782 -0.7033 -0.1381
12586TIP3    H159249   0.925   0.509   2.584 -0.7078 -0.4740  2.2954
12586TIP3    H259250   0.921   0.657   2.554  1.5482 -1.1031 -1.9970
12587TIP3   OH259251   3.226   3.917   0.373  0.0087 -0.7107 -0.5966
12587TIP3    H159252   3.263   3.841   0.328  1.6266 -0.5229  0.3411
12587TIP3    H259253   3.169   3.878   0.440  0.5315 -1.0912 -0.3670
12588TIP3   OH259254   0.314   5.808   1.933 -0.3249  0.4979 -0.4453
12588TIP3    H159255   0.256   5.868   1.979  0.8688  1.7250 -0.4668
12588TIP3    H259256   0.261   5.730   1.917 -1.5720  1.0993  0.6019
12589TIP3   OH259257   0.550   1.752   2.920 -0.2775  0.2607 -0.1270
12589TIP3    H159258   0.515   1.790   3.001 -0.2521  0.1128 -0.0460
12589TIP3    H259259   0.623   1.808   2.896 -1.4228  1.4315 -1.0723
12590TIP3   OH259260   4.964   4.406  11.750 -0.6384  0.5070 -0.1271
12590TIP3    H159261   4.895   4.469  11.732 -0.2940  0.4908 -1.6041
12590TIP3    H259262   4.939   4.327  11.702  1.5412  1.2701 -2.7897
12591TIP3   OH259263   6.681   4.460   3.277 -0.2339  0.0014 -0.2121
12591TIP3    H159264   6.693   4.467   3.372  2.0665 -0.2552 -0.4455
12591TIP3    H259265   6.712   4.544   3.243 -0.7464 -0.0310 -0.7746
12592TIP3   OH259266   5.850   5.452  13.685  0.0431  0.5753 -0.6954
12592TIP3    H159267   5.828   5.544  13.695 -0.6194  0.4618 -1.0594
12592TIP3    H259268   5.768   5.405  13.700  0.5558 -0.0215  0.3902
12593TIP3   OH259269   2.332   4.363   4.829 -0.4408 -0.6252 -0.5124
12593TIP3    H159270   2.379   4.376   4.911 -1.5105  0.3379 -0.0293
12593TIP3    H259271   2.350   4.442   4.778  0.2237 -1.2211 -1.2246
12594TIP3   OH259272   5.484   5.163   2.808  0.0595  0.3292 -0.0647
12594TIP3    H159273   5.447   5.103   2.872  0.7684 -0.6909 -0.5936
12594TIP3    H259274   5.484   5.248   2.852 -0.2517 -0.1913  0.9610
12595TIP3   OH259275   4.656   4.719  16.033 -0.5815  0.5794  0.1227
12595TIP3    H159276   4.659   4.809  16.065 -1.1494  0.3766  0.7894
12595TIP3    H259277   4.679   4.725  15.941 -1.0388  1.4645  0.0583
12596TIP3   OH259278   0.378   3.156   3.874  0.0520 -0.2883  0.5415
12596TIP3    H159279   0.349   3.197   3.793  3.3562  1.5768  0.1125
12596TIP3    H259280   0.330   3.201   3.943  0.0331  0.8804 -0.2128
12597TIP3   OH259281   3.235   5.628   3.508  0.0814 -0.5891 -0.1258
12597TIP3    H159282   3.167   5.651   3.445 -0.0811  0.2459  0.3481
12597TIP3    H259283   3.196   5.559   3.562 -1.0174  0.9905  1.1914
12598TIP3   OH259284   0.329   4.650  13.025  0.3491  0.1669 -0.2971
12598TIP3    H159285   0.252   4.637  12.970 -1.0287 -0.0380  1.6095
12598TIP3    H259286   0.383   4.573  13.008 -1.0210 -0.9322  0.1562
12599TIP3   OH259287   1.837   2.093  14.406 -0.7929 -0.2888 -0.2741
12599TIP3    H159288   1.902   2.112  14.337 -0.9080 -0.3679 -0.4042
12599TIP3    H259289   1.801   2.008  14.382  0.2742 -1.0505  0.7372
12600TIP3   OH259290   6.722   2.951  13.107  0.2906  0.0416 -0.5374
12600TIP3    H159291   6.650   2.924  13.165  0.4740  1.3443  0.3439
12600TIP3    H259292   6.801   2.926  13.154  0.4715  2.2915  0.4577
12601TIP3   OH259293   2.437   0.340  11.774  0.0125 -0.1854 -0.0661
12601TIP3    H159294   2.472   0.409  11.717 -1.8681  0.4674 -0.4816
12601TIP3    H259295   2.446   0.260  11.724  0.9638 -0.0677 -0.1160
12602TIP3   OH259296   4.244   5.872  11.897 -0.1771 -0.1026  0.3703
12602TIP3    H159297   4.308   5.829  11.840  0.9283  0.9752  0.7367
12602TIP3    H259298   4.166   5.881  11.843 -0.3732 -2.2865  0.2061
12603TIP3   OH259299   4.309   3.377  15.444  0.2039  0.6778  0.5326
12603TIP3    H159300   4.299   3.327  15.363 -0.9597  1.6472  0.0403
12603TIP3    H259301   4.331   3.466  15.414 -2.3362  1.5908  1.1194
12604TIP3   OH259302   4.194   1.988  11.435  0.2117  0.1670 -0.0611
12604TIP3    H159303   4.145   2.021  11.360  1.1859  0.0693 -0.7568
12604TIP3    H259304   4.203   1.894  11.418  0.4406  0.1459  0.1832
12605TIP3   OH259305   0.003   2.106  12.686 -0.4098  0.4624 -0.6519
12605TIP3    H159306  -0.022   2.184  12.736 -2.1388 -0.3883 -0.0727
12605TIP3    H259307   0.022   2.040  12.753  0.9500  0.3451 -1.1328
12606TIP3   OH259308   4.234   6.437  16.622 -0.3476 -0.0087  0.6479
12606TIP3    H159309   4.186   6.495  16.564  0.2461  0.1232  0.2766
12606TIP3    H259310   4.322   6.431  16.583 -0.7053 -2.0518  0.0490
12607TIP3   OH259311   0.129   5.386  16.559 -0.5753  0.3377  0.0176
12607TIP3    H159312   0.066   5.365  16.628 -0.0748 -1.5248 -0.0344
12607TIP3    H259313   0.112   5.320  16.491  0.1187  1.0352 -0.8527
12608TIP3   OH259314   3.623   4.494   5.387 -0.0128  0.2324 -0.0631
12608TIP3    H159315   3.589   4.424   5.443 -3.3671  2.1020  0.5152
12608TIP3    H259316   3.676   4.548   5.445  0.3615 -0.3331  0.1326
12609TIP3   OH259317   5.366   4.243   3.095 -0.1697 -0.1193  0.3187
12609TIP3    H159318   5.345   4.317   3.152 -0.6125  0.5503 -0.6702
12609TIP3    H259319   5.441   4.201   3.136  0.4127  1.1888  0.6469
12610TIP3   OH259320   2.644   0.346   3.130 -0.2119 -0.2726 -0.1383
12610TIP3    H159321   2.596   0.314   3.054 -0.6095 -1.2744  0.5225
12610TIP3    H259322   2.649   0.271   3.190 -0.9432  0.7977  1.3427
12611TIP3   OH259323   6.561   1.113  13.697 -0.2967 -0.4607 -0.0246
12611TIP3    H159324   6.611   1.178  13.647  0.9417 -2.6763 -1.9405
12611TIP3    H259325   6.474   1.114  13.658  0.7051 -2.2990 -2.6595
12612TIP3   OH259326   1.255   0.817  13.589  0.2286  0.4268  0.2085
12612TIP3    H159327   1.316   0.786  13.655 -0.0501  0.5595  0.5306
12612TIP3    H259328   1.238   0.909  13.612 -0.5094  0.2404  0.4433
12613TIP3   OH259329   4.523   2.689  13.576  0.3453 -0.3651 -0.2680
12613TIP3    H159330   4.499   2.683  13.484  0.0925 -0.6073 -0.1877
12613TIP3    H259331   4.595   2.627  13.586  1.7697  1.1284 -0.7433
12614TIP3   OH259332   6.345   6.141   4.004  0.7976 -0.0539 -0.4341
12614TIP3    H159333   6.286   6.090   3.949 -0.9070  1.9260 -0.5551
12614TIP3    H259334   6.323   6.116   4.094  2.4430 -2.0648 -0.5221
12615TIP3   OH259335   3.186   6.007   4.362 -0.1912 -0.1055  0.0765
12615TIP3    H159336   3.210   5.977   4.450  1.0413 -1.8131 -0.7941
12615TIP3    H259337   3.207   6.101   4.363 -1.6908  0.2925  2.0660
12616TIP3   OH259338   5.681   3.736   5.721 -0.1176 -0.6193  0.1056
12616TIP3    H159339   5.754   3.676   5.704  1.1530  0.9557 -0.2881
12616TIP3    H259340   5.660   3.773   5.635 -0.3503  0.0704  0.4504
12617TIP3   OH259341   2.628   3.872   0.871  0.1307 -0.3816 -0.0091
12617TIP3    H159342   2.581   3.955   0.881  0.1135 -0.6060  2.1221
12617TIP3    H259343   2.570   3.807   0.910  1.7512 -0.7955  1.8638
12618TIP3   OH259344   1.456   6.095  11.109 -0.6982 -0.2842 -0.2295
12618TIP3    H159345   1.550   6.101  11.123 -0.2735 -3.1297 -1.1903
12618TIP3    H259346   1.421   6.068  11.194 -0.4608 -0.4447 -0.1806
12619TIP3   OH259347   1.870   1.183  10.560  0.2883 -0.0921 -0.3217
12619TIP3    H159348   1.825   1.145  10.484 -1.0005  0.5277  0.1066
12619TIP3    H259349   1.882   1.275  10.536  0.0458  0.0617  0.1512
12620TIP3   OH259350   3.925   4.777   2.415  0.2815 -0.3602  0.2585
12620TIP3    H159351   4.013   4.814   2.413 -0.3112  1.1532  0.9372
12620TIP3    H259352   3.921   4.732   2.500  0.0106  0.6214  0.7809
12621TIP3   OH259353   1.089   5.983  11.310  0.9687 -0.3611 -0.4755
12621TIP3    H159354   1.051   6.064  11.276  1.8790 -0.4125 -1.6924
12621TIP3    H259355   1.101   6.000  11.404  1.1768  0.9279 -0.7119
12622TIP3   OH259356   0.516   1.379  14.030  0.6358 -0.3113  0.1329
12622TIP3    H159357   0.559   1.405  13.949 -1.9430 -0.2506 -1.3381
12622TIP3    H259358   0.542   1.446  14.093 -0.1513  1.8193 -1.6643
12623TIP3   OH259359   6.742   3.621  12.304  0.2660 -0.0740  0.2665
12623TIP3    H159360   6.820   3.584  12.346 -0.4047  0.2472  1.8611
12623TIP3    H259361   6.711   3.551  12.246  0.5589 -1.0094  1.2085
12624TIP3   OH259362   1.755   1.887  16.728  0.1727  0.2676 -0.3132
12624TIP3    H159363   1.682   1.836  16.763  1.1120 -0.5740  0.4681
12624TIP3    H259364   1.729   1.906  16.637 -0.7986 -0.4138 -0.1941
12625TIP3   OH259365   5.951   5.814   4.635 -0.1894  0.2835  0.2754
12625TIP3    H159366   6.046   5.807   4.622 -0.3094  0.0650 -0.5121
12625TIP3    H259367   5.934   5.755   4.708  0.3308  0.6065  0.6675
12626TIP3   OH259368   6.380   4.838   0.002  0.1074  0.0125 -0.1040
12626TIP3    H159369   6.470   4.810   0.018  0.3949 -0.1412 -1.8677
12626TIP3    H259370   6.327   4.763   0.030  0.6371 -0.5983 -0.6927
12627TIP3   OH259371   3.343   3.856  13.946  0.5804 -0.2411 -0.8639
12627TIP3    H159372   3.316   3.947  13.935  0.1145 -0.4336 -1.3386
12627TIP3    H259373   3.276   3.805  13.900  1.0781 -0.7988 -0.9775
12628TIP3   OH259374   2.818   4.134   0.330 -0.2474  0.1416  0.4464
12628TIP3    H159375   2.912   4.137   0.316 -0.4503  1.7134 -0.9297
12628TIP3    H259376   2.782   4.102   0.247 -0.9952  0.9738  0.4266
12629TIP3   OH259377   3.935   5.731   5.995 -0.2807  0.2413 -0.3487
12629TIP3    H159378   3.924   5.752   6.088 -2.4790  3.3529 -1.1962
12629TIP3    H259379   4.011   5.783   5.968 -0.6748  0.6678 -0.6447
12630TIP3   OH259380   6.233   4.868   2.358 -0.9803 -0.3303  0.3545
12630TIP3    H159381   6.147   4.908   2.366  0.3773  2.7001  1.3306
12630TIP3    H259382   6.291   4.939   2.330  1.2705 -2.1762 -0.0390
12631TIP3   OH259383   3.563   5.562   1.855  0.1246 -0.9004 -0.3029
12631TIP3    H159384   3.570   5.540   1.762  0.3697 -1.8928 -0.0548
12631TIP3    H259385   3.610   5.645   1.863 -1.6748  0.2917 -1.4295
12632TIP3   OH259386   5.268   4.459   6.438 -0.0999  0.2402  0.1156
12632TIP3    H159387   5.319   4.494   6.365 -1.3979  1.7083 -0.1619
12632TIP3    H259388   5.243   4.537   6.489 -2.2562 -0.3530  0.0701
12633TIP3   OH259389   1.251   0.793   1.868 -0.3777  0.1743  0.3125
12633TIP3    H159390   1.274   0.761   1.955  0.9350 -0.6451 -0.3015
12633TIP3    H259391   1.163   0.828   1.878 -1.9322 -3.4382  1.1672
12634TIP3   OH259392   1.743   6.062  11.114 -0.3396 -0.0037 -0.0749
12634TIP3    H159393   1.727   5.989  11.174 -1.5619 -0.0481 -0.4389
12634TIP3    H259394   1.836   6.054  11.092 -0.3772 -1.2616  0.1361
12635TIP3   OH259395   1.971   0.193  15.830 -0.0757  0.1286 -0.5282
12635TIP3    H159396   2.046   0.247  15.806 -1.9955  2.9685 -0.6021
12635TIP3    H259397   1.948   0.146  15.750 -0.3897  1.8677 -1.5011
12636TIP3   OH259398   2.366   5.534  16.252  0.0585  0.0700  0.5523
12636TIP3    H159399   2.367   5.457  16.307 -0.7008  0.6398  1.3799
12636TIP3    H259400   2.309   5.511  16.178  1.9611 -1.0933 -0.6452
12637TIP3   OH259401   0.264   3.632  13.820 -0.1109 -0.3052 -0.1519
12637TIP3    H159402   0.313   3.581  13.755 -0.8459 -2.7016  1.0835
12637TIP3    H259403   0.173   3.611  13.803 -0.3367 -0.6571  1.3887
12638TIP3   OH259404   2.205   2.144   1.844  0.4757 -0.1347  0.0748
12638TIP3    H159405   2.197   2.168   1.752 -0.6445  0.6156  0.3526
12638TIP3    H259406   2.241   2.222   1.886  3.0379 -1.1713 -0.0280
12639TIP3   OH259407   5.069   2.775   3.800 -0.9740 -0.0721  0.5907
12639TIP3    H159408   5.058   2.839   3.730  1.9119  0.2670  0.3311
12639TIP3    H259409   5.062   2.826   3.881 -1.4054  0.0575  0.4735
12640TIP3   OH259410   1.522   5.494   0.607 -0.8254  0.3676 -0.1141
12640TIP3    H159411   1.527   5.531   0.519  0.3823  1.4719  0.3917
12640TIP3    H259412   1.602   5.524   0.651 -0.0758 -2.2886  0.5591
12641TIP3   OH259413   2.680   5.832   1.063 -0.1444  0.4789 -0.1348
12641TIP3    H159414   2.696   5.824   0.969  0.9815  0.0107  0.0806
12641TIP3    H259415   2.587   5.813   1.073 -0.5860  1.8080 -1.2915
12642TIP3   OH259416   0.354   3.944  13.673  0.0350  0.0389  0.2002
12642TIP3    H159417   0.374   3.851  13.685 -2.6240 -0.5085  0.9075
12642TIP3    H259418   0.365   3.983  13.760 -0.1909  0.0934  0.2055
12643TIP3   OH259419   5.962   3.225  14.096  0.3744  0.2614 -0.1035
12643TIP3    H159420   5.997   3.142  14.064  1.7472  0.4291  0.8885
12643TIP3    H259421   6.001   3.291  14.039 -0.5398  0.2730 -0.7467
12644TIP3   OH259422   3.087   0.746  13.630 -0.2173  0.3029  0.0292
12644TIP3    H159423   3.095   0.653  13.609  4.7920  1.1736 -3.6505
12644TIP3    H259424   3.136   0.757  13.711  2.3897  0.0535 -1.4234
12645TIP3   OH259425   2.077   0.240  14.922  0.0279  0.4523 -0.1089
12645TIP3    H159426   2.035   0.227  15.007  0.4762 -0.5207 -0.0267
12645TIP3    H259427   2.018   0.298  14.874 -1.1738 -0.5078  0.1700
12646TIP3   OH259428   0.321   5.091  15.590 -0.1880 -0.1294 -0.3722
12646TIP3    H159429   0.284   5.179  15.602 -0.3999 -0.2333 -0.2584
12646TIP3    H259430   0.406   5.106  15.549  0.1563  0.1850  0.4330
12647TIP3   OH259431   1.056   4.903   4.820 -0.0788  0.1802 -0.2880
12647TIP3    H159432   0.977   4.925   4.772  0.2851  0.9959 -0.5259
12647TIP3    H259433   1.127   4.920   4.758  0.2777 -0.7160 -0.1389
12648TIP3   OH259434   5.178   4.998   4.371  0.3454  0.0722  0.6903
12648TIP3    H159435   5.166   4.924   4.431 -2.6885  0.6115  0.9161
12648TIP3    H259436   5.193   5.073   4.428 -1.5482  0.4170  0.7802
12649TIP3   OH259437   4.503   4.929  15.860 -0.2731 -0.2135  0.4269
12649TIP3    H159438   4.459   4.998  15.909  0.0520  1.1713 -1.1692
12649TIP3    H259439   4.513   4.964  15.771 -1.1891 -2.7782 -0.7785
12650TIP3   OH259440   1.564   0.119  14.565 -0.3440  0.3651  0.5152
12650TIP3    H159441   1.576   0.194  14.507 -0.4060 -0.2728 -0.3378
12650TIP3    H259442   1.569   0.042  14.507 -1.3094 -0.2427  1.2098
12651TIP3   OH259443   6.405   3.574   3.846  0.0216 -0.0943  0.2269
12651TIP3    H159444   6.385   3.584   3.753  1.0135  2.2241  0.1761
12651TIP3    H259445   6.409   3.664   3.879  1.4344 -0.7756  2.1075
12652TIP3   OH259446   1.149   1.005  15.246 -0.0355 -0.5288 -0.3446
12652TIP3    H159447   1.097   0.924  15.251  0.6601 -0.9523  0.0952
12652TIP3    H259448   1.161   1.031  15.337  1.7321 -1.2276 -0.3442
12653TIP3   OH259449   5.680   0.299  12.244 -0.0364 -0.0581 -0.0457
12653TIP3    H159450   5.658   0.372  12.186 -2.3235 -0.2963  0.4279
12653TIP3    H259451   5.765   0.269  12.213 -0.6109  0.6119 -2.4675
12654TIP3   OH259452   0.472   1.101  14.315 -0.5093  0.1630 -0.4829
12654TIP3    H159453   0.491   1.193  14.331 -0.7402 -0.0251  0.9864
12654TIP3    H259454   0.535   1.053  14.368 -1.7238 -0.4917  0.4425
12655TIP3   OH259455   0.503   6.255  12.844  0.5382 -0.0793  0.0967
12655TIP3    H159456   0.584   6.216  12.877  1.3651  0.4435 -1.2305
12655TIP3    H259457   0.437   6.186  12.854  1.1889 -0.5989  0.9591
12656TIP3   OH259458   0.684   6.640  12.499 -0.5897 -0.4802 -0.5064
12656TIP3    H159459   0.634   6.719  12.520 -1.8432 -1.0344 -1.2615
12656TIP3    H259460   0.619   6.569  12.504  0.8131 -1.7120  1.6007
12657TIP3   OH259461   2.873   2.573  16.907 -0.0998  0.1527  0.0098
12657TIP3    H159462   2.813   2.589  16.980 -0.0739 -0.1940  0.1071
12657TIP3    H259463   2.918   2.657  16.895  0.2589  0.0701  0.7266
12658TIP3   OH259464   0.471   2.185   1.437  0.1768 -0.4953 -0.3322
12658TIP3    H159465   0.461   2.159   1.528  1.0511  2.4172  0.7110
12658TIP3    H259466   0.382   2.191   1.404 -0.0945 -3.7933 -0.4624
12659TIP3   OH259467   3.628   5.047   2.845 -0.0452 -0.1338  0.5768
12659TIP3    H159468   3.552   4.989   2.839 -0.4771  0.4522  0.2422
12659TIP3    H259469   3.649   5.049   2.939 -0.6222 -0.0858  0.7102
12660TIP3   OH259470   6.024   1.431   4.405  0.3188 -0.0631  0.7898
12660TIP3    H159471   5.971   1.504   4.373  0.0762 -0.7603 -0.4512
12660TIP3    H259472   6.114   1.465   4.403  0.3067 -0.0453 -0.5996
12661TIP3   OH259473   0.831   1.055   5.869  0.0044 -0.4291 -0.5004
12661TIP3    H159474   0.803   1.141   5.900 -0.7172 -0.7675 -0.1667
12661TIP3    H259475   0.862   1.010   5.948 -1.9606 -1.3406 -0.1596
12662TIP3   OH259476   0.044   4.605  12.563 -0.2705  0.1604 -0.4081
12662TIP3    H159477   0.014   4.695  12.549  1.1896  0.5921 -0.9787
12662TIP3    H259478   0.111   4.591  12.496 -0.6794 -1.4738 -0.5285
12663TIP3   OH259479   6.121   1.615   2.262 -0.5565  0.3910  0.0765
12663TIP3    H159480   6.065   1.540   2.244 -1.4935  1.0980 -0.0323
12663TIP3    H259481   6.091   1.649   2.346  0.6392 -0.0402  0.7030
12664TIP3   OH259482   0.036   3.500  15.376 -0.7304 -0.2254 -0.0417
12664TIP3    H159483  -0.052   3.533  15.360 -1.1314 -0.4552  1.5759
12664TIP3    H259484   0.048   3.432  15.310 -1.8768 -0.3896 -0.0966
12665TIP3   OH259485   2.951   1.081   2.527 -0.2766  0.1301 -0.5008
12665TIP3    H159486   2.897   1.036   2.462  1.0191  1.6876 -2.7901
12665TIP3    H259487   3.018   1.016   2.550 -0.5089 -0.3175 -1.0426
12666TIP3   OH259488   6.483   3.527   3.065 -0.3310  0.8406 -0.0944
12666TIP3    H159489   6.436   3.599   3.106 -2.1717  0.3340 -1.1474
12666TIP3    H259490   6.421   3.454   3.068  0.3720  0.1337 -1.5840
12667TIP3   OH259491   0.394   0.781   3.914  0.6874  0.4194 -0.0899
12667TIP3    H159492   0.476   0.824   3.940  0.0073  1.2438  0.7147
12667TIP3    H259493   0.328   0.850   3.918 -0.4763 -0.7176  1.4699
12668TIP3   OH259494   0.124   4.529  16.516 -0.1944 -0.0110  0.4229
12668TIP3    H159495   0.051   4.478  16.480  0.0996 -0.2345  0.1328
12668TIP3    H259496   0.163   4.572  16.439 -0.7521  1.0641  0.7261
12669TIP3   OH259497   4.848   5.779  11.554 -0.1532  0.0301  0.1601
12669TIP3    H159498   4.856   5.866  11.515  1.3788  1.1438  2.7014
12669TIP3    H259499   4.883   5.720  11.488  0.5378  1.5783 -0.9162
12670TIP3   OH259500   5.980   1.813  16.895 -0.0966  0.4037 -0.8345
12670TIP3    H159501   5.937   1.886  16.851  0.8959  0.7906 -1.1860
12670TIP3    H259502   5.952   1.819  16.986 -0.8141  0.6186 -1.0694
12671TIP3   OH259503   4.983   5.857  10.548 -0.1028  0.3812 -0.7316
12671TIP3    H159504   4.925   5.818  10.482  1.7395 -0.4949 -1.9170
12671TIP3    H259505   5.007   5.941  10.511 -1.8120  1.4823  0.5104
12672TIP3   OH259506   6.366   6.194  16.791 -0.1003  0.3179 -0.4223
12672TIP3    H159507   6.353   6.270  16.848  0.9603  0.0612  0.1868
12672TIP3    H259508   6.278   6.172  16.761 -0.5264  1.2539  0.0888
12673TIP3   OH259509   4.369   3.912  16.298  0.3258 -0.3118  0.1472
12673TIP3    H159510   4.358   3.994  16.248  1.4284  1.1143  2.0900
12673TIP3    H259511   4.463   3.900  16.302  0.2265 -0.8200  1.1898
12674TIP3   OH259512   5.717   2.218   1.285  0.0418  0.1302 -0.2205
12674TIP3    H159513   5.785   2.151   1.276 -0.1940 -0.4250  1.7113
12674TIP3    H259514   5.759   2.290   1.331 -0.9178 -0.7074  2.0927
12675TIP3   OH259515   0.366   2.556   3.412  0.1128 -0.1253 -0.3426
12675TIP3    H159516   0.373   2.616   3.487 -1.7416  0.3280 -0.4638
12675TIP3    H259517   0.398   2.607   3.338  1.8151 -0.5239  0.0837
12676TIP3   OH259518   6.374   0.008   1.927  0.3932 -0.4516 -0.0072
12676TIP3    H159519   6.293   0.031   1.880  0.7291 -1.5508 -1.2017
12676TIP3    H259520   6.365   0.051   2.012 -0.8915  0.4579 -0.5581
12677TIP3   OH259521   3.209   0.889   4.620 -0.2627  0.0366  0.3394
12677TIP3    H159522   3.225   0.795   4.634 -0.6065  0.0596  0.9169
12677TIP3    H259523   3.133   0.892   4.562  0.2558 -0.0475 -0.3507
12678TIP3   OH259524   1.249   0.787   2.979 -0.0294  0.1834  0.3267
12678TIP3    H159525   1.283   0.725   2.915 -1.0253  0.2890 -0.3248
12678TIP3    H259526   1.158   0.761   2.992  0.1817  0.1122  1.7742
12679TIP3   OH259527   3.253   0.766  14.852  0.6606  0.2261 -0.4444
12679TIP3    H159528   3.244   0.758  14.947  1.2250  0.6749 -0.3442
12679TIP3    H259529   3.163   0.764  14.819  0.1976  3.0235  0.3642
12680TIP3   OH259530   4.000   4.264  14.444 -0.3430 -0.4855 -0.0691
12680TIP3    H159531   3.996   4.252  14.349  0.9080  2.0474 -0.5378
12680TIP3    H259532   4.053   4.191  14.475  0.9094 -0.2980 -1.6259
12681TIP3   OH259533   1.717   6.738  16.544  0.1182  0.2994 -0.4035
12681TIP3    H159534   1.790   6.732  16.483  2.2338 -1.1944  2.0798
12681TIP3    H259535   1.731   6.820  16.590 -1.2935  1.2678 -1.6186
12682TIP3   OH259536   5.316   1.886   0.879 -0.1961 -0.4030 -0.1304
12682TIP3    H159537   5.317   1.825   0.952 -1.0164  0.8605  0.9943
12682TIP3    H259538   5.270   1.840   0.809  3.8862 -3.1435 -1.3616
12683TIP3   OH259539   3.431   5.810  14.058  0.1865 -0.2760 -0.6726
12683TIP3    H159540   3.470   5.879  14.004  1.3799 -1.4477 -1.3765
12683TIP3    H259541   3.339   5.808  14.032  0.0060  1.3822 -0.2564
12684TIP3   OH259542   6.691   3.642   2.915  0.3400  0.1712 -0.1200
12684TIP3    H159543   6.622   3.596   2.962 -0.0343  0.3334 -0.5114
12684TIP3    H259544   6.717   3.713   2.975  0.4479 -0.1297  0.1934
12685TIP3   OH259545   0.081   3.211   5.406 -0.1705 -0.1163 -0.3948
12685TIP3    H159546   0.049   3.193   5.495  0.1814  0.1229 -0.2127
12685TIP3    H259547   0.154   3.271   5.420 -1.0958  1.1692 -0.9641
12686TIP3   OH259548   1.254   4.524  14.341 -0.1575  0.4763  0.1264
12686TIP3    H159549   1.268   4.529  14.247 -1.0011 -0.2735 -0.0476
12686TIP3    H259550   1.323   4.579  14.378  0.6851  0.1418 -0.8857
12687TIP3   OH259551   6.774   3.702  13.278 -0.0618 -0.2033  0.0903
12687TIP3    H159552   6.684   3.726  13.257  0.1099  0.8808  0.5453
12687TIP3    H259553   6.787   3.618  13.234 -1.0655 -0.0295 -0.5746
12688TIP3   OH259554   2.558   0.193   1.021  0.5317 -0.2403 -0.2133
12688TIP3    H159555   2.635   0.143   0.995  1.8516  1.2655  0.5908
12688TIP3    H259556   2.529   0.153   1.103  0.4852 -0.7624 -0.4800
12689TIP3   OH259557   4.076   5.050   5.952  0.4905  0.2418 -0.1567
12689TIP3    H159558   4.010   4.980   5.945  0.3025  0.5659 -2.5662
12689TIP3    H259559   4.122   5.031   6.033 -4.3215  1.6133  3.3603
12690TIP3   OH259560   5.102   5.814   2.138  0.0248 -0.2360  0.3951
12690TIP3    H159561   5.190   5.850   2.150 -0.8074  2.0111  0.1785
12690TIP3    H259562   5.043   5.888   2.152 -1.8661 -1.6886  0.5678
12691TIP3   OH259563   5.930   0.351   5.126  0.7687 -0.1028 -0.1918
12691TIP3    H159564   5.953   0.428   5.073  0.2150  0.9321  0.9980
12691TIP3    H259565   5.965   0.371   5.213  2.7889 -2.3324 -0.3932
12692TIP3   OH259566   3.086   1.233  10.312 -0.3750 -0.1880 -0.2714
12692TIP3    H159567   3.060   1.325  10.300 -1.6774 -0.6560 -1.3307
12692TIP3    H259568   3.014   1.195  10.363 -0.5327 -0.9361 -1.0425
12693TIP3   OH259569   1.373   0.594   4.509  0.0698 -0.2698 -0.3219
12693TIP3    H159570   1.399   0.683   4.484 -2.2201  0.4896 -0.2815
12693TIP3    H259571   1.286   0.583   4.471 -0.5641 -1.7239  1.3778
12694TIP3   OH259572   6.115   5.993   3.446 -0.6233 -0.1798 -0.3493
12694TIP3    H159573   6.162   6.061   3.399  0.4623 -0.8144 -0.2165
12694TIP3    H259574   6.051   5.959   3.383  1.4393 -1.6879 -1.7653
12695TIP3   OH259575   5.115   0.265  16.780 -0.3788 -0.3097  0.3404
12695TIP3    H159576   5.176   0.230  16.715  1.3869  0.0876  1.7013
12695TIP3    H259577   5.091   0.351  16.746 -0.9075 -0.8259 -0.6366
12696TIP3   OH259578   6.256   4.427  11.402 -0.4569 -0.2100 -0.5410
12696TIP3    H159579   6.307   4.399  11.478  0.8102  1.5422 -0.6776
12696TIP3    H259580   6.165   4.409  11.427 -0.1968  1.3292  1.9042
12697TIP3   OH259581   5.386   2.235   5.822  0.1411 -0.0592 -0.2121
12697TIP3    H159582   5.312   2.241   5.882 -0.5171  0.9232 -1.1088
12697TIP3    H259583   5.413   2.143   5.828 -1.3144 -0.5039 -0.0895
12698TIP3   OH259584   2.552   4.426  10.866 -0.6014  0.1418 -0.8974
12698TIP3    H159585   2.547   4.346  10.813  1.9223 -0.8028  0.1372
12698TIP3    H259586   2.639   4.461  10.849 -1.1593  1.9684 -0.2833
12699TIP3   OH259587   3.357   6.119   0.372 -0.2547  0.4385 -0.0878
12699TIP3    H159588   3.360   6.028   0.342  1.3644  0.7901 -1.0693
12699TIP3    H259589   3.292   6.160   0.315 -1.7428 -0.2806  1.0077
12700TIP3   OH259590   3.259   6.659  11.364 -0.1743 -0.4417 -0.1204
12700TIP3    H159591   3.205   6.719  11.312  1.1130  0.3823 -0.5647
12700TIP3    H259592   3.215   6.655  11.449  0.8340  2.9665  0.7162
12701TIP3   OH259593   4.961   0.068   0.721 -0.1587  0.2373 -0.2838
12701TIP3    H159594   4.877   0.088   0.761  1.0037  0.9356  1.9872
12701TIP3    H259595   4.982   0.145   0.668 -1.6241 -0.6163 -2.2476
12702TIP3   OH259596   5.293   4.752   1.927 -0.1904  0.2183 -0.6128
12702TIP3    H159597   5.306   4.756   2.022  2.9019  1.9110 -0.9514
12702TIP3    H259598   5.199   4.764   1.914 -0.9450 -1.7050  2.2466
12703TIP3   OH259599   0.889   6.489  15.017 -0.0769  0.3636  0.4344
12703TIP3    H159600   0.978   6.472  14.985  0.4292  1.0647  1.4383
12703TIP3    H259601   0.870   6.579  14.990 -0.6642  0.0645 -0.1708
12704TIP3   OH259602   5.634   6.838  12.403 -0.5263  0.3493 -0.0036
12704TIP3    H159603   5.704   6.853  12.339 -0.1539 -0.4559  0.1993
12704TIP3    H259604   5.564   6.797  12.353  0.2141 -1.3555  0.3042
12705TIP3   OH259605   0.864   5.798   5.282 -0.0221  0.7558 -0.8372
12705TIP3    H159606   0.873   5.835   5.370 -1.7449 -0.5417 -0.0447
12705TIP3    H259607   0.791   5.736   5.290  1.0908 -0.8896 -2.6982
12706TIP3   OH259608   2.277   2.272  14.504 -0.2559  0.2991 -0.6963
12706TIP3    H159609   2.204   2.300  14.559 -0.6592  0.4178 -1.2782
12706TIP3    H259610   2.347   2.249  14.565 -0.5151  0.9313 -0.1549
12707TIP3   OH259611   2.325   0.568  14.206  0.3098  0.0927  0.9567
12707TIP3    H159612   2.301   0.641  14.149  0.1088 -0.6946 -0.0001
12707TIP3    H259613   2.251   0.507  14.199  1.8673 -1.7198 -0.9037
12708TIP3   OH259614   3.493   5.165   5.300  0.6382  0.3585  0.0056
12708TIP3    H159615   3.566   5.189   5.243  0.0623  2.3478  0.0029
12708TIP3    H259616   3.415   5.185   5.248 -0.0557 -3.4506 -0.7095
12709TIP3   OH259617   4.540   0.143   0.689 -0.2290 -0.4101 -0.4112
12709TIP3    H159618   4.583   0.202   0.752  1.6536 -1.0273 -1.0454
12709TIP3    H259619   4.575   0.057   0.708 -0.3774 -0.7746 -1.6585
12710TIP3   OH259620   3.547   2.544   2.360  0.2495  0.3235 -0.7639
12710TIP3    H159621   3.515   2.492   2.287  0.3355  0.2106 -0.7204
12710TIP3    H259622   3.603   2.485   2.410  0.5801  0.5387 -0.8762
12711TIP3   OH259623   5.798   5.223   2.120  0.6885 -0.1275 -0.3564
12711TIP3    H159624   5.879   5.193   2.162  1.4681  2.5502  0.2294
12711TIP3    H259625   5.817   5.223   2.027  2.0191  1.9732 -0.1550
12712TIP3   OH259626   0.194   5.192  13.063  0.3193 -0.2740  0.3588
12712TIP3    H159627   0.111   5.161  13.099 -1.0389  1.5869 -0.9691
12712TIP3    H259628   0.181   5.190  12.968  1.5639  0.6811  0.1471
12713TIP3   OH259629   2.891   4.756  12.304 -0.3678 -0.2230  0.0422
12713TIP3    H159630   2.838   4.676  12.310  1.0225 -1.1119  1.1917
12713TIP3    H259631   2.889   4.793  12.392  2.8613 -1.6713  0.8988
12714TIP3   OH259632   2.438   4.865  13.749 -0.4380 -0.4707 -0.1797
12714TIP3    H159633   2.413   4.848  13.659  1.4702 -0.2994 -0.7912
12714TIP3    H259634   2.477   4.783  13.779  0.1822 -0.1187  0.0081
12715TIP3   OH259635   4.943   1.202  12.022  0.3369 -0.2031 -0.5186
12715TIP3    H159636   4.863   1.181  11.975 -0.7710  0.6922  0.8687
12715TIP3    H259637   4.924   1.180  12.113  1.6160  0.1462 -0.1466
12716TIP3   OH259638   0.216   3.513  14.555  0.4451 -0.0165  0.1787
12716TIP3    H159639   0.170   3.429  14.561 -0.0364  0.2902  1.1046
12716TIP3    H259640   0.162   3.567  14.498  1.0796 -0.5237 -0.9265
12717TIP3   OH259641   2.263   0.803  14.065  0.5704 -0.3901 -0.2555
12717TIP3    H159642   2.182   0.821  14.017 -0.6248 -1.3637  1.2999
12717TIP3    H259643   2.268   0.872  14.131 -1.1489 -2.4152  2.1832
12718TIP3   OH259644   1.549   2.607  11.743 -0.4604  0.5652  0.2492
12718TIP3    H159645   1.574   2.668  11.813  0.0478  1.5517 -0.7508
12718TIP3    H259646   1.490   2.657  11.687 -0.9060 -0.2244 -0.0031
12719TIP3   OH259647   4.949   6.742   2.845  0.0607 -0.3359 -0.2144
12719TIP3    H159648   4.957   6.657   2.890  1.3950  0.6925  1.6320
12719TIP3    H259649   4.863   6.739   2.804 -1.1242 -1.5153  2.1305
12720TIP3   OH259650   1.416   6.601  15.039  0.1290 -0.8304  0.1265
12720TIP3    H159651   1.448   6.574  15.125 -0.9541 -2.3749  0.0825
12720TIP3    H259652   1.474   6.556  14.977 -1.3300 -2.7218  0.0581
12721TIP3   OH259653   2.616   4.756  15.795  0.4078  0.1816  0.1185
12721TIP3    H159654   2.665   4.796  15.723  0.0240  0.3776 -0.0383
12721TIP3    H259655   2.682   4.730  15.858  0.6276  1.6639  0.5296
12722TIP3   OH259656   3.579   2.545   3.910 -0.4985  0.1676  0.2740
12722TIP3    H159657   3.543   2.463   3.877 -0.1939  0.0137  0.3278
12722TIP3    H259658   3.654   2.562   3.854 -0.6389  0.4789  0.1782
12723TIP3   OH259659   0.643   4.087   4.691 -0.4393  0.1373 -0.3076
12723TIP3    H159660   0.568   4.083   4.749 -0.1880 -0.3032 -0.0103
12723TIP3    H259661   0.684   4.172   4.711  0.1356 -0.3794  0.7805
12724TIP3   OH259662   3.200   2.639   0.290  0.2577  0.2452 -0.3307
12724TIP3    H159663   3.132   2.662   0.227 -0.1640 -0.4310 -0.1298
12724TIP3    H259664   3.243   2.722   0.310  0.9471  0.3811 -2.1328
12725TIP3   OH259665   2.886   2.265  14.834  0.0095 -0.4270  0.2895
12725TIP3    H159666   2.832   2.330  14.878 -0.6790 -0.3417 -0.6650
12725TIP3    H259667   2.900   2.300  14.746  0.9608 -0.8260  0.2652
12726TIP3   OH259668   5.594   6.667  11.507 -0.0590 -0.3795  0.0609
12726TIP3    H159669   5.588   6.668  11.411  0.3540 -1.3801  0.0051
12726TIP3    H259670   5.564   6.754  11.534  2.2456  0.8778 -1.1180
12727TIP3   OH259671   6.155   5.510  14.436  0.2124  0.0570 -0.5956
12727TIP3    H159672   6.140   5.597  14.472  0.0678  0.1639 -0.9101
12727TIP3    H259673   6.150   5.522  14.341  2.3006  0.1289 -0.7558
12728TIP3   OH259674   1.456   0.114   5.221 -0.7224 -0.2398 -0.0258
12728TIP3    H159675   1.395   0.175   5.263 -0.4032 -0.6920  1.1478
12728TIP3    H259676   1.437   0.030   5.262  0.9619 -0.3124  0.6747
12729TIP3   OH259677   0.422   3.586   5.809 -0.0670 -0.7289  0.1913
12729TIP3    H159678   0.447   3.579   5.901 -0.3621 -1.0196  0.2501
12729TIP3    H259679   0.467   3.665   5.778 -1.1981  0.2816  0.9958
12730TIP3   OH259680   4.508   4.522   5.864  0.6507  0.2782 -0.2515
12730TIP3    H159681   4.601   4.534   5.881  1.3982 -1.8341 -2.2612
12730TIP3    H259682   4.487   4.588   5.798  0.8527  0.4312 -0.1650
12731TIP3   OH259683   0.416   6.351  11.107  0.1058 -0.3569  0.0502
12731TIP3    H159684   0.326   6.359  11.141 -0.4281 -0.2034 -1.3423
12731TIP3    H259685   0.406   6.304  11.025  1.4872 -1.5832  0.5477
12732TIP3   OH259686   5.700   5.879  11.886 -0.1852 -0.2259  0.0403
12732TIP3    H159687   5.684   5.962  11.842  0.1866  0.1307  0.5665
12732TIP3    H259688   5.705   5.814  11.816 -3.4877 -0.3410 -0.2667
12733TIP3   OH259689   3.574   0.138   5.281 -0.5067  0.3534  0.4737
12733TIP3    H159690   3.663   0.122   5.251 -0.9079  0.2234 -0.6902
12733TIP3    H259691   3.569   0.096   5.367  0.3863 -0.0984  0.3083
12734TIP3   OH259692   1.299   1.371   0.260 -0.3839  0.2990 -0.2089
12734TIP3    H159693   1.262   1.380   0.172  0.3768  0.4195 -0.5242
12734TIP3    H259694   1.360   1.298   0.253 -0.2917  0.3318  0.2126
12735TIP3   OH259695   3.744   0.326  15.880 -0.5537  0.0472 -0.3958
12735TIP3    H159696   3.748   0.240  15.837  1.8398 -0.3959  0.5702
12735TIP3    H259697   3.693   0.310  15.960  0.4906 -0.6749  0.1456
12736TIP3   OH259698   3.640   6.464   2.234  0.2197 -0.2362 -0.5881
12736TIP3    H159699   3.723   6.494   2.197 -0.8691  0.6409 -2.4541
12736TIP3    H259700   3.574   6.492   2.171 -1.5600 -0.5111  1.0521
12737TIP3   OH259701   0.724   1.433   1.281  0.3036 -0.1276 -0.6115
12737TIP3    H159702   0.742   1.340   1.295 -1.0686 -0.1223  1.7156
12737TIP3    H259703   0.664   1.435   1.206 -0.2047 -1.1811 -0.2459
12738TIP3   OH259704   2.604   0.533   2.793  0.6325 -0.4306 -0.4588
12738TIP3    H159705   2.509   0.532   2.784  0.6148 -1.1303 -0.1990
12738TIP3    H259706   2.630   0.442   2.785  1.2508 -0.2851 -0.1443
12739TIP3   OH259707   1.446   4.577   2.573 -0.3857 -0.2861 -0.2565
12739TIP3    H159708   1.403   4.579   2.488 -0.1155  1.0320 -0.3777
12739TIP3    H259709   1.533   4.613   2.557 -0.2662 -0.2015  0.5410
12740TIP3   OH259710   5.147   1.786   5.723  0.1587 -0.5239  0.2305
12740TIP3    H159711   5.072   1.822   5.675 -0.7439 -3.9865 -1.2388
12740TIP3    H259712   5.117   1.780   5.813 -0.3284  0.5858  0.1599
12741TIP3   OH259713   0.220   5.486  15.231  0.3240 -0.5464  0.7212
12741TIP3    H159714   0.253   5.411  15.181  1.8464 -0.0400  0.9195
12741TIP3    H259715   0.293   5.549  15.232 -0.4360  0.3646  1.7264
12742TIP3   OH259716   1.376   2.799   4.206 -0.2541 -0.0072 -0.3907
12742TIP3    H159717   1.380   2.767   4.116 -0.0908  0.0628 -0.4091
12742TIP3    H259718   1.438   2.872   4.209 -0.0579 -0.1808 -0.1530
12743TIP3   OH259719   5.386   0.548  15.145 -0.1110 -0.0620  0.3935
12743TIP3    H159720   5.301   0.542  15.102  0.5482 -1.0128 -0.8161
12743TIP3    H259721   5.395   0.465  15.192  1.2180 -1.1348 -1.6016
12744TIP3   OH259722   3.435   0.945  15.040 -0.2129  0.0926  0.0424
12744TIP3    H159723   3.393   1.028  15.019 -1.2752 -0.1497  1.1223
12744TIP3    H259724   3.516   0.945  14.989 -0.3886  1.6128 -0.2620
12745TIP3   OH259725   3.550   0.962   6.592 -0.8110  0.1121 -0.1167
12745TIP3    H159726   3.497   0.943   6.515  0.7323  1.1929 -1.5010
12745TIP3    H259727   3.627   0.906   6.582 -0.9682 -0.3518  1.1033
12746TIP3   OH259728   6.201   3.848   2.219  0.1571 -0.2882 -0.1004
12746TIP3    H159729   6.149   3.923   2.249  0.5094  0.4760 -1.3473
12746TIP3    H259730   6.291   3.879   2.223  0.3292 -0.7547 -0.3326
12747TIP3   OH259731   4.442   0.229   0.234 -0.4262  0.1044  0.1308
12747TIP3    H159732   4.461   0.211   0.326 -0.2737  0.8692  0.2562
12747TIP3    H259733   4.445   0.324   0.227  1.4087 -0.0012 -1.0586
12748TIP3   OH259734   2.814   5.321  13.720 -0.8328  0.6605  0.4530
12748TIP3    H159735   2.801   5.297  13.628  0.6610 -3.8554  1.1886
12748TIP3    H259736   2.889   5.380  13.720 -1.1310  1.0726 -1.2533
12749TIP3   OH259737   3.012   0.961  14.979  0.2931 -0.3902 -0.4049
12749TIP3    H159738   2.986   0.894  14.916 -2.1264 -1.0419  1.1811
12749TIP3    H259739   2.936   1.019  14.986  0.7312  0.0271  1.4222
12750TIP3   OH259740   0.661   0.333   6.709  0.3876 -0.0853  0.0659
12750TIP3    H159741   0.628   0.378   6.787 -2.2038 -3.7048  1.2692
12750TIP3    H259742   0.754   0.358   6.706  0.2084  1.5389  3.2867
12751TIP3   OH259743   4.525   0.117  12.507  0.0725  0.0291  0.1024
12751TIP3    H159744   4.438   0.136  12.470 -0.6349 -1.6289  0.7878
12751TIP3    H259745   4.569   0.067  12.438  0.4748  0.8051 -0.2150
12752TIP3   OH259746   3.562   1.604   5.649 -0.3884 -0.1951 -0.1504
12752TIP3    H159747   3.545   1.670   5.582 -0.7895 -0.4058 -0.2647
12752TIP3    H259748   3.590   1.527   5.600 -2.3812 -0.9172 -0.2479
12753TIP3   OH259749   4.923   0.888   4.839  0.2949  0.5694  0.0571
12753TIP3    H159750   4.900   0.847   4.923  1.0712 -1.2845 -0.5730
12753TIP3    H259751   4.982   0.959   4.863  1.3492 -0.5926  1.0521
12754TIP3   OH259752   0.169   6.123  11.739  0.1614  0.4946 -0.6389
12754TIP3    H159753   0.238   6.179  11.703  0.2647  2.2863  2.0448
12754TIP3    H259754   0.213   6.040  11.758  1.3775  1.2817  0.1268
12755TIP3   OH259755   3.925   1.704  16.173  0.0383  0.4357 -0.0412
12755TIP3    H159756   3.852   1.673  16.119 -0.2024  2.7470 -1.1754
12755TIP3    H259757   3.993   1.639  16.161 -1.0450 -0.6001 -0.7940
12756TIP3   OH259758   1.722   0.053  12.163  0.2736 -0.1994  0.2825
12756TIP3    H159759   1.790   0.081  12.224  0.6974 -1.0335  0.2162
12756TIP3    H259760   1.770   0.008  12.093 -0.2053  0.7324 -0.6592
12757TIP3   OH259761   1.820   2.319  15.496  0.0046  0.3671 -0.1280
12757TIP3    H159762   1.724   2.317  15.492  0.0574 -0.8721 -1.1928
12757TIP3    H259763   1.842   2.244  15.552  0.3814  0.0518 -0.6960
12758TIP3   OH259764   5.986   6.686  16.586 -0.1869  0.6305 -0.4897
12758TIP3    H159765   5.912   6.746  16.576 -0.7807 -0.0241 -0.1628
12758TIP3    H259766   6.028   6.684  16.499 -0.5995  0.9526 -0.6969
12759TIP3   OH259767   5.696   1.121  14.065 -0.2597  0.0690  0.0642
12759TIP3    H159768   5.626   1.104  14.002 -0.9521 -0.4545  0.9513
12759TIP3    H259769   5.667   1.199  14.112  1.4447  2.0382 -1.9015
12760TIP3   OH259770   0.599   6.511  16.202 -0.4845 -0.3308 -0.2911
12760TIP3    H159771   0.690   6.497  16.230  0.3289  0.5985 -2.2695
12760TIP3    H259772   0.556   6.549  16.279  0.6221 -1.3519  0.8798
12761TIP3   OH259773   5.201   2.688   2.976 -0.0560 -0.1636  0.1813
12761TIP3    H159774   5.282   2.723   3.012 -0.4280 -0.1503  1.0411
12761TIP3    H259775   5.167   2.630   3.044 -2.3874  2.2560  1.2744
12762TIP3   OH259776   0.534   5.098   5.539  0.6265  0.1902  0.0210
12762TIP3    H159777   0.580   5.065   5.616 -1.5089  0.5860  1.5239
12762TIP3    H259778   0.500   5.019   5.496  2.5796 -0.1141 -1.1337
12763TIP3   OH259779   6.044   5.056  16.107 -0.0216 -0.1066  0.3557
12763TIP3    H159780   5.969   5.113  16.121  0.6509  0.3974  2.1657
12763TIP3    H259781   6.051   5.048  16.012 -2.6671 -0.6078  0.1279
12764TIP3   OH259782   1.023   1.562   2.668 -0.0062  0.3204 -0.2076
12764TIP3    H159783   1.085   1.571   2.741  1.1592  1.2253 -1.2655
12764TIP3    H259784   0.988   1.650   2.655  0.1177  0.2596 -1.0060
12765TIP3   OH259785   1.306   3.764  12.972  0.0306 -0.0272 -0.0005
12765TIP3    H159786   1.344   3.807  12.896 -0.4294 -1.9831 -1.4064
12765TIP3    H259787   1.369   3.696  12.996 -0.6148 -0.5401  0.2851
12766TIP3   OH259788   1.849   0.716  10.802  0.7610 -0.2963  0.9263
12766TIP3    H159789   1.888   0.803  10.793  0.4945 -0.2121  0.5984
12766TIP3    H259790   1.919   0.655  10.778  0.0808 -0.0973 -1.8365
12767TIP3   OH259791   6.044   3.679   2.840  0.1599 -0.2148 -0.3823
12767TIP3    H159792   6.020   3.586   2.835 -0.3784 -0.1074  0.2041
12767TIP3    H259793   5.961   3.725   2.848  0.4058  0.3531 -1.0402
12768TIP3   OH259794   2.761   2.658  12.548  0.0386 -0.5951 -0.0357
12768TIP3    H159795   2.674   2.694  12.567  0.4289  0.0797  0.5422
12768TIP3    H259796   2.811   2.675  12.628  1.5805  1.8343 -1.4052
12769TIP3   OH259797   2.587   1.204  12.567 -0.0361  0.6185  0.1886
12769TIP3    H159798   2.657   1.147  12.535 -0.7067 -0.0823 -0.0421
12769TIP3    H259799   2.583   1.186  12.661 -2.8516 -2.7103 -0.4050
12770TIP3   OH259800   0.540   1.105  14.960 -0.1964 -0.4435 -0.9486
12770TIP3    H159801   0.474   1.056  15.009 -0.8885 -0.7369 -2.1227
12770TIP3    H259802   0.539   1.192  15.000  0.0456 -0.9620  0.2475
12771TIP3   OH259803   3.067   6.808  12.251 -1.2290 -0.1610 -0.2292
12771TIP3    H159804   3.051   6.728  12.302 -0.4025  0.7477  1.5333
12771TIP3    H259805   3.148   6.791  12.205 -0.1972  0.1897  1.3773
12772TIP3   OH259806   1.106   5.915   4.000 -0.3217 -0.2336  0.1469
12772TIP3    H159807   1.146   5.844   3.949  0.7407  0.7556 -0.4479
12772TIP3    H259808   1.041   5.953   3.940  0.6277  0.6550 -0.3511
12773TIP3   OH259809   5.856   2.508  14.807  0.3740 -0.4719 -0.3857
12773TIP3    H159810   5.786   2.468  14.755 -1.3033  2.2883 -0.4742
12773TIP3    H259811   5.819   2.591  14.837  4.2579  2.1977 -2.1364
12774TIP3   OH259812   3.252   4.512  15.369  0.2276  0.1020 -0.3590
12774TIP3    H159813   3.318   4.508  15.299  1.2756  1.3403  0.5147
12774TIP3    H259814   3.302   4.533  15.448 -0.9484 -1.1289  0.7713
12775TIP3   OH259815   4.842   4.493  16.970 -0.0810  0.3795 -0.0102
12775TIP3    H159816   4.930   4.481  17.004  0.3278 -0.7664 -1.3790
12775TIP3    H259817   4.792   4.419  17.005  0.0273 -0.0988 -0.8369
12776TIP3   OH259818   5.308   3.752   1.927 -0.2812  0.5672  0.5598
12776TIP3    H159819   5.306   3.677   1.986 -1.1938  0.3822  0.3078
12776TIP3    H259820   5.295   3.828   1.984  0.5622  0.5335  0.8053
12777TIP3   OH259821   2.603   0.292  14.768 -0.1110 -0.6879  0.2158
12777TIP3    H159822   2.545   0.310  14.842 -0.5383 -2.9987  0.5245
12777TIP3    H259823   2.675   0.240  14.806  1.3438  0.7426 -0.4616
12778TIP3   OH259824   3.973   1.152  12.574 -0.4880 -0.4746 -0.0284
12778TIP3    H159825   3.980   1.087  12.644 -0.8626 -0.5841 -0.0953
12778TIP3    H259826   3.923   1.109  12.505 -1.8519  0.3196  0.4452
12779TIP3   OH259827   0.467   1.028   4.284  0.7356 -0.0357  0.1562
12779TIP3    H159828   0.464   1.117   4.318 -1.3242  0.6653 -1.5987
12779TIP3    H259829   0.415   0.977   4.345  2.0252 -0.1134  1.2352
12780TIP3   OH259830   6.812   4.795  15.912  0.2893 -0.0920  0.1325
12780TIP3    H159831   6.860   4.718  15.882 -1.1398 -0.8617 -0.2530
12780TIP3    H259832   6.773   4.769  15.995  2.3372  1.2858  1.6260
12781TIP3   OH259833   2.919   6.261   1.006  0.5761  0.1580  0.3538
12781TIP3    H159834   2.925   6.355   0.989 -0.6734  0.1952  0.0310
12781TIP3    H259835   3.009   6.234   1.027  1.4930  0.9191 -2.2060
12782TIP3   OH259836   3.820   4.769  11.030  0.6937  0.1593  0.3587
12782TIP3    H159837   3.831   4.730  10.943  0.5740  1.5346 -0.3012
12782TIP3    H259838   3.725   4.779  11.039  0.6045 -1.1549  1.2173
12783TIP3   OH259839   1.497   5.993   4.981 -0.1822 -0.4655 -0.1069
12783TIP3    H159840   1.432   5.942   5.030 -0.6341 -1.0719 -1.2963
12783TIP3    H259841   1.489   6.082   5.017  0.6669 -1.1781  2.0522
12784TIP3   OH259842   3.764   4.302  14.752 -0.1931  0.4223  0.1037
12784TIP3    H159843   3.757   4.275  14.843 -0.8518 -2.8132 -0.7816
12784TIP3    H259844   3.857   4.323  14.741  0.0599  0.0299  1.3022
12785TIP3   OH259845   5.524   1.095  12.187  0.1972 -0.6249  0.6324
12785TIP3    H159846   5.537   1.002  12.204 -0.8162 -0.6066  1.5609
12785TIP3    H259847   5.496   1.132  12.270  0.2131  0.4442  0.1831
12786TIP3   OH259848   1.384   4.481   4.707 -0.1858 -0.4631  0.1025
12786TIP3    H159849   1.467   4.528   4.705  0.3268 -1.3738 -0.2143
12786TIP3    H259850   1.407   4.390   4.720 -1.0606 -0.8872 -1.1149
12787TIP3   OH259851   6.169   3.889   1.207 -0.0871 -0.2526  0.3470
12787TIP3    H159852   6.241   3.933   1.161 -0.3838 -0.5124 -0.3728
12787TIP3    H259853   6.194   3.895   1.300  0.8118 -0.2513  0.1219
12788TIP3   OH259854   2.619   6.842   0.852 -0.4622 -0.3135  0.2839
12788TIP3    H159855   2.682   6.778   0.883 -1.5099 -0.7354  1.6208
12788TIP3    H259856   2.600   6.815   0.762  2.6075  0.9215 -0.8524
12789TIP3   OH259857   1.409   1.530  12.270 -0.0451 -0.1941  0.6080
12789TIP3    H159858   1.425   1.621  12.296 -2.1636  0.7873 -1.2009
12789TIP3    H259859   1.339   1.501  12.328  0.9480 -0.9001  1.5037
12790TIP3   OH259860   0.022   0.933   5.130  0.0876  0.1050 -0.3973
12790TIP3    H159861  -0.003   0.884   5.052 -0.4773  0.4524 -0.4421
12790TIP3    H259862  -0.003   1.024   5.111 -0.3242  0.1490  0.2952
12791TIP3   OH259863   2.146   4.107   2.049  0.0385  0.4939 -0.0690
12791TIP3    H159864   2.227   4.116   2.099  0.2255 -0.7224 -0.1126
12791TIP3    H259865   2.136   4.012   2.037 -2.5741  0.4210  1.8882
12792TIP3   OH259866   6.380   4.690  16.367 -0.2409  0.7252  0.5403
12792TIP3    H159867   6.422   4.776  16.367 -0.9288  1.0798  1.5444
12792TIP3    H259868   6.380   4.664  16.275  2.9555  0.2924  0.5541
12793TIP3   OH259869   5.112   3.802   0.829 -0.2580 -0.5140  0.2500
12793TIP3    H159870   5.018   3.789   0.845 -0.0283 -1.9001  0.5914
12793TIP3    H259871   5.151   3.800   0.917  0.1657 -0.6310  0.0581
12794TIP3   OH259872   1.024   0.549  13.892 -0.0787  0.0408  0.0646
12794TIP3    H159873   1.003   0.591  13.809  0.6564  1.2583  0.4679
12794TIP3    H259874   1.082   0.611  13.937 -0.3999 -0.6194  1.4615
12795TIP3   OH259875   4.359   5.191   0.237 -0.5888  0.4135 -0.3887
12795TIP3    H159876   4.373   5.170   0.145 -0.8959 -0.3173 -0.2732
12795TIP3    H259877   4.341   5.285   0.238  2.3268  1.0505 -0.7524
12796TIP3   OH259878   0.891   0.062   1.159 -0.2314 -0.8766  0.5430
12796TIP3    H159879   0.896   0.001   1.085  1.6598  0.7150 -0.7322
12796TIP3    H259880   0.981   0.068   1.192 -0.2808  1.4395  0.4136
12797TIP3   OH259881   1.972   4.826   2.630 -0.1972  0.6123 -0.1177
12797TIP3    H159882   1.897   4.780   2.668 -0.1014  1.9515  1.8182
12797TIP3    H259883   2.048   4.787   2.674  0.1364  0.4098 -0.8575
12798TIP3   OH259884   4.667   3.055   0.495 -0.2047  0.5654  0.1410
12798TIP3    H159885   4.720   3.072   0.417 -0.6057 -1.1676 -0.5842
12798TIP3    H259886   4.576   3.063   0.464 -0.3911  2.2766  1.0570
12799TIP3   OH259887   6.599   0.037   0.249  0.2432  0.1785 -1.0596
12799TIP3    H159888   6.590   0.115   0.195 -0.5599  1.8732  1.3271
12799TIP3    H259889   6.508   0.012   0.269  0.4780  0.4403  0.5159
12800TIP3   OH259890   0.261   3.811   1.432  0.8150  0.3116 -0.4291
12800TIP3    H159891   0.220   3.869   1.367 -0.5797  1.0059  0.9852
12800TIP3    H259892   0.256   3.724   1.393 -2.1583  0.3498 -0.3361
12801TIP3   OH259893   3.099   1.224  16.082  0.2755  0.0628 -0.4196
12801TIP3    H159894   3.037   1.177  16.026 -0.9820 -0.3115  1.2208
12801TIP3    H259895   3.185   1.201  16.046 -0.4522 -0.6194 -1.8336
12802TIP3   OH259896   1.181   4.680  16.028 -0.5977  0.3148 -0.7852
12802TIP3    H159897   1.125   4.702  16.103  1.3734  0.6053  0.6790
12802TIP3    H259898   1.189   4.584  16.033 -1.2097  0.2345 -1.2084
12803TIP3   OH259899   6.772   2.315   0.400  0.5770  0.4465 -0.4846
12803TIP3    H159900   6.711   2.372   0.446  1.6456  1.0657  0.2021
12803TIP3    H259901   6.840   2.375   0.367 -0.0521  0.0189 -2.7500
12804TIP3   OH259902   4.027   2.309  13.187  0.2926  0.1695  0.6375
12804TIP3    H159903   3.978   2.327  13.107  1.2035  1.4578  0.3355
12804TIP3    H259904   3.965   2.328  13.258  0.0835  0.9622  0.2519
12805TIP3   OH259905   1.318   3.404   1.120 -0.0570  0.3506 -0.2116
12805TIP3    H159906   1.316   3.310   1.136 -0.6089  0.1917 -1.1170
12805TIP3    H259907   1.303   3.444   1.206  1.5737 -0.3481  0.4280
12806TIP3   OH259908   0.375   0.439  10.796  0.6807  0.1451  0.0094
12806TIP3    H159909   0.392   0.347  10.777  1.9129  0.2746  0.4036
12806TIP3    H259910   0.290   0.456  10.756 -0.0618 -1.4282  0.8374
12807TIP3   OH259911   5.093   2.365   3.507  0.3793 -0.1680  0.2292
12807TIP3    H159912   5.061   2.343   3.595  1.7317 -1.0173  0.5357
12807TIP3    H259913   5.153   2.294   3.485 -0.7927 -0.5891 -1.8821
12808TIP3   OH259914   1.874   5.096  13.336 -0.4666  0.1924 -0.4513
12808TIP3    H159915   1.925   5.064  13.410 -1.7741  1.9844  1.3186
12808TIP3    H259916   1.924   5.068  13.259  1.2369 -1.2486  1.0797
12809TIP3   OH259917   2.869   2.115  16.248 -0.3141 -0.6725 -0.2955
12809TIP3    H159918   2.785   2.114  16.201  0.1727 -1.8231 -1.2111
12809TIP3    H259919   2.934   2.100  16.179  0.7338  1.0860  0.2725
12810TIP3   OH259920   5.640   0.478  15.369 -0.4086 -0.5460 -0.3524
12810TIP3    H159921   5.635   0.530  15.289 -1.4229 -1.0713 -0.6470
12810TIP3    H259922   5.635   0.542  15.440 -0.8790 -0.1855 -0.7079
12811TIP3   OH259923   0.746   0.500   0.528 -0.0231  0.3870 -0.3724
12811TIP3    H159924   0.796   0.420   0.514 -0.9166 -0.1970 -0.2807
12811TIP3    H259925   0.655   0.474   0.519 -0.3059  1.5492 -1.0691
12812TIP3   OH259926   2.839   4.319   3.049  0.3425 -0.0077  0.1235
12812TIP3    H159927   2.921   4.363   3.069 -0.3786  1.7801 -0.5395
12812TIP3    H259928   2.788   4.324   3.130 -0.1405  1.4329 -0.2309
12813TIP3   OH259929   5.197   2.276  12.668 -0.3084 -0.6005 -0.3355
12813TIP3    H159930   5.223   2.340  12.602  0.1808 -0.3811  0.0631
12813TIP3    H259931   5.104   2.259  12.651 -0.5721  0.5788 -0.1425
12814TIP3   OH259932   2.991   3.356   3.690 -0.0175  0.2314  0.7700
12814TIP3    H159933   2.903   3.364   3.651  0.4133  0.8489 -0.0979
12814TIP3    H259934   3.044   3.315   3.621  0.5370  0.4909  1.0412
12815TIP3   OH259935   1.409   0.558   1.264  0.2353  0.4126 -0.0740
12815TIP3    H159936   1.441   0.492   1.326 -0.4985  1.8775  1.9724
12815TIP3    H259937   1.486   0.581   1.212  0.7944 -1.1312  0.0203
12816TIP3   OH259938   2.105   3.728   6.874 -0.2599  0.7637  0.2350
12816TIP3    H159939   2.168   3.790   6.911  0.6793  0.2096 -0.4072
12816TIP3    H259940   2.117   3.734   6.780 -1.5423  1.0266  0.0771
12817TIP3   OH259941   3.878   5.823  12.466  0.4670  0.5281  0.1387
12817TIP3    H159942   3.796   5.773  12.466  0.4908  0.4854 -0.6709
12817TIP3    H259943   3.863   5.895  12.405  1.0729  0.4406 -0.1262
12818TIP3   OH259944   2.277   1.979  12.233  0.3820  0.2605  0.3882
12818TIP3    H159945   2.227   1.897  12.233  2.5505 -1.1234  0.0610
12818TIP3    H259946   2.246   2.026  12.311  1.3910 -2.3531  2.4890
12819TIP3   OH259947   2.017   0.076   6.167 -0.2746 -0.0878  0.1855
12819TIP3    H159948   1.982   0.010   6.227  0.0934  0.1710  0.6901
12819TIP3    H259949   1.993   0.160   6.207  1.2062  0.1014  0.7292
12820TIP3   OH259950   4.931   3.539   3.884  0.1265 -0.0989  0.3921
12820TIP3    H159951   4.880   3.602   3.934  0.5328 -0.4347  1.2402
12820TIP3    H259952   5.021   3.552   3.914  0.4444 -0.0043 -0.5700
12821TIP3   OH259953   3.019   4.665  15.744 -0.9065 -0.3594  0.1922
12821TIP3    H159954   3.013   4.631  15.655 -1.6188  1.3149 -0.4228
12821TIP3    H259955   2.963   4.606  15.795 -2.7163  0.2429 -0.9808
12822TIP3   OH259956   2.849   1.700   1.600  0.3072  0.7194 -0.1296
12822TIP3    H159957   2.815   1.616   1.569  0.8762  0.7961 -0.9974
12822TIP3    H259958   2.793   1.722   1.674 -0.9824  0.4307 -0.9793
12823TIP3   OH259959   3.028   5.913   3.244 -0.6481  0.0134  0.0145
12823TIP3    H159960   3.113   5.949   3.220 -0.9319  0.3740 -0.4436
12823TIP3    H259961   2.973   5.925   3.167 -1.5826  1.2336  0.8397
12824TIP3   OH259962   1.656   2.910   0.542  0.7212  0.3075 -0.7451
12824TIP3    H159963   1.637   2.835   0.486 -0.8349  1.1952 -1.4931
12824TIP3    H259964   1.673   2.872   0.628  1.5425 -0.9804 -1.4451
12825TIP3   OH259965   5.802   6.715   5.979 -0.6135 -0.4584 -0.3484
12825TIP3    H159966   5.796   6.761   6.063 -0.1581 -1.2669  0.1375
12825TIP3    H259967   5.894   6.722   5.955 -0.6458 -0.6591 -0.5312
12826TIP3   OH259968   3.695   2.973   0.498 -0.0813  0.2241 -0.4686
12826TIP3    H159969   3.780   2.990   0.457 -0.3230 -0.1364 -1.1180
12826TIP3    H259970   3.633   3.027   0.449 -0.4110 -0.4099 -0.7601
12827TIP3   OH259971   1.727   1.574   5.818 -0.0041  0.4063  0.3617
12827TIP3    H159972   1.653   1.518   5.838  0.2033 -0.0267 -0.0623
12827TIP3    H259973   1.804   1.523   5.842  0.1849  0.5079 -0.0044
12828TIP3   OH259974   5.743   1.652  16.167 -0.2814 -0.2201  0.3165
12828TIP3    H159975   5.774   1.653  16.076 -0.5324 -0.5636  0.2218
12828TIP3    H259976   5.813   1.694  16.217 -0.3411  0.3809 -0.0979
12829TIP3   OH259977   5.653   6.123  12.245  0.7284 -0.3303  0.2787
12829TIP3    H159978   5.607   6.193  12.199  1.9261 -0.3864 -1.0798
12829TIP3    H259979   5.613   6.042  12.212 -0.3584 -0.3251  1.5217
12830TIP3   OH259980   3.959   0.812   2.535 -0.0659  0.6060 -0.0034
12830TIP3    H159981   3.943   0.888   2.592 -1.4102  0.4369 -0.1293
12830TIP3    H259982   4.055   0.805   2.532  0.0712  0.7143  2.1249
12831TIP3   OH259983   3.227   0.971   5.244 -0.0681 -0.0457 -0.4646
12831TIP3    H159984   3.173   0.960   5.165 -0.4169 -0.4792 -0.1678
12831TIP3    H259985   3.280   1.048   5.225 -1.6322  1.1265 -0.2982
12832TIP3   OH259986   4.777   4.167   5.619 -0.4000 -0.0171  0.1649
12832TIP3    H159987   4.733   4.087   5.648 -0.6153  0.3759  0.9870
12832TIP3    H259988   4.706   4.222   5.586 -0.2477 -0.1768 -0.4381
12833TIP3   OH259989   4.380   1.460   1.676  0.4032 -0.3778 -0.4675
12833TIP3    H159990   4.327   1.534   1.705  0.5120 -0.2125 -0.6834
12833TIP3    H259991   4.342   1.384   1.720  1.4929  0.0562  1.3326
12834TIP3   OH259992   3.733   3.968   4.586  0.4166 -0.3906 -0.3569
12834TIP3    H159993   3.738   3.944   4.679  0.2581 -1.6135 -0.6436
12834TIP3    H259994   3.806   3.922   4.545  0.5021  0.1655 -0.8337
12835TIP3   OH259995   5.727   5.651   2.061 -0.2947 -0.2822 -0.1575
12835TIP3    H159996   5.800   5.591   2.072 -0.7407 -0.6034  1.1898
12835TIP3    H259997   5.693   5.665   2.149 -1.3156  0.5457 -0.6554
12836TIP3   OH259998   1.166   2.113   6.519 -0.1057  0.2704 -0.2624
12836TIP3    H159999   1.189   2.103   6.612 -1.7932 -4.0526 -0.0828
12836TIP3    H260000   1.084   2.162   6.520  0.3692  1.0683  0.4471
12837TIP3   OH260001   0.184   6.295   4.365 -0.2311  0.2314 -0.1307
12837TIP3    H160002   0.124   6.367   4.348 -0.2010  0.5302  0.9719
12837TIP3    H260003   0.244   6.329   4.431 -0.8731 -1.1413  1.2255
12838TIP3   OH260004   5.313   1.906   3.323  0.0309 -0.5727  0.5828
12838TIP3    H160005   5.392   1.867   3.360  0.1265 -0.7217  0.2265
12838TIP3    H260006   5.314   1.878   3.231  0.5475  0.9614  0.0969
12839TIP3   OH260007   3.633   2.309   5.465 -0.2177  0.4614  0.3391
12839TIP3    H160008   3.575   2.363   5.519 -1.2036 -1.0825  0.8839
12839TIP3    H260009   3.650   2.231   5.518  2.1283  0.6981  0.0553
12840TIP3   OH260010   3.065   1.731   3.671  0.5762  0.0090  0.3186
12840TIP3    H160011   3.134   1.691   3.618  1.0142 -0.5121  1.2342
12840TIP3    H260012   2.986   1.682   3.650  0.8498 -0.5201  0.5033
12841TIP3   OH260013   5.706   6.024   0.315 -0.4117 -0.3999 -0.1476
12841TIP3    H160014   5.754   6.105   0.301 -0.7403 -0.6661 -3.8587
12841TIP3    H260015   5.620   6.051   0.344  0.2683  0.3612  1.2582
12842TIP3   OH260016   6.512   1.065  16.760  0.1894 -0.0737  0.1911
12842TIP3    H160017   6.583   1.129  16.756  0.4815 -0.3426  0.8239
12842TIP3    H260018   6.508   1.040  16.853  0.5067 -1.4373 -0.1324
12843TIP3   OH260019   5.410   5.142   2.014  0.1206 -0.0842 -0.1072
12843TIP3    H160020   5.425   5.126   1.921  1.5189 -1.9243  0.3806
12843TIP3    H260021   5.315   5.133   2.024  0.0632 -0.9140 -1.1760
12844TIP3   OH260022   4.872   6.359  13.741  0.2744  0.1614 -0.2535
12844TIP3    H160023   4.947   6.377  13.684  0.7527 -0.1895  0.2644
12844TIP3    H260024   4.907   6.359  13.829 -0.1005 -1.1868 -0.0765
12845TIP3   OH260025   0.871   4.716  14.460 -0.3787  0.4331  0.1275
12845TIP3    H160026   0.943   4.654  14.468 -0.0270  0.7831 -0.2504
12845TIP3    H260027   0.810   4.674  14.400 -1.3103 -0.6072  1.7557
12846TIP3   OH260028   1.764   6.863   5.497  0.3121  0.1113 -0.5004
12846TIP3    H160029   1.677   6.865   5.457 -0.5135 -0.6613  1.1556
12846TIP3    H260030   1.780   6.952   5.528 -0.2945  0.0585 -0.0220
12847TIP3   OH260031   4.117   2.144   0.424  0.3064 -0.0066 -0.3582
12847TIP3    H160032   4.115   2.237   0.400  0.8315 -0.1968 -1.1884
12847TIP3    H260033   4.025   2.121   0.437  0.2254  0.8252  0.6914
12848TIP3   OH260034   2.695   1.340   0.492  0.1052  0.0395 -0.0424
12848TIP3    H160035   2.791   1.337   0.492  0.2177  1.7300  1.9811
12848TIP3    H260036   2.671   1.327   0.583 -1.6766 -1.0954 -0.6256
12849TIP3   OH260037   0.883   0.998   0.073  0.1636  0.5650 -0.8389
12849TIP3    H160038   0.960   0.942   0.077  0.9548  1.5398 -1.7021
12849TIP3    H260039   0.876   1.035   0.161  0.6119  0.3662 -0.7159
12850TIP3   OH260040   0.009   4.709   5.046 -0.1989 -0.1915  0.2084
12850TIP3    H160041  -0.063   4.715   4.983  1.5575  1.6968 -1.7844
12850TIP3    H260042   0.032   4.616   5.046 -0.1602 -0.2412 -2.1347
12851TIP3   OH260043   0.198   4.893   4.321  0.7265 -0.2313 -0.4058
12851TIP3    H160044   0.126   4.848   4.366 -0.3623  1.3955 -0.4357
12851TIP3    H260045   0.224   4.831   4.252 -0.0440 -1.2334  0.1686
12852TIP3   OH260046   6.664   2.240  16.392 -0.3875 -0.5233  0.3663
12852TIP3    H160047   6.587   2.291  16.416 -0.7798 -2.2906  3.2794
12852TIP3    H260048   6.738   2.299  16.411 -0.9081 -0.0027  0.8096
12853TIP3   OH260049   6.575   2.262  15.883  0.1143  0.6419 -0.0649
12853TIP3    H160050   6.615   2.176  15.894  0.5782  0.5679 -1.9453
12853TIP3    H260051   6.639   2.323  15.921  0.4604  0.2724 -0.0468
12854TIP3   OH260052   4.674   4.484   3.130 -0.3969 -0.0172  0.3690
12854TIP3    H160053   4.634   4.565   3.100 -0.3053 -0.3917 -0.8373
12854TIP3    H260054   4.600   4.426   3.149 -0.4686 -0.2893 -0.6588
12855TIP3   OH260055   4.572   5.828   0.933 -0.2648 -0.4271 -0.0415
12855TIP3    H160056   4.509   5.772   0.888 -2.1113  0.6697  1.0884
12855TIP3    H260057   4.601   5.777   1.008  0.5647 -1.0881 -0.7774
12856TIP3   OH260058   2.918   1.047  12.787 -0.1335  0.3647 -0.5637
12856TIP3    H160059   2.945   1.083  12.871 -0.2447  1.3905 -0.9546
12856TIP3    H260060   2.999   1.020  12.745  0.0386  0.9876 -0.6362
12857TIP3   OH260061   1.419   5.017   4.089 -0.1994 -0.5436  0.3333
12857TIP3    H160062   1.446   5.109   4.088  0.6580 -0.7769  0.5161
12857TIP3    H260063   1.471   4.976   4.020 -0.6384 -0.8794  0.1981
12858TIP3   OH260064   0.790   1.728  14.803 -0.6699  0.2865 -0.0194
12858TIP3    H160065   0.819   1.765  14.886  1.1499 -0.5799 -0.2290
12858TIP3    H260066   0.792   1.634  14.816 -1.1296  0.1531 -0.8099
12859TIP3   OH260067   6.619   2.486   2.374 -0.4546  0.3129 -0.1120
12859TIP3    H160068   6.554   2.523   2.434  0.5327  1.9129  0.0288
12859TIP3    H260069   6.669   2.424   2.428 -0.6634  0.4768  0.2712
12860TIP3   OH260070   6.749   1.115  16.065  0.9124 -0.0676 -0.3208
12860TIP3    H160071   6.823   1.159  16.022  1.4401  2.1401  2.5293
12860TIP3    H260072   6.790   1.051  16.124  0.2556 -2.1699 -2.0219
12861TIP3   OH260073   1.240   0.556  12.553 -0.2245  0.5014 -0.0252
12861TIP3    H160074   1.270   0.567  12.463 -0.6422 -0.0422 -0.2419
12861TIP3    H260075   1.252   0.642  12.593  1.0095  0.4583 -0.2752
12862TIP3   OH260076   4.486   1.714   1.480 -0.2193 -0.0655 -0.0648
12862TIP3    H160077   4.506   1.690   1.389  0.5512  1.1756 -0.2320
12862TIP3    H260078   4.414   1.655   1.504 -0.1570 -0.6989 -1.3369
12863TIP3   OH260079   4.070   6.725   4.301 -0.2808  0.1671  0.6155
12863TIP3    H160080   3.986   6.694   4.334 -0.2425 -0.1185  0.4530
12863TIP3    H260081   4.051   6.811   4.264 -0.7187 -0.3363 -0.3591
12864TIP3   OH260082   2.467   2.288  11.951  0.3591 -0.3774 -0.1282
12864TIP3    H160083   2.470   2.222  12.020  1.6635 -1.0609 -0.7961
12864TIP3    H260084   2.516   2.249  11.879  1.0360  1.2685 -0.5972
12865TIP3   OH260085   4.952   2.324   0.371 -0.7338 -0.0421  0.4521
12865TIP3    H160086   4.966   2.399   0.429  1.1069  0.0591 -0.0670
12865TIP3    H260087   4.962   2.359   0.283  0.1523 -0.8604  0.2053
12866TIP3   OH260088   4.824   1.852  12.093 -0.1639  0.5015  0.1783
12866TIP3    H160089   4.750   1.826  12.038  1.1106 -0.1741 -1.2850
12866TIP3    H260090   4.874   1.771  12.105  0.8286  1.1277  0.3408
12867TIP3   OH260091   1.634   6.006   2.908 -0.4160  0.1601 -0.3019
12867TIP3    H160092   1.654   6.097   2.933  0.7165  0.4077 -1.9599
12867TIP3    H260093   1.661   5.954   2.984  1.2010  1.0187 -0.2533
12868TIP3   OH260094   1.221   1.131   3.033  0.7374  0.2463 -0.2585
12868TIP3    H160095   1.134   1.159   3.006  0.4977  0.4693  0.6954
12868TIP3    H260096   1.281   1.175   2.972  0.1982  0.2361 -0.8026
12869TIP3   OH260097   0.415   4.823  16.998 -0.2251  0.4253 -0.2504
12869TIP3    H160098   0.493   4.872  16.973  1.5458 -2.1204 -0.0981
12869TIP3    H260099   0.434   4.791  17.086 -2.2832  1.2580  0.5618
12870TIP3   OH260100   5.686   1.830   1.234  0.4855  0.5028 -0.2604
12870TIP3    H160101   5.697   1.854   1.142  1.4482  2.5143  0.3183
12870TIP3    H260102   5.598   1.860   1.256  0.3988  0.3660 -0.4135
12871TIP3   OH260103   2.555   5.670   5.692 -0.3306  0.2064 -0.5214
12871TIP3    H160104   2.539   5.719   5.773 -0.9523 -0.2643 -0.3519
12871TIP3    H260105   2.649   5.679   5.676  0.4846 -2.3619  2.0104
12872TIP3   OH260106   6.485   1.175   0.216  0.2314  0.0250 -0.3251
12872TIP3    H160107   6.551   1.235   0.249  1.0588 -0.6947 -0.6452
12872TIP3    H260108   6.462   1.121   0.292  2.3641 -1.8393 -0.9097
12873TIP3   OH260109   4.061   5.414   0.785  0.3037 -0.2228  0.2895
12873TIP3    H160110   4.109   5.432   0.705  2.9639 -0.3814  1.7335
12873TIP3    H260111   4.052   5.500   0.827 -0.1236 -0.2854  0.3308
12874TIP3   OH260112   0.469   6.249  11.896 -0.2487  0.0987  0.0364
12874TIP3    H160113   0.461   6.280  11.806  0.3514  0.2561  0.0301
12874TIP3    H260114   0.512   6.164  11.888  0.6314  0.5158  0.2264
12875TIP3   OH260115   5.757   1.364   4.794  0.2256  0.1775  0.1173
12875TIP3    H160116   5.769   1.308   4.717  0.8791 -1.8035  1.5923
12875TIP3    H260117   5.836   1.417   4.798 -0.0520  0.6955 -0.8446
12876TIP3   OH260118   6.515   1.349  16.210  0.0925  0.9597 -0.2002
12876TIP3    H160119   6.576   1.418  16.186  0.9539 -0.1264 -1.3030
12876TIP3    H260120   6.504   1.298  16.129  1.6580 -1.7766  1.1451
12877TIP3   OH260121   3.299   2.125  15.502 -0.5041  0.0404 -0.0888
12877TIP3    H160122   3.325   2.202  15.452  0.6883 -0.0381  0.3889
12877TIP3    H260123   3.216   2.150  15.544 -1.5129  0.1196 -2.0105
12878TIP3   OH260124   3.143   4.518  13.793 -0.4165 -0.1286 -0.0124
12878TIP3    H160125   3.214   4.578  13.771 -1.1278 -0.1550 -2.7113
12878TIP3    H260126   3.094   4.562  13.862  0.8231  0.9527  0.2193
12879TIP3   OH260127   0.527   2.017  11.846 -0.7254 -0.0856  0.1469
12879TIP3    H160128   0.436   2.049  11.841 -0.7505 -0.1049  0.4880
12879TIP3    H260129   0.522   1.927  11.814 -0.6337  0.2717 -0.9436
12880TIP3   OH260130   1.285   3.803   0.090  0.0729 -0.4488 -0.4006
12880TIP3    H160131   1.199   3.788   0.130 -0.1842  0.2538 -0.6677
12880TIP3    H260132   1.301   3.725   0.037 -0.7768 -0.2488 -0.9854
12881TIP3   OH260133   5.872   6.877   6.208 -0.4767  0.8064 -0.0412
12881TIP3    H160134   5.814   6.948   6.182 -1.8185 -0.2340  0.0266
12881TIP3    H260135   5.916   6.910   6.287 -0.4233  1.8818 -0.5088
12882TIP3   OH260136   4.815   4.761  14.033 -0.2893  0.7708 -0.5191
12882TIP3    H160137   4.820   4.717  13.948  1.5341  1.1851 -0.6852
12882TIP3    H260138   4.809   4.854  14.012 -0.0932  0.8578 -0.1993
12883TIP3   OH260139   2.453   3.876   0.449 -0.1390  0.0113  0.0152
12883TIP3    H160140   2.543   3.865   0.419 -0.3705  1.6831 -1.4199
12883TIP3    H260141   2.409   3.796   0.418  0.2661  0.4160 -1.7534
12884TIP3   OH260142   0.560   4.737   1.971  0.4740  0.4662 -0.0956
12884TIP3    H160143   0.480   4.764   2.016 -0.0316 -1.5047  0.2776
12884TIP3    H260144   0.543   4.757   1.879 -1.1523 -1.3551 -0.2564
12885TIP3   OH260145   2.458   0.033   2.190 -0.1754  0.1664 -0.4969
12885TIP3    H160146   2.442  -0.052   2.232  1.6539 -0.3320 -0.7434
12885TIP3    H260147   2.400   0.032   2.114  0.3891 -1.2280 -0.9504
12886TIP3   OH260148   2.938   4.225   4.363 -0.7053 -0.7929  0.3000
12886TIP3    H160149   2.883   4.297   4.393  0.1786 -0.2329  0.6091
12886TIP3    H260150   2.877   4.152   4.351 -1.8216  0.2943 -1.0955
12887TIP3   OH260151   5.949   5.962  15.736  0.4828  0.3039 -0.0112
12887TIP3    H160152   6.036   5.980  15.702  0.7061  1.3414  1.0330
12887TIP3    H260153   5.899   6.042  15.719 -0.6931 -0.7319 -1.7807
12888TIP3   OH260154   4.572   4.985  13.510  0.2033  0.0981 -0.4797
12888TIP3    H160155   4.556   5.077  13.487 -2.1637 -0.4678 -1.4004
12888TIP3    H260156   4.619   4.989  13.594 -0.6366  2.1432 -0.0440
12889TIP3   OH260157   3.560   4.840  13.060 -0.2628  0.1396 -0.0880
12889TIP3    H160158   3.560   4.824  13.154  0.1781 -0.3426 -0.1633
12889TIP3    H260159   3.492   4.906  13.047 -0.6349 -0.1132  0.5103
12890TIP3   OH260160   4.040   5.308   5.637 -0.1013  0.7210  0.5966
12890TIP3    H160161   4.012   5.365   5.566 -1.2569 -0.1742  0.3002
12890TIP3    H260162   4.135   5.317   5.640 -0.0452  0.7994 -1.0404
12891TIP3   OH260163   2.140   2.402   5.775 -0.8220 -0.1154 -0.5726
12891TIP3    H160164   2.221   2.367   5.813 -0.6957  0.5085 -0.2602
12891TIP3    H260165   2.089   2.432   5.850 -1.2513 -0.3068 -0.7859
12892TIP3   OH260166   5.601   5.003  10.956 -0.2967 -0.2894 -0.5424
12892TIP3    H160167   5.544   5.075  10.985 -0.3463 -1.3036  2.2511
12892TIP3    H260168   5.563   4.974  10.873  0.0335  3.1463 -2.0790
12893TIP3   OH260169   6.580   3.169  12.021 -0.2519 -0.8885 -0.3516
12893TIP3    H160170   6.521   3.161  12.096  0.7977 -0.0277  0.6124
12893TIP3    H260171   6.534   3.225  11.959 -0.8333 -1.0166 -0.0374
12894TIP3   OH260172   4.977   5.896   3.270  0.2039  0.0645  0.4593
12894TIP3    H160173   4.925   5.975   3.285 -1.0284 -1.0273  2.2469
12894TIP3    H260174   5.032   5.888   3.347 -0.5146 -1.4127  0.8566
12895TIP3   OH260175   6.587   2.071  10.937  0.5062  0.0485 -0.8090
12895TIP3    H160176   6.611   2.073  10.845  2.1319 -0.0776 -0.4099
12895TIP3    H260177   6.584   1.978  10.960  1.3004  0.1074 -0.4454
12896TIP3   OH260178   2.058   3.517  12.230 -0.1053 -0.2487  0.3875
12896TIP3    H160179   2.127   3.530  12.295 -0.0565  1.5736  0.0348
12896TIP3    H260180   2.063   3.595  12.174 -2.0785 -0.3420  0.0120
12897TIP3   OH260181   2.611   3.211   3.152  0.1111  0.2279  0.2510
12897TIP3    H160182   2.551   3.271   3.108  0.6614  0.4928 -0.1500
12897TIP3    H260183   2.559   3.133   3.169  0.2337 -0.4617 -2.1746
12898TIP3   OH260184   3.572   4.877  16.734 -0.0351  0.5073 -0.0439
12898TIP3    H160185   3.585   4.967  16.704  0.3603  1.2618  2.2153
12898TIP3    H260186   3.652   4.831  16.706  0.2654  1.1321 -0.2329
12899TIP3   OH260187   0.300   4.375  10.621  0.2631  0.2620 -0.4290
12899TIP3    H160188   0.241   4.380  10.546  0.8508 -1.0062 -1.0169
12899TIP3    H260189   0.341   4.461  10.626  0.6016  0.2175 -1.9211
12900TIP3   OH260190   0.324   5.160   2.131 -0.0011  0.3839 -0.7965
12900TIP3    H160191   0.264   5.215   2.182 -1.0726  0.2263 -1.8276
12900TIP3    H260192   0.411   5.195   2.150 -0.5292  1.4867 -0.2783
12901TIP3   OH260193   6.379   2.158  12.081  0.3460  0.6481 -0.9267
12901TIP3    H160194   6.333   2.089  12.128 -0.0307  1.1048 -0.6103
12901TIP3    H260195   6.308   2.209  12.041  0.6413  0.5621 -1.5654
12902TIP3   OH260196   2.291   2.764  16.213  0.2043 -0.4919 -0.7307
12902TIP3    H160197   2.357   2.815  16.167  0.6705 -1.0211 -0.6521
12902TIP3    H260198   2.340   2.704  16.268 -0.3204  0.6568  1.1008
12903TIP3   OH260199   2.385   1.375   0.013 -0.1038 -0.0385 -0.1304
12903TIP3    H160200   2.297   1.403   0.039 -1.2992 -0.1870 -3.5385
12903TIP3    H260201   2.419   1.447  -0.040  1.0772 -0.7739 -0.4182
12904TIP3   OH260202   1.821   6.744  11.536  0.3706  0.0268  0.0426
12904TIP3    H160203   1.778   6.826  11.560  0.0616  0.1379 -0.8675
12904TIP3    H260204   1.782   6.719  11.453  0.0244 -1.3774  0.5953
12905TIP3   OH260205   2.931   4.783   1.047 -0.5579  0.0778 -0.7354
12905TIP3    H160206   2.879   4.790   1.127 -1.3956 -0.3882 -1.2171
12905TIP3    H260207   3.013   4.742   1.074 -0.9240 -0.2720 -0.1481
12906TIP3   OH260208   4.814   4.766   5.067  0.3832  0.1787 -0.7535
12906TIP3    H160209   4.871   4.802   5.136 -0.7575 -1.0254  0.8922
12906TIP3    H260210   4.732   4.815   5.076  0.2998  0.1743 -1.4412
12907TIP3   OH260211   1.634   3.765   6.574  0.3491 -0.3391  0.1354
12907TIP3    H160212   1.596   3.745   6.488  1.3259  0.3682 -0.4717
12907TIP3    H260213   1.619   3.858   6.586 -0.3103 -0.5379  1.0234
12908TIP3   OH260214   3.621   2.747  16.318  0.4523  0.0924 -0.2207
12908TIP3    H160215   3.527   2.751  16.300  0.3599 -1.4251 -0.1574
12908TIP3    H260216   3.651   2.838  16.309 -1.1042  0.6803  0.2702
12909TIP3   OH260217   6.860   4.036   5.529 -0.5558  0.6637 -0.1398
12909TIP3    H160218   6.927   4.082   5.580  1.1846 -0.0842 -1.6086
12909TIP3    H260219   6.780   4.084   5.545  0.5780  2.3542  0.7663
12910TIP3   OH260220   2.377   0.032   3.618  0.3820 -0.2392  0.0268
12910TIP3    H160221   2.392   0.057   3.709 -0.1772  1.3362 -0.2857
12910TIP3    H260222   2.282   0.037   3.607  0.3908 -0.9945 -0.5027
12911TIP3   OH260223   5.139   0.293   1.815  0.5285 -0.2800  0.2955
12911TIP3    H160224   5.215   0.325   1.765  0.5902  0.9847  1.1458
12911TIP3    H260225   5.174   0.277   1.903 -0.3219  1.1638  0.9476
12912TIP3   OH260226   5.501   4.600  10.713  0.8159  0.0487 -0.4707
12912TIP3    H160227   5.465   4.601  10.625  2.3458 -1.4737 -1.1839
12912TIP3    H260228   5.532   4.511  10.726 -0.4752 -0.1331  2.1285
12913TIP3   OH260229   6.503   3.492   1.645 -0.5968 -0.0586  0.5547
12913TIP3    H160230   6.562   3.568   1.648 -0.9741  0.3970 -1.8107
12913TIP3    H260231   6.555   3.424   1.603 -0.6722 -0.7306  1.5371
12914TIP3   OH260232   1.890   5.630   2.995 -0.6070 -0.3071  0.3694
12914TIP3    H160233   1.936   5.640   3.078  0.2718  2.4687 -0.3291
12914TIP3    H260234   1.959   5.612   2.931 -1.1769 -1.5878  0.0933
12915TIP3   OH260235   2.521   3.075  13.602 -0.0712  0.4473 -0.0847
12915TIP3    H160236   2.575   3.104  13.528  2.2507  0.0622  1.3788
12915TIP3    H260237   2.584   3.052  13.670 -2.1361  1.3858  2.2745
12916TIP3   OH260238   0.155   6.752   6.665 -0.1156 -0.5640 -0.3341
12916TIP3    H160239   0.154   6.827   6.724  1.3197 -0.1432 -0.8038
12916TIP3    H260240   0.092   6.775   6.597 -1.4037 -0.8352  0.7307
12917TIP3   OH260241   1.888   5.174   2.025  0.1025  0.1763 -0.2286
12917TIP3    H160242   1.863   5.202   1.937 -0.1671 -2.2784 -0.9907
12917TIP3    H260243   1.837   5.230   2.084 -1.4039  0.3612 -1.6588
12918TIP3   OH260244   6.624   0.958  12.537  0.4487 -0.3954  0.0310
12918TIP3    H160245   6.702   0.965  12.481  1.5220 -0.3968  1.4567
12918TIP3    H260246   6.657   0.920  12.618 -1.2290 -1.2271  0.3650
12919TIP3   OH260247   2.862   6.485   4.251  0.8497  0.3051 -0.1225
12919TIP3    H160248   2.798   6.471   4.320  1.9728  0.4366  0.9928
12919TIP3    H260249   2.817   6.540   4.187 -0.6151 -0.8266 -0.1153
12920TIP3   OH260250   4.400   1.990  13.487  0.0173  0.6382  0.1845
12920TIP3    H160251   4.374   2.080  13.467 -2.2950  0.3734  1.6071
12920TIP3    H260252   4.448   1.960  13.409 -0.5872  2.5577 -0.9815
12921TIP3   OH260253   2.742   3.384   3.473 -0.4975 -0.2756 -0.2245
12921TIP3    H160254   2.782   3.418   3.393 -1.8912  0.2298 -0.7319
12921TIP3    H260255   2.651   3.369   3.450 -0.7174 -1.0121  1.0198
12922TIP3   OH260256   0.964   5.140  12.121  0.0475 -0.3818  0.0512
12922TIP3    H160257   0.992   5.080  12.052 -0.6479 -0.3382 -0.2675
12922TIP3    H260258   1.027   5.125  12.192  1.1829  0.0577 -0.8259
12923TIP3   OH260259   6.093   3.352  13.135 -0.2847  0.9360 -0.0622
12923TIP3    H160260   6.079   3.388  13.222  1.2032  1.0368  0.1628
12923TIP3    H260261   6.173   3.300  13.143 -0.9225 -0.2332 -1.0309
12924TIP3   OH260262   2.491   2.638  12.424  0.2420  0.2268 -0.3896
12924TIP3    H160263   2.473   2.546  12.407 -0.8642  0.7143 -2.0454
12924TIP3    H260264   2.442   2.686  12.357  2.3807  1.9507 -0.8388
12925TIP3   OH260265   4.857   3.730  11.443 -0.0948  0.1184  0.2156
12925TIP3    H160266   4.824   3.702  11.528 -0.4517  1.2109  0.4551
12925TIP3    H260267   4.811   3.676  11.380  1.0795 -1.5826  0.7391
12926TIP3   OH260268   1.141   6.609   2.320 -0.0516 -0.5628  0.1372
12926TIP3    H160269   1.060   6.590   2.367 -0.0328 -0.7315  0.1016
12926TIP3    H260270   1.210   6.571   2.374  0.0529  0.0582  0.4436
12927TIP3   OH260271   3.095   1.910   4.510 -0.4658 -0.1039 -0.4537
12927TIP3    H160272   3.064   1.887   4.598  0.5532  0.3357  0.0432
12927TIP3    H260273   3.020   1.951   4.468 -0.3339  1.8006  1.0399
12928TIP3   OH260274   3.461   0.546  12.444  0.1260 -0.0438  0.0179
12928TIP3    H160275   3.557   0.539  12.435  0.0584 -0.5169 -0.3665
12928TIP3    H260276   3.448   0.623  12.499  0.7017  0.5416 -0.6474
12929TIP3   OH260277   2.422   1.172   2.029  0.4992 -0.4748  1.1367
12929TIP3    H160278   2.340   1.127   2.011  1.0686 -1.0947  0.0003
12929TIP3    H260279   2.490   1.110   2.003  1.4331 -0.9298  4.2460
12930TIP3   OH260280   0.080   5.358   5.151  0.0327 -0.4684  0.0167
12930TIP3    H160281   0.023   5.281   5.144 -0.4741 -0.0406 -0.5870
12930TIP3    H260282   0.039   5.424   5.096 -1.0365  1.1713  2.5805
12931TIP3   OH260283   0.510   6.227  15.286 -0.1554 -0.2443  0.1393
12931TIP3    H160284   0.578   6.254  15.224 -1.0085 -0.5692 -0.9826
12931TIP3    H260285   0.549   6.155  15.334  0.7130  0.3499  0.3539
12932TIP3   OH260286   2.210   3.091  15.078 -0.1739 -0.3102  0.1542
12932TIP3    H160287   2.156   3.049  15.011 -0.0461 -0.0170 -0.1323
12932TIP3    H260288   2.151   3.102  15.153 -0.6492  0.4250 -0.3122
12933TIP3   OH260289   1.105   3.456   1.412  0.8230 -0.8586 -0.1038
12933TIP3    H160290   1.055   3.381   1.445 -1.2918  0.5170  0.0048
12933TIP3    H260291   1.060   3.482   1.332 -0.6864  2.3240  1.5853
12934TIP3   OH260292   2.691   1.464   6.425 -0.5912 -0.0564 -0.0354
12934TIP3    H160293   2.662   1.542   6.377  0.9887  1.1327  0.8590
12934TIP3    H260294   2.660   1.478   6.515 -3.2274 -2.1027 -0.4980
12935TIP3   OH260295   4.505   4.241   4.977 -0.3629  0.0662 -0.8481
12935TIP3    H160296   4.421   4.254   4.934 -0.0886 -0.8485 -1.6841
12935TIP3    H260297   4.564   4.212   4.908  0.3321 -0.5307 -0.0350
12936TIP3   OH260298   0.497   0.535   2.041  0.1915 -0.5805 -0.1642
12936TIP3    H160299   0.446   0.570   1.968 -1.9588 -0.5734  1.2376
12936TIP3    H260300   0.530   0.612   2.087 -1.9257 -0.3698  1.1419
12937TIP3   OH260301   0.295   4.788  11.958  0.0950 -0.0248  0.2407
12937TIP3    H160302   0.330   4.759  12.042 -1.3510 -0.1737  0.8169
12937TIP3    H260303   0.337   4.731  11.893 -1.6216 -2.5608  1.2234
12938TIP3   OH260304   3.964   3.641   5.388  0.2264  0.2056  0.1222
12938TIP3    H160305   3.978   3.694   5.310  1.2150  0.1944  0.2724
12938TIP3    H260306   3.897   3.689   5.438 -1.1757 -0.3323 -1.1997
12939TIP3   OH260307   0.623   4.926  11.885  0.2556  0.0353 -0.5606
12939TIP3    H160308   0.717   4.939  11.871  0.2838  0.5053  0.0218
12939TIP3    H260309   0.607   4.836  11.857  1.0633 -0.3818  0.2584
12940TIP3   OH260310   3.207   0.472   3.167 -0.0988  0.2625  0.4519
12940TIP3    H160311   3.114   0.496   3.172  0.1215  1.1910  0.2263
12940TIP3    H260312   3.248   0.518   3.240  0.3844  0.8589 -0.1769
12941TIP3   OH260313   1.960   5.635  12.875  0.3032 -0.2427  0.5607
12941TIP3    H160314   1.947   5.729  12.890  0.1334 -0.1935  0.1214
12941TIP3    H260315   1.969   5.598  12.963 -0.2870  0.0912  0.7714
12942TIP3   OH260316   1.977   4.040  15.966  0.3363  0.3894  0.1063
12942TIP3    H160317   1.938   3.964  16.008  0.0327  0.2360 -0.4392
12942TIP3    H260318   2.051   4.063  16.021  0.9143 -0.7887 -0.1531
12943TIP3   OH260319   6.773   1.840  12.043 -0.4270 -0.1118 -0.3491
12943TIP3    H160320   6.842   1.826  12.109 -1.0209 -0.6205  0.1755
12943TIP3    H260321   6.701   1.881  12.092 -0.7430 -0.1873 -0.7525
12944TIP3   OH260322   5.860   4.742  11.377 -0.7232 -0.5351  0.0940
12944TIP3    H160323   5.860   4.702  11.290 -0.2172 -1.0426  0.3211
12944TIP3    H260324   5.940   4.710  11.418 -0.7986 -0.0464  0.6339
12945TIP3   OH260325   0.028   1.752   3.467 -0.0739  0.0170 -0.2840
12945TIP3    H160326  -0.051   1.799   3.496 -1.1792 -0.6471 -2.0558
12945TIP3    H260327  -0.000   1.704   3.389  1.4388 -2.2880  0.5019
12946TIP3   OH260328   5.422   0.741   3.115 -0.0717 -0.3767  0.5529
12946TIP3    H160329   5.439   0.775   3.027 -0.4825 -0.9919  0.2328
12946TIP3    H260330   5.330   0.714   3.114 -0.5396  0.9981  1.6387
12947TIP3   OH260331   6.867   1.465  11.602 -0.3004 -0.1417 -0.2011
12947TIP3    H160332   6.790   1.421  11.566 -0.1839  0.4814 -1.2525
12947TIP3    H260333   6.849   1.558  11.589  0.3750  0.0341  0.0960
12948TIP3   OH260334   6.034   6.104   3.924 -0.4319 -0.3521  0.3814
12948TIP3    H160335   6.060   6.044   3.855  1.2364  0.2793  0.4213
12948TIP3    H260336   6.043   6.053   4.005  0.6777 -0.1527  0.3901
12949TIP3   OH260337   2.785   3.380  14.751  0.2470  0.0415  0.3440
12949TIP3    H160338   2.740   3.391  14.835 -2.3537 -2.1905 -0.6463
12949TIP3    H260339   2.759   3.456  14.700  0.6570  0.6491  1.0079
12950TIP3   OH260340   2.298   5.064  15.370 -0.4951 -0.0352 -0.2282
12950TIP3    H160341   2.392   5.082  15.375 -0.5703  0.5832 -0.8121
12950TIP3    H260342   2.289   5.003  15.297 -0.3857 -1.3843  0.8681
12951TIP3   OH260343   0.309   5.447   0.716  0.0625 -0.0659  0.1408
12951TIP3    H160344   0.376   5.393   0.675 -0.1343  0.9853 -1.6864
12951TIP3    H260345   0.344   5.469   0.803  0.2847 -2.7763  0.8026
12952TIP3   OH260346   0.250   2.863  11.168  0.0355 -0.3108 -0.7652
12952TIP3    H160347   0.331   2.866  11.116 -0.5991  0.1772 -1.7462
12952TIP3    H260348   0.189   2.920  11.122 -0.5392  0.2028  0.5745
12953TIP3   OH260349   4.522   0.652   0.934 -0.7633  0.5149  0.1195
12953TIP3    H160350   4.540   0.731   0.986  1.0384  0.9508 -1.0917
12953TIP3    H260351   4.429   0.660   0.910 -1.7420  0.2316  3.2568
12954TIP3   OH260352   2.038   2.822   5.985 -0.2184  0.2034 -0.0926
12954TIP3    H160353   2.072   2.896   5.934  1.1287 -1.6193 -2.0171
12954TIP3    H260354   2.104   2.806   6.052 -0.1547  0.2964 -0.1337
12955TIP3   OH260355   3.526   5.900   0.689 -0.1180  0.5564 -0.0121
12955TIP3    H160356   3.568   5.981   0.662  0.6316 -0.2718 -1.4529
12955TIP3    H260357   3.572   5.874   0.769 -0.5690  1.6866  0.6316
12956TIP3   OH260358   1.481   4.624  16.517 -0.0139 -0.1250  0.2367
12956TIP3    H160359   1.389   4.631  16.544 -0.4510  0.0658 -1.1706
12956TIP3    H260360   1.506   4.714  16.495  0.0710 -0.3628 -0.6759
12957TIP3   OH260361   4.630   1.971  14.140 -0.1772  0.2991 -0.0446
12957TIP3    H160362   4.583   1.947  14.220  0.7660  2.0703  1.0904
12957TIP3    H260363   4.722   1.970  14.165  0.0868  1.6717 -0.8603
12958TIP3   OH260364   3.268   6.057  15.806  0.1106  0.3127 -0.3689
12958TIP3    H160365   3.235   6.114  15.736 -0.8852  0.1220 -0.0657
12958TIP3    H260366   3.232   6.094  15.886 -0.3916 -0.6260 -0.1503
12959TIP3   OH260367   2.892   5.812  12.683 -0.2785 -0.3137 -0.2836
12959TIP3    H160368   2.945   5.778  12.755  1.8030 -3.7071 -3.1089
12959TIP3    H260369   2.807   5.768  12.693 -1.2125  1.6915  1.6920
12960TIP3   OH260370   5.406   2.008  14.763  0.5780  0.2524 -0.2192
12960TIP3    H160371   5.478   2.066  14.735 -0.1998  1.3330 -0.0475
12960TIP3    H260372   5.328   2.063  14.756 -0.1263 -0.6589  0.3800
12961TIP3   OH260373   5.765   4.374  10.448 -0.3593  0.5443 -0.2406
12961TIP3    H160374   5.687   4.354  10.395 -0.9514  1.0652  0.4137
12961TIP3    H260375   5.808   4.289  10.460 -2.3412 -0.2661  1.7401
12962TIP3   OH260376   6.355   3.684   4.651  0.2762  0.5106  0.5151
12962TIP3    H160377   6.276   3.634   4.628 -1.0735  2.4918  0.5573
12962TIP3    H260378   6.405   3.625   4.708 -2.5645  0.0873  2.8374
12963TIP3   OH260379   1.215   1.981   4.778 -0.5023 -0.2646 -0.4982
12963TIP3    H160380   1.147   1.995   4.713 -1.7051  0.2929  0.8266
12963TIP3    H260381   1.251   2.068   4.795  1.6082 -0.7045 -2.2151
12964TIP3   OH260382   4.747   2.175   5.860  0.1373  0.5179  0.9261
12964TIP3    H160383   4.762   2.231   5.936  0.9175  0.6247  0.7062
12964TIP3    H260384   4.810   2.104   5.871  0.3544  0.6127  0.3129
12965TIP3   OH260385   6.130   4.427  13.806 -0.3477  0.3222  0.1157
12965TIP3    H160386   6.045   4.444  13.847  0.1256  0.1934  1.1744
12965TIP3    H260387   6.166   4.514  13.790 -0.2826  0.3654  0.5003
12966TIP3   OH260388   0.520   1.589   4.661  0.0313  0.5779 -0.0064
12966TIP3    H160389   0.605   1.624   4.634  0.8706 -0.8398  0.7260
12966TIP3    H260390   0.487   1.543   4.583  0.4087  0.2564  0.0229
12967TIP3   OH260391   6.707   4.051  15.034 -0.1699 -0.5280  0.0826
12967TIP3    H160392   6.689   3.970  14.987 -1.6052  0.6560 -1.5396
12967TIP3    H260393   6.791   4.081  14.999 -0.0716 -0.8699  0.0288
12968TIP3   OH260394   0.246   1.928   6.119 -0.1706 -0.1786  0.3162
12968TIP3    H160395   0.155   1.941   6.093 -0.5999 -0.5861  1.5455
12968TIP3    H260396   0.281   2.016   6.129  0.5105  0.0774 -3.0871
12969TIP3   OH260397   3.094   6.200   0.357 -0.3197  0.4695  0.2291
12969TIP3    H160398   3.043   6.272   0.322  1.6357  2.0825  0.5402
12969TIP3    H260399   3.029   6.133   0.380 -1.9874  0.8747 -2.7573
12970TIP3   OH260400   1.292   3.016   2.397 -0.2890  0.0532 -0.6016
12970TIP3    H160401   1.232   3.073   2.349 -0.3789  0.2130 -0.2973
12970TIP3    H260402   1.240   2.939   2.418  0.3954 -1.1325 -2.8852
12971TIP3   OH260403   4.727   5.814  13.000 -0.5053  0.4637  0.0872
12971TIP3    H160404   4.697   5.744  12.942  0.7361 -0.0672  0.0480
12971TIP3    H260405   4.784   5.770  13.063  0.0978  1.3945  0.2200
12972TIP3   OH260406   3.723   5.885  10.639 -0.0201 -0.3295 -0.0460
12972TIP3    H160407   3.783   5.944  10.685  0.8049 -1.2863  0.1472
12972TIP3    H260408   3.688   5.937  10.567  1.9884 -0.0775 -0.9180
12973TIP3   OH260409   0.534   2.942   0.410 -0.9546 -0.0479  0.1965
12973TIP3    H160410   0.602   2.876   0.405 -1.5483 -0.6757 -4.5583
12973TIP3    H260411   0.466   2.903   0.465  0.8213 -1.0384  1.8063
12974TIP3   OH260412   3.173   5.947   3.922 -0.0867  0.2111 -0.1540
12974TIP3    H160413   3.185   6.006   3.847  0.7778  0.8240  0.4441
12974TIP3    H260414   3.249   5.889   3.919  0.5694  0.9709  0.8717
12975TIP3   OH260415   6.367   2.546  15.425 -0.2903  0.4485 -0.0074
12975TIP3    H160416   6.380   2.542  15.330 -0.9680 -1.2070 -0.0519
12975TIP3    H260417   6.360   2.455  15.452 -1.6065  0.9523  1.4356
12976TIP3   OH260418   5.014   6.384  15.774  0.9318 -0.4886 -0.0905
12976TIP3    H160419   5.036   6.312  15.714 -0.9203  0.7089 -2.3632
12976TIP3    H260420   5.023   6.463  15.721 -1.8638  0.5462  0.8196
12977TIP3   OH260421   1.983   1.630   4.162  0.1350 -0.2584  0.2420
12977TIP3    H160422   1.903   1.629   4.110  0.7284  0.6600 -0.7065
12977TIP3    H260423   1.977   1.550   4.215 -1.0895 -0.5416 -0.2803
12978TIP3   OH260424   5.194   2.019  16.459  0.1904  0.6149 -0.1784
12978TIP3    H160425   5.282   1.981  16.448  0.4249  1.0600  0.1410
12978TIP3    H260426   5.160   2.027  16.370  1.2932  2.3601 -0.4794
12979TIP3   OH260427   5.462   6.092  12.706  0.1991 -0.3019  0.1526
12979TIP3    H160428   5.471   6.151  12.631  0.2743 -0.6123 -0.0819
12979TIP3    H260429   5.368   6.088  12.721  0.2699  1.6840  1.6113
12980TIP3   OH260430   0.773   6.333   0.194  0.1854  0.3901  0.3392
12980TIP3    H160431   0.795   6.420   0.229 -2.1443  0.8856  0.7598
12980TIP3    H260432   0.782   6.275   0.270  1.3842  0.2966  0.1468
12981TIP3   OH260433   1.900   6.168   3.308  0.0504 -0.2660 -0.2093
12981TIP3    H160434   1.946   6.136   3.231  0.4016  1.1776 -0.6380
12981TIP3    H260435   1.943   6.126   3.382  0.8529 -0.3317 -0.7089
12982TIP3   OH260436   3.585   5.423   2.097  0.8214  0.1810  0.0847
12982TIP3    H160437   3.576   5.468   2.013  1.5351 -1.3600 -0.8632
12982TIP3    H260438   3.549   5.336   2.081 -0.3224  0.3143  1.8037
12983TIP3   OH260439   3.034   4.531  11.296  0.0200 -0.0545 -0.5224
12983TIP3    H160440   3.090   4.563  11.226 -2.8983  1.8170 -2.2076
12983TIP3    H260441   2.989   4.455  11.257 -0.9096  0.4082 -0.3804
12984TIP3   OH260442   5.707   1.093   0.722 -0.1162 -0.1852  0.3277
12984TIP3    H160443   5.673   1.183   0.720  1.1913  0.3320  0.0759
12984TIP3    H260444   5.758   1.089   0.803 -0.7929 -0.9562  0.7248
12985TIP3   OH260445   3.824   0.361   5.320  0.5444  0.3046 -0.1360
12985TIP3    H160446   3.826   0.456   5.309  3.0089  0.1512 -1.7800
12985TIP3    H260447   3.885   0.344   5.392  0.6342 -0.0505 -0.2941
12986TIP3   OH260448   5.964   3.895  12.052  0.7105 -0.0717  0.5642
12986TIP3    H160449   5.972   3.897  11.957  3.6961  0.3115  0.7415
12986TIP3    H260450   5.990   3.983  12.081  0.5856 -0.4101  1.7705
12987TIP3   OH260451   3.032   5.053   4.498 -0.0014  0.5580  0.1026
12987TIP3    H160452   2.993   5.022   4.580 -1.1432  0.2826 -0.5174
12987TIP3    H260453   3.024   5.148   4.502 -2.0400  0.4568 -0.5977
12988TIP3   OH260454   1.683   1.775  16.323  0.2224  0.3014  0.7589
12988TIP3    H160455   1.685   1.817  16.409  0.8082  3.1990 -0.5801
12988TIP3    H260456   1.760   1.808  16.278  1.2285 -2.9575 -0.1684
12989TIP3   OH260457   1.303   3.089   0.111 -0.5345 -0.0835 -0.5126
12989TIP3    H160458   1.279   3.121   0.198 -2.5293 -1.5437 -0.4546
12989TIP3    H260459   1.307   3.168   0.057  0.3627  0.7996  0.7936
12990TIP3   OH260460   0.515   6.790  16.907 -0.4792 -0.1023 -0.5154
12990TIP3    H160461   0.519   6.815  17.000  0.1559 -2.6360  0.2380
12990TIP3    H260462   0.422   6.794  16.886 -0.5810  0.9975  0.0660
12991TIP3   OH260463   5.868   4.594   4.443  0.3321  0.5065  0.2583
12991TIP3    H160464   5.832   4.681   4.424  1.4008  0.2236 -4.2430
12991TIP3    H260465   5.804   4.533   4.405  0.8459 -0.5450  1.0358
12992TIP3   OH260466   6.550   1.286   2.338 -0.2929 -0.1441  0.0085
12992TIP3    H160467   6.590   1.241   2.263  1.9636  1.4480  0.1393
12992TIP3    H260468   6.560   1.379   2.318 -1.0147  0.3215  1.6151
12993TIP3   OH260469   0.381   6.348   1.614 -0.2046 -0.5821  0.1530
12993TIP3    H160470   0.329   6.275   1.583 -0.3603 -1.2537  1.8678
12993TIP3    H260471   0.467   6.335   1.574 -0.6139 -0.9287 -0.6333
12994TIP3   OH260472   4.639   1.806   2.605  0.3332 -0.1262  0.1456
12994TIP3    H160473   4.726   1.839   2.625  0.6351 -0.2230 -0.9473
12994TIP3    H260474   4.579   1.872   2.640  0.9100  1.2619 -1.3803
12995TIP3   OH260475   5.005   1.043   2.593  0.8571 -0.2678  0.3020
12995TIP3    H160476   4.978   1.050   2.501  0.7120 -0.9527  0.2864
12995TIP3    H260477   5.010   1.134   2.623  0.7396 -0.0426 -0.3342
12996TIP3   OH260478   2.326   5.782  12.887 -0.1271  0.5213  0.5040
12996TIP3    H160479   2.415   5.746  12.888 -0.5573 -0.5998  0.5187
12996TIP3    H260480   2.337   5.874  12.863  1.0740  0.5268  1.0161
12997TIP3   OH260481   4.270   3.126   5.929  0.1436 -0.6060 -0.4306
12997TIP3    H160482   4.366   3.122   5.927  0.1431 -1.5716  0.4767
12997TIP3    H260483   4.249   3.216   5.904  1.2998 -0.2989 -0.3489
12998TIP3   OH260484   5.178   5.066  10.950 -0.4132  0.4959  0.2196
12998TIP3    H160485   5.230   4.986  10.961 -0.6162  0.2538 -0.5360
12998TIP3    H260486   5.174   5.079  10.855 -0.5621  1.2903  0.3298
12999TIP3   OH260487   0.203   3.748  11.183  0.1699  0.8551  0.8666
12999TIP3    H160488   0.108   3.740  11.173  0.4876 -0.4031 -2.7385
12999TIP3    H260489   0.230   3.808  11.114  2.0252  1.1647  1.7849
13000TIP3   OH260490   2.908   5.857  14.505  0.2800 -0.0752  0.3246
13000TIP3    H160491   2.891   5.927  14.568  2.8060  0.4756  0.5239
13000TIP3    H260492   2.915   5.778  14.558 -1.3256 -0.2973  0.2459
13001TIP3   OH260493   4.579   1.281   2.185  0.0754  0.8079 -0.8260
13001TIP3    H160494   4.567   1.187   2.196 -0.1735  1.0876  1.7954
13001TIP3    H260495   4.496   1.312   2.148  0.2569  0.0018 -1.9569
13002TIP3   OH260496   2.910   3.377   2.969  0.3878  0.0966 -0.2587
13002TIP3    H160497   2.938   3.467   2.953  0.4787 -0.0847 -1.1919
13002TIP3    H260498   2.819   3.374   2.940  1.2311 -0.8207 -3.1611
13003TIP3   OH260499   4.257   6.372   4.526 -0.5780 -0.3892 -0.1073
13003TIP3    H160500   4.306   6.424   4.590 -1.2730 -0.4443  0.4797
13003TIP3    H260501   4.325   6.332   4.471  0.0004  0.3477  0.0451
13004TIP3   OH260502   2.925   6.097  16.098 -0.9014  0.0395 -0.6017
13004TIP3    H160503   2.957   6.019  16.144  0.1427 -0.4049 -2.0082
13004TIP3    H260504   2.844   6.068  16.056 -0.3702 -0.4041 -1.3549
13005TIP3   OH260505   6.050   4.131   1.167 -0.0299 -0.4471  0.4652
13005TIP3    H160506   5.982   4.074   1.132  0.6454 -1.9194  1.4443
13005TIP3    H260507   6.086   4.083   1.241  1.1292  0.9132  0.8368
13006TIP3   OH260508   2.927   1.565   5.576  0.0775 -0.4215  0.0965
13006TIP3    H160509   2.923   1.600   5.665  0.7576 -0.7975  0.2825
13006TIP3    H260510   2.946   1.472   5.589 -2.0347 -0.9703 -0.3619
13007TIP3   OH260511   6.799   5.525  15.250  0.1001  0.0468 -0.2863
13007TIP3    H160512   6.762   5.572  15.176 -0.6154 -2.0528 -1.3348
13007TIP3    H260513   6.881   5.490  15.218  0.2867 -0.0261  0.2572
13008TIP3   OH260514   4.581   1.591   1.217 -0.3607 -0.3841 -0.0567
13008TIP3    H160515   4.604   1.501   1.194 -0.0683 -0.4942  0.6438
13008TIP3    H260516   4.665   1.637   1.225 -0.4695 -0.2506  0.3714
13009TIP3   OH260517   0.833   4.711   5.530 -0.9264  0.5178 -0.7551
13009TIP3    H160518   0.851   4.757   5.448  1.4363 -0.8859 -1.1040
13009TIP3    H260519   0.853   4.620   5.512  0.2157  0.2543  1.5293
13010TIP3   OH260520   4.108   1.287  13.862 -0.2043  0.1688  0.0470
13010TIP3    H160521   4.158   1.316  13.939  1.4119 -0.1715 -0.8275
13010TIP3    H260522   4.122   1.355  13.797  2.8801 -1.9327 -1.7179
13011TIP3   OH260523   1.319   0.219  12.902  0.1440  0.1092  0.3606
13011TIP3    H160524   1.314   0.200  12.995  0.4253 -0.6216  0.2338
13011TIP3    H260525   1.402   0.266  12.891 -0.3457  1.0479  0.6126
13012TIP3   OH260526   5.533   4.226   4.962  0.0587 -0.1192  0.4301
13012TIP3    H160527   5.492   4.267   5.039 -1.4406 -0.9361  0.1097
13012TIP3    H260528   5.533   4.132   4.983 -0.6067 -0.3758 -0.6576
13013TIP3   OH260529   0.239   1.783   5.119 -0.2384  0.5907 -0.1833
13013TIP3    H160530   0.256   1.699   5.162 -0.3917  0.2354 -0.7872
13013TIP3    H260531   0.292   1.779   5.039  1.8379  2.1746  1.0113
13014TIP3   OH260532   0.704   3.175   1.532  0.2321 -0.3860 -0.3428
13014TIP3    H160533   0.685   3.094   1.579 -0.4204  0.0699  0.2106
13014TIP3    H260534   0.622   3.196   1.486 -0.0817  0.6787  0.6402
13015TIP3   OH260535   6.297   5.431  12.714  0.4926  0.1614 -0.1251
13015TIP3    H160536   6.354   5.493  12.760 -1.0060  0.8405  0.8741
13015TIP3    H260537   6.253   5.383  12.783  1.6110 -2.0938 -0.8724
13016TIP3   OH260538   5.921   6.410   4.930  0.4576  0.0796 -0.5805
13016TIP3    H160539   5.903   6.483   4.990 -0.0075 -0.9704  0.6112
13016TIP3    H260540   6.017   6.407   4.925  0.5600 -0.4448  0.9723
13017TIP3   OH260541   4.959   0.971   3.164  0.2770 -0.2469  0.5597
13017TIP3    H160542   4.912   1.050   3.192  1.5966  0.3462  1.2191
13017TIP3    H260543   4.892   0.916   3.125 -0.4628  1.8355 -1.3226
13018TIP3   OH260544   3.265   6.266   3.415  0.5872 -0.5074  0.6538
13018TIP3    H160545   3.293   6.177   3.434  1.1498 -0.1910  1.3098
13018TIP3    H260546   3.305   6.320   3.483  1.4104  0.4376 -0.5204
13019TIP3   OH260547   2.125   3.746  16.641 -0.3278 -0.4675 -0.1960
13019TIP3    H160548   2.077   3.758  16.559 -0.5088 -0.1929 -0.0529
13019TIP3    H260549   2.163   3.832  16.659 -0.8501 -0.3502  0.3601
13020TIP3   OH260550   1.901   3.738   2.981 -0.4212  0.8077 -0.2051
13020TIP3    H160551   1.932   3.819   3.022 -0.1383  0.8293 -0.4585
13020TIP3    H260552   1.925   3.747   2.889 -1.1816  0.8160 -0.4021
13021TIP3   OH260553   5.466   5.687  15.043 -0.6351 -0.2543  0.4170
13021TIP3    H160554   5.554   5.703  15.076 -0.5717 -0.9729  0.6053
13021TIP3    H260555   5.410   5.741  15.099 -0.2677  0.6926 -0.1055
13022TIP3   OH260556   4.961   2.051  12.466 -0.1905  0.1667  0.3570
13022TIP3    H160557   4.966   2.061  12.371 -0.5296 -0.3705  0.2763
13022TIP3    H260558   4.887   2.107  12.492  0.0731  0.5265  0.3431
13023TIP3   OH260559   2.870   1.367   2.876 -0.1765 -0.5834  0.1638
13023TIP3    H160560   2.874   1.390   2.969 -1.1581  2.1709 -0.3567
13023TIP3    H260561   2.928   1.431   2.834 -3.3134  1.4325 -1.4834
13024TIP3   OH260562   5.076   6.035   5.127  0.3057 -0.2881 -0.1837
13024TIP3    H160563   5.032   5.990   5.199 -1.8359  1.0643 -0.5534
13024TIP3    H260564   5.121   6.108   5.168 -1.1042  0.6173 -0.1863
13025TIP3   OH260565   2.591   0.257  15.532 -0.2107  0.5879 -0.0315
13025TIP3    H160566   2.512   0.293  15.492  0.7156  2.5718 -0.2389
13025TIP3    H260567   2.569   0.247  15.625 -0.8210  0.8247 -0.1504
13026TIP3   OH260568   0.753   6.796   3.769 -0.0867  0.5968 -0.6921
13026TIP3    H160569   0.818   6.801   3.699  1.9071 -1.6184  0.8386
13026TIP3    H260570   0.675   6.838   3.733  1.1140  0.3474 -3.8827
13027TIP3   OH260571   5.618   4.037  12.307 -0.1760  0.0189  0.0937
13027TIP3    H160572   5.569   4.083  12.375  2.2048 -1.1264  2.7864
13027TIP3    H260573   5.551   4.005  12.247 -2.5701 -0.0421  2.5778
13028TIP3   OH260574   3.959   2.077  13.594  0.4008 -0.2460  0.0068
13028TIP3    H160575   4.011   2.042  13.522 -0.9607 -3.8950  0.5925
13028TIP3    H260576   4.019   2.083  13.668  1.2809  1.4283 -0.7781
13029TIP3   OH260577   1.126   4.354  15.120  0.1241 -0.1648 -0.0271
13029TIP3    H160578   1.174   4.286  15.072 -2.5905 -0.5882 -2.4427
13029TIP3    H260579   1.189   4.387  15.185  2.4070 -3.0821 -0.5527
13030TIP3   OH260580   5.676   6.289   2.006  0.5374 -0.5520 -0.5914
13030TIP3    H160581   5.614   6.270   2.077  1.2127  0.5484  0.3247
13030TIP3    H260582   5.762   6.270   2.043  0.9430  0.5760 -0.8941
13031TIP3   OH260583   2.548   3.384  13.688 -0.4441 -0.7965  0.2341
13031TIP3    H160584   2.589   3.321  13.747 -0.6489 -1.2868 -0.1489
13031TIP3    H260585   2.569   3.354  13.600 -1.3028 -0.8515  0.0321
13032TIP3   OH260586   6.303   5.163  11.744 -0.2190  0.6271 -0.3971
13032TIP3    H160587   6.249   5.149  11.822  0.5843 -0.6407 -0.0403
13032TIP3    H260588   6.295   5.081  11.695  3.5023 -0.7638  1.0205
13033TIP3   OH260589   1.589   1.508   3.336 -0.1100 -0.0583 -0.1350
13033TIP3    H160590   1.530   1.454   3.388  0.9296  0.1410  1.2917
13033TIP3    H260591   1.667   1.455   3.325  0.7035  0.9078  0.7958
13034TIP3   OH260592   1.212   2.126   3.659  0.4355  0.2901 -1.2891
13034TIP3    H160593   1.119   2.139   3.678  0.2915 -1.6182 -0.5211
13034TIP3    H260594   1.257   2.167   3.732  0.1801  0.4814 -1.2371
13035TIP3   OH260595   0.208   1.776  14.439 -0.1116  0.3962  0.3078
13035TIP3    H160596   0.266   1.799  14.366 -0.1041  1.2723  0.5790
13035TIP3    H260597   0.234   1.687  14.463 -1.0773 -0.4661 -1.6735
13036TIP3   OH260598   1.821   6.700  13.057  0.1543  0.6784 -0.2230
13036TIP3    H160599   1.904   6.747  13.057  0.2161  0.6249  1.1965
13036TIP3    H260600   1.818   6.656  13.142 -1.3505  0.7169 -0.2189
13037TIP3   OH260601   3.982   1.824  11.755 -0.1225 -0.2801  0.4466
13037TIP3    H160602   4.008   1.916  11.767 -1.4751  0.4983 -1.8767
13037TIP3    H260603   3.889   1.822  11.775  0.3448 -1.7667  2.9051
13038TIP3   OH260604   2.527   5.202  15.054  0.1926  0.2623  0.1653
13038TIP3    H160605   2.549   5.176  15.144  0.7267  0.1505  0.0050
13038TIP3    H260606   2.607   5.188  15.005 -0.1163  0.2675 -0.3468
13039TIP3   OH260607   0.972   4.476   5.282  0.3197 -0.1136  0.3089
13039TIP3    H160608   1.052   4.488   5.230 -0.4147 -1.1035 -1.1528
13039TIP3    H260609   0.923   4.408   5.234 -1.1254  0.0523  1.4789
13040TIP3   OH260610   5.932   2.971  14.354  0.1778 -0.4022 -0.8784
13040TIP3    H160611   5.963   2.898  14.408 -0.2134  0.8890  1.2404
13040TIP3    H260612   6.003   3.035  14.357 -0.8787  0.7825  0.3891
13041TIP3   OH260613   4.504   1.808  11.638  0.2188  0.3427 -0.1861
13041TIP3    H160614   4.479   1.726  11.595  0.2155  1.4068 -2.3118
13041TIP3    H260615   4.478   1.795  11.730 -2.6198 -0.9129 -1.0375
13042TIP3   OH260616   5.512   5.662  10.547 -0.0045  0.3908  0.3161
13042TIP3    H160617   5.492   5.576  10.508  2.8653 -0.6642  0.9573
13042TIP3    H260618   5.464   5.663  10.629  0.9953 -1.2580  0.9681
13043TIP3   OH260619   0.184   5.357  14.566 -0.2029  0.1460  0.5985
13043TIP3    H160620   0.236   5.359  14.646 -0.3373 -1.8858  0.7926
13043TIP3    H260621   0.143   5.270  14.566 -1.1425  0.5447 -1.0858
13044TIP3   OH260622   5.265   5.807   5.341  0.1685  0.2523  0.2695
13044TIP3    H160623   5.242   5.714   5.339 -0.1582  0.3325  0.2648
13044TIP3    H260624   5.361   5.808   5.340  0.1810 -0.0980  0.6851
13045TIP3   OH260625   2.577   2.014  16.747 -0.5810 -0.8473 -0.5870
13045TIP3    H160626   2.499   2.008  16.692 -0.1425 -1.0754 -1.1977
13045TIP3    H260627   2.643   1.964  16.699  0.6796  1.4401 -1.3892
13046TIP3   OH260628   3.053   3.772   3.852  0.0396  0.3202  0.4524
13046TIP3    H160629   2.988   3.727   3.906 -1.3119  1.2924 -0.3201
13046TIP3    H260630   3.100   3.828   3.914  0.5692 -0.8253  1.1183
13047TIP3   OH260631   2.300   3.156  13.332 -0.2593 -0.4599 -0.3418
13047TIP3    H160632   2.241   3.215  13.380  1.2346  0.4342  0.4884
13047TIP3    H260633   2.358   3.215  13.284  2.5697 -1.0665  2.0438
13048TIP3   OH260634   1.350   5.285  12.175  0.5827  0.0528  0.5115
13048TIP3    H160635   1.396   5.347  12.231 -0.4919  0.3089  1.1355
13048TIP3    H260636   1.271   5.262  12.224  0.1084 -0.4703 -0.4671
13049TIP3   OH260637   5.944   0.143   0.707  0.2790 -0.3599 -0.0708
13049TIP3    H160638   5.963   0.142   0.801 -0.4220  0.0847  0.0864
13049TIP3    H260639   5.893   0.223   0.694 -0.2481 -0.7869 -0.7020
13050TIP3   OH260640   6.800   2.332  14.651  0.4599 -0.1264 -0.1213
13050TIP3    H160641   6.804   2.325  14.556 -0.6498  1.0902 -0.2868
13050TIP3    H260642   6.712   2.366  14.669  0.0464 -1.8545  1.4486
13051TIP3   OH260643   4.270   2.935  14.022 -0.6763 -0.2314 -0.4462
13051TIP3    H160644   4.193   2.922  14.077 -0.0001 -1.4192  0.2696
13051TIP3    H260645   4.241   2.910  13.934 -1.1449 -0.5708 -0.2005
13052TIP3   OH260646   5.388   5.447   3.246  0.0071  0.0734 -0.7263
13052TIP3    H160647   5.359   5.515   3.185  0.6495 -0.0190 -1.1442
13052TIP3    H260648   5.451   5.395   3.196 -0.7089 -1.0245 -0.5121
13053TIP3   OH260649   1.365   3.223  15.938  0.2421  0.5076  0.7537
13053TIP3    H160650   1.297   3.289  15.952  1.4520  1.6416  1.4984
13053TIP3    H260651   1.447   3.273  15.935  1.4026 -1.0592  3.0210
13054TIP3   OH260652   2.037   1.603  14.397 -0.0468  0.1273  0.0749
13054TIP3    H160653   2.085   1.685  14.413  0.1143  0.3691 -1.4697
13054TIP3    H260654   2.001   1.613  14.309  1.1934 -2.0417 -0.7480
13055TIP3   OH260655   5.137   0.777   0.582  0.4671 -0.1402 -0.4188
13055TIP3    H160656   5.100   0.693   0.556  2.9710 -1.7420  0.7489
13055TIP3    H260657   5.137   0.775   0.678 -0.7592  1.8931 -0.3094
13056TIP3   OH260658   5.654   2.137   0.700 -0.4084  0.0192 -0.4113
13056TIP3    H160659   5.624   2.167   0.786 -0.7014 -0.1475 -0.4556
13056TIP3    H260660   5.718   2.068   0.721 -0.3361  0.1103 -0.3256
13057TIP3   OH260661   5.455   1.064   5.520  0.4583  0.0957 -0.1400
13057TIP3    H160662   5.456   1.155   5.551  0.5910 -0.0937  0.4267
13057TIP3    H260663   5.417   1.015   5.593  2.1586 -0.5817  0.3304
13058TIP3   OH260664   1.756   4.562   0.104 -0.8391 -0.0328 -0.1717
13058TIP3    H160665   1.721   4.600   0.023 -3.1079 -0.3056  0.6224
13058TIP3    H260666   1.842   4.602   0.114 -0.5619  0.1579 -2.6038
13059TIP3   OH260667   1.177   1.878   5.318 -0.2880 -0.1617  0.3005
13059TIP3    H160668   1.264   1.915   5.304 -0.5949  0.0793 -1.1897
13059TIP3    H260669   1.133   1.889   5.234 -2.1396  0.7446  1.3236
13060TIP3   OH260670   4.686   0.366   5.370 -0.0507  0.0654 -0.6933
13060TIP3    H160671   4.609   0.354   5.425  0.4902  0.5057  0.1785
13060TIP3    H260672   4.747   0.298   5.398  0.9156  1.3615  0.5211
13061TIP3   OH260673   2.671   4.756   4.850  0.0939 -0.2581 -0.3421
13061TIP3    H160674   2.651   4.691   4.784 -0.8975 -1.7090  1.3003
13061TIP3    H260675   2.738   4.715   4.905 -0.8715 -0.1047  0.9835
13062TIP3   OH260676   5.524   2.272   3.106 -0.1660 -0.0358  0.5546
13062TIP3    H160677   5.464   2.219   3.055  0.7636  0.3391 -0.9794
13062TIP3    H260678   5.597   2.214   3.125  0.6894  0.5309 -0.8230
13063TIP3   OH260679   3.323   3.331   2.538 -0.1880  0.7132 -0.0194
13063TIP3    H160680   3.316   3.313   2.444  0.9055 -0.0650  0.0272
13063TIP3    H260681   3.374   3.412   2.544  3.4382 -1.3310 -0.0995
13064TIP3   OH260682   6.450   5.738  14.826  0.6594 -0.6284 -0.7465
13064TIP3    H160683   6.430   5.663  14.883 -3.5295 -1.1473 -2.5128
13064TIP3    H260684   6.461   5.812  14.887 -0.5812 -1.7229  0.8954
13065TIP3   OH260685   6.234   1.299  14.507  0.4082  0.0632  0.2284
13065TIP3    H160686   6.144   1.282  14.535  0.6412 -0.0638  0.9155
13065TIP3    H260687   6.235   1.391  14.484  0.5090  0.5013  1.8533
13066TIP3   OH260688   0.700   1.571  11.656  0.0212 -0.0252 -0.0974
13066TIP3    H160689   0.669   1.523  11.578 -1.5407  0.7837 -0.0132
13066TIP3    H260690   0.621   1.587  11.707  0.8917  0.3558  1.1792
13067TIP3   OH260691   2.608   2.846   3.761  0.7728 -0.4559  0.4519
13067TIP3    H160692   2.554   2.851   3.682 -0.3493 -0.4335  1.1964
13067TIP3    H260693   2.669   2.919   3.754  1.1685 -0.8771 -0.7246
13068TIP3   OH260694   5.173   2.384  14.063  0.3546  0.2195  0.5309
13068TIP3    H160695   5.154   2.291  14.052  0.7402 -0.0431  1.9400
13068TIP3    H260696   5.106   2.416  14.123 -1.2679  1.4501 -1.7670
13069TIP3   OH260697   6.204   5.671  17.025 -0.3317 -0.1947  0.4968
13069TIP3    H160698   6.174   5.760  17.045  0.4939  0.1948  0.0266
13069TIP3    H260699   6.126   5.617  17.039 -1.0702  0.7036 -0.0221
13070TIP3   OH260700   3.884   1.362   1.866 -0.5722 -0.3822 -0.3550
13070TIP3    H160701   3.873   1.455   1.846 -0.1038 -0.1524  0.3944
13070TIP3    H260702   3.952   1.360   1.933  0.1721 -1.3537 -1.1179
13071TIP3   OH260703   0.128   6.750  13.416 -0.1409 -0.0327 -0.1258
13071TIP3    H160704   0.138   6.768  13.509 -0.2647  0.5966 -0.2318
13071TIP3    H260705   0.046   6.793  13.391 -0.5916 -0.9736 -0.3361
13072TIP3   OH260706   0.183   5.574   2.261  0.1416  0.5493 -0.1817
13072TIP3    H160707   0.135   5.540   2.337 -0.3855  0.7924 -0.4018
13072TIP3    H260708   0.272   5.588   2.294 -0.0217  0.4277  0.3291
13073TIP3   OH260709   6.457   4.095   2.034  0.0945 -0.6278 -0.1510
13073TIP3    H160710   6.471   4.007   2.070  0.9612 -0.1122  0.8219
13073TIP3    H260711   6.362   4.106   2.033  0.0296 -0.6121  2.1575
13074TIP3   OH260712   3.137   5.339  12.659 -0.3741  0.1931  0.1509
13074TIP3    H160713   3.118   5.369  12.571  0.6201  0.9562  0.1793
13074TIP3    H260714   3.182   5.413  12.701  0.7457 -0.7725  0.7240
13075TIP3   OH260715   1.835   2.699  11.082 -0.3864 -0.6290  0.1813
13075TIP3    H160716   1.741   2.688  11.100 -0.3478 -0.9620  0.1844
13075TIP3    H260717   1.839   2.724  10.989 -0.6320  1.7341  0.7263
13076TIP3   OH260718   3.116   3.657  14.639 -0.6887 -0.6084 -0.3040
13076TIP3    H160719   3.057   3.689  14.571 -0.2706 -2.4233 -1.5636
13076TIP3    H260720   3.106   3.562  14.637  0.2189 -0.7759  1.3796
13077TIP3   OH260721   0.968   1.683   2.175  0.8742  0.3631 -0.5320
13077TIP3    H160722   0.898   1.687   2.110 -1.3981  2.6592  1.8143
13077TIP3    H260723   0.926   1.648   2.253  2.8148  0.2778  0.5341
13078TIP3   OH260724   5.436   6.674  15.153 -0.2684 -0.2268 -0.3483
13078TIP3    H160725   5.511   6.729  15.131 -1.0983  1.6786  1.3082
13078TIP3    H260726   5.467   6.620  15.226  0.0570 -0.8386 -0.9283
13079TIP3   OH260727   1.398   2.607  16.361 -0.2427  0.0424  0.1532
13079TIP3    H160728   1.315   2.572  16.394 -1.4367  3.1501  0.8147
13079TIP3    H260729   1.403   2.695  16.399  2.1730  0.8693 -1.8540
13080TIP3   OH260730   3.278   2.114   3.207 -0.2041 -0.6088 -0.1132
13080TIP3    H160731   3.269   2.209   3.213 -1.5658 -0.6927 -0.4890
13080TIP3    H260732   3.281   2.085   3.299 -2.1068 -0.3602  0.0744
13081TIP3   OH260733   3.164   3.638  14.928 -0.1157 -0.1823  0.4376
13081TIP3    H160734   3.249   3.663  14.963 -0.3841  0.8331  0.4073
13081TIP3    H260735   3.178   3.632  14.834 -0.4377  1.6865  0.2267
13082TIP3   OH260736   2.317   5.361  14.363 -0.0491  0.4397 -0.1042
13082TIP3    H160737   2.252   5.361  14.293 -0.2490 -0.4428  0.0676
13082TIP3    H260738   2.269   5.328  14.440  0.9239 -1.5940 -0.3119
13083TIP3   OH260739   1.455   3.766   1.742  0.0392 -0.0194 -0.1703
13083TIP3    H160740   1.543   3.803   1.747 -0.0674  0.2267 -0.0638
13083TIP3    H260741   1.436   3.738   1.831 -0.0564  0.0905 -0.1551
13084TIP3   OH260742   4.245   0.058   4.069 -0.0198  0.0696 -0.4128
13084TIP3    H160743   4.226   0.137   4.120  1.1503 -0.2068  0.4797
13084TIP3    H260744   4.168   0.047   4.013 -0.6731  1.2260  0.2226
13085TIP3   OH260745   5.164   3.254  15.139  0.4774  0.4205  0.5077
13085TIP3    H160746   5.238   3.311  15.157 -0.0635  2.0686 -1.9271
13085TIP3    H260747   5.171   3.233  15.045 -1.3321 -0.5316  0.5273
13086TIP3   OH260748   1.310   4.872   2.472 -0.4324  0.4801  0.4773
13086TIP3    H160749   1.273   4.788   2.497 -0.7222  0.5764  0.3804
13086TIP3    H260750   1.241   4.936   2.493 -0.5618  0.5935 -0.2751
13087TIP3   OH260751   1.906   2.453   0.161  0.2147 -0.2142 -0.0997
13087TIP3    H160752   1.908   2.511   0.238  0.2061 -0.0841 -0.1965
13087TIP3    H260753   1.814   2.445   0.139  0.2992  3.4448 -2.8452
13088TIP3   OH260754   5.186   6.275   2.640  0.5088 -0.4395  0.0346
13088TIP3    H160755   5.115   6.294   2.579 -0.7659 -1.4863  1.1441
13088TIP3    H260756   5.205   6.359   2.681 -0.9285 -0.3531  0.5834
13089TIP3   OH260757   2.319   2.901  13.525  0.1518  0.0543  0.0669
13089TIP3    H160758   2.358   2.813  13.530  0.8856  0.3497 -0.3164
13089TIP3    H260759   2.386   2.959  13.562 -0.2743  0.4743  0.1917
13090TIP3   OH260760   4.791   6.385   6.072 -0.5385  0.1433 -0.1202
13090TIP3    H160761   4.844   6.460   6.045  0.6947 -0.6097  0.1363
13090TIP3    H260762   4.780   6.397   6.167 -1.9175  0.9518 -0.3564
13091TIP3   OH260763   6.630   2.534  13.664 -0.1727  0.3949  0.2743
13091TIP3    H160764   6.708   2.492  13.700  0.7069  1.1885 -0.6378
13091TIP3    H260765   6.601   2.593  13.734 -0.2623 -0.2613  0.8067
13092TIP3   OH260766   4.815   4.392   2.903  0.3203  0.0951 -0.2571
13092TIP3    H160767   4.904   4.380   2.936 -0.1925 -0.8334  0.8396
13092TIP3    H260768   4.764   4.421   2.979 -0.7020 -1.2395 -0.3839
13093TIP3   OH260769   1.804   6.075   2.425 -0.6237  0.1997  0.0743
13093TIP3    H160770   1.806   6.139   2.353  2.3676  0.4454  0.2422
13093TIP3    H260771   1.793   6.128   2.504  0.2491  0.3873  0.0836
13094TIP3   OH260772   2.325   4.910   4.648 -0.4550  0.1407 -0.3602
13094TIP3    H160773   2.301   4.923   4.556 -2.5716  0.1413  0.1384
13094TIP3    H260774   2.303   4.993   4.691 -0.5247 -0.2312  0.3358
13095TIP3   OH260775   1.776   5.029   3.868  0.5092 -0.2419  0.5772
13095TIP3    H160776   1.760   5.102   3.927  0.0062 -0.3358  0.5575
13095TIP3    H260777   1.862   4.996   3.893  0.4646 -0.0384  0.9999
13096TIP3   OH260778   6.694   1.734  15.911 -0.1883  0.6948  0.0840
13096TIP3    H160779   6.728   1.818  15.881 -0.8545  0.3835 -1.6878
13096TIP3    H260780   6.696   1.739  16.006 -0.1823  2.7018  0.0124
13097TIP3   OH260781   2.432   1.714   0.612 -0.0621  0.2497  0.3790
13097TIP3    H160782   2.403   1.634   0.568  0.1117 -0.0629  0.8307
13097TIP3    H260783   2.394   1.785   0.560 -0.7602 -0.1361  0.3549
13098TIP3   OH260784   3.868   0.709   0.073 -0.0362  0.4504 -0.5210
13098TIP3    H160785   3.888   0.746  -0.013 -3.0605  1.0604 -1.0736
13098TIP3    H260786   3.911   0.623   0.073 -0.2683  0.2824 -2.8172
13099TIP3   OH260787   2.733   5.632  16.595 -0.2672  0.1237 -0.1208
13099TIP3    H160788   2.720   5.582  16.514 -0.4313 -0.9245  0.5312
13099TIP3    H260789   2.652   5.681  16.605  0.9363  2.8595 -2.2689
13100TIP3   OH260790   4.782   2.162   5.589  0.1666 -0.4100  0.1114
13100TIP3    H160791   4.776   2.210   5.672  0.9865 -0.2256  0.0737
13100TIP3    H260792   4.845   2.213   5.537 -0.8770 -0.1236 -0.8992
13101TIP3   OH260793   1.741   4.128  15.744 -0.1850 -0.0228 -0.3149
13101TIP3    H160794   1.680   4.200  15.757  0.6310  1.1604 -2.5062
13101TIP3    H260795   1.825   4.163  15.772 -0.0753 -0.7862  0.3413
13102TIP3   OH260796   5.043   6.020  11.244 -0.4154 -0.1500 -0.2239
13102TIP3    H160797   5.046   6.043  11.151 -1.3177 -1.6910 -0.6654
13102TIP3    H260798   5.009   6.099  11.286  0.3151  0.6918 -1.1318
13103TIP3   OH260799   4.614   4.030   3.386  0.0007  0.1792  0.1927
13103TIP3    H160800   4.707   4.004   3.384 -0.4097 -1.4184  0.5147
13103TIP3    H260801   4.598   4.054   3.477 -0.2663 -1.1139  0.5173
13104TIP3   OH260802   0.016   4.164   3.965 -0.6792 -0.2099 -0.5361
13104TIP3    H160803  -0.016   4.250   3.938 -0.2807  0.1182  0.0202
13104TIP3    H260804  -0.038   4.141   4.041  1.4663  1.1433  1.5552
13105TIP3   OH260805   5.314   4.979  11.912  0.0221  0.7242  0.1573
13105TIP3    H160806   5.282   4.901  11.866 -1.4111  1.0601  0.5165
13105TIP3    H260807   5.409   4.970  11.912 -0.1173 -2.0477  1.9174
13106TIP3   OH260808   3.745   2.668   0.775 -0.2720 -0.3557  0.6815
13106TIP3    H160809   3.738   2.763   0.787  0.4513 -0.3326  0.9752
13106TIP3    H260810   3.704   2.631   0.853 -0.6256 -0.2878  0.5294
13107TIP3   OH260811   6.242   5.160  14.700  0.1966 -0.4676  0.6454
13107TIP3    H160812   6.300   5.120  14.634  1.4143 -0.5604  1.7252
13107TIP3    H260813   6.272   5.251  14.705 -1.4270  0.1775 -0.5607
13108TIP3   OH260814   4.090   3.913   4.192  0.3979 -0.0417 -0.7082
13108TIP3    H160815   4.160   3.893   4.254  1.5807 -0.0764 -1.9966
13108TIP3    H260816   4.057   3.998   4.221 -1.4222 -1.5318  1.9553
13109TIP3   OH260817   5.781   6.775  10.619  0.1873 -0.2377 -0.4097
13109TIP3    H160818   5.857   6.730  10.658 -1.6175 -0.5699  3.1710
13109TIP3    H260819   5.771   6.854  10.671 -2.5491 -0.7909  0.0415
13110TIP3   OH260820   5.672   0.557  14.862  0.4561 -0.3905 -0.2640
13110TIP3    H160821   5.646   0.589  14.948 -1.5385 -2.6598  0.0893
13110TIP3    H260822   5.732   0.624  14.828 -3.2381  3.7052  0.3504
13111TIP3   OH260823   3.844   6.819  15.556 -0.6069 -0.3059  0.1350
13111TIP3    H160824   3.832   6.762  15.481 -1.9056 -0.2393  0.2626
13111TIP3    H260825   3.905   6.772  15.613  0.7803 -0.1389 -1.1341
13112TIP3   OH260826   5.753   4.701  14.002  0.2788 -0.0523  0.3445
13112TIP3    H160827   5.751   4.716  13.908  1.1021  1.2604  0.5175
13112TIP3    H260828   5.688   4.632  14.017 -0.1462  0.0090 -1.1177
13113TIP3   OH260829   5.664   0.550   0.142  0.1682 -0.0877 -0.4653
13113TIP3    H160830   5.615   0.561   0.223 -0.7707  0.7245 -1.1107
13113TIP3    H260831   5.596   0.540   0.074  0.8218  1.8254 -1.4898
13114TIP3   OH260832   3.932   1.229  10.856  0.0740 -0.7528 -0.5714
13114TIP3    H160833   3.957   1.314  10.892  2.3156 -1.3858 -0.4967
13114TIP3    H260834   3.845   1.244  10.817 -0.6162  0.9563  1.4491
13115TIP3   OH260835   5.040   5.989  13.497  0.7110 -0.2105  0.7299
13115TIP3    H160836   4.958   6.020  13.535  1.1529  0.4466  1.1724
13115TIP3    H260837   5.021   5.979  13.404  0.4311  1.0588  0.6285
13116TIP3   OH260838   0.268   5.959   0.180  0.0292 -0.3442  0.9520
13116TIP3    H160839   0.208   5.887   0.160  1.5363 -1.1116 -1.1966
13116TIP3    H260840   0.214   6.038   0.173 -0.4555 -0.8277 -2.9515
13117TIP3   OH260841   3.684   1.707  11.750 -0.8082 -0.4964 -0.0854
13117TIP3    H160842   3.693   1.742  11.661 -0.4594  0.7707  0.4204
13117TIP3    H260843   3.645   1.621  11.738 -0.6333 -0.4107 -1.4763
13118TIP3   OH260844   3.836   1.694   4.081 -0.3945  0.3466  0.2049
13118TIP3    H160845   3.865   1.771   4.130 -0.6082  0.9442 -0.6062
13118TIP3    H260846   3.917   1.652   4.052 -0.2501 -0.1534  1.2446
13119TIP3   OH260847   4.918   4.517   3.650 -0.8756  0.3899 -0.2990
13119TIP3    H160848   4.919   4.565   3.567  0.1728  0.8333 -0.0490
13119TIP3    H260849   4.949   4.581   3.714  0.3596 -0.5630  0.0846
13120TIP3   OH260850   0.238   6.678  12.414 -0.6554  0.7334  0.0256
13120TIP3    H160851   0.170   6.695  12.479 -0.8438  0.8563 -0.2001
13120TIP3    H260852   0.320   6.702  12.456 -0.5486 -1.0112  0.9343
13121TIP3   OH260853   6.793   0.841  16.193 -0.4558  0.2873 -0.0805
13121TIP3    H160854   6.715   0.798  16.160 -1.9531  2.9556 -0.3076
13121TIP3    H260855   6.784   0.839  16.289 -0.1894 -0.4287 -0.0676
13122TIP3   OH260856   6.426   0.240   2.778  0.3612 -0.1142  0.1004
13122TIP3    H160857   6.345   0.289   2.794  0.2957 -0.8164  2.3741
13122TIP3    H260858   6.397   0.161   2.732  0.1891  0.9356 -1.6731
13123TIP3   OH260859   3.726   0.086  15.758  0.2517  0.1504  0.3664
13123TIP3    H160860   3.720   0.022  15.829 -0.3846 -0.2202 -0.0135
13123TIP3    H260861   3.754   0.036  15.682  0.4988  0.4663  0.2449
13124TIP3   OH260862   0.640   1.335  15.939 -0.1000  0.5163 -0.0495
13124TIP3    H160863   0.599   1.390  15.872 -1.6636  0.3380  0.7173
13124TIP3    H260864   0.683   1.265  15.889 -0.5220  0.8408 -0.8945
13125TIP3   OH260865   1.534   3.017   2.263 -0.0636 -0.5140  0.9265
13125TIP3    H160866   1.451   3.048   2.300 -1.0289 -2.1554  0.2754
13125TIP3    H260867   1.513   2.930   2.228  1.7209 -0.5732 -0.1018
13126TIP3   OH260868   3.723   1.712   1.960  0.3818  0.1012 -0.3862
13126TIP3    H160869   3.755   1.677   1.876  0.1601 -2.1496  0.4074
13126TIP3    H260870   3.802   1.740   2.006  1.1216 -3.0516  0.5080
13127TIP3   OH260871   0.617   6.850  12.940 -0.1606  0.2141 -0.7334
13127TIP3    H160872   0.626   6.882  13.030 -1.7780 -1.1411 -0.0446
13127TIP3    H260873   0.690   6.788  12.930 -1.5391 -1.7558  0.6757
13128TIP3   OH260874   4.839   0.521  10.918  0.2069 -0.4626  0.0035
13128TIP3    H160875   4.903   0.533  10.847  0.1474  0.0261  0.0303
13128TIP3    H260876   4.805   0.433  10.904  0.4488 -0.5009 -0.3721
13129TIP3   OH260877   5.789   3.640  11.359  0.4311 -0.1739 -0.2369
13129TIP3    H160878   5.710   3.687  11.332  0.9002  0.2120 -1.0048
13129TIP3    H260879   5.766   3.548  11.353 -0.0727 -0.0585 -0.0936
13130TIP3   OH260880   6.186   2.678   2.532 -0.5192  0.0173  0.1148
13130TIP3    H160881   6.176   2.759   2.581 -0.1000 -0.2531  0.6540
13130TIP3    H260882   6.269   2.641   2.562  0.3947  0.4711 -1.7262
13131TIP3   OH260883   0.362   2.169   0.582  0.2296 -0.5800  0.2665
13131TIP3    H160884   0.426   2.107   0.546 -1.1574 -1.8254 -0.1166
13131TIP3    H260885   0.367   2.245   0.524  0.4890 -1.1569 -0.4737
13132TIP3   OH260886   1.257   3.941  14.014 -0.1418  0.4726 -0.1434
13132TIP3    H160887   1.326   3.981  14.067  0.5328 -1.3223  0.4179
13132TIP3    H260888   1.304   3.906  13.938 -1.0420  2.6739 -1.8223
13133TIP3   OH260889   4.535   2.859   5.692  0.4082  0.3584 -0.2161
13133TIP3    H160890   4.503   2.778   5.651 -0.2724  0.3753  0.2683
13133TIP3    H260891   4.630   2.846   5.699  0.1889 -0.9502  1.0047
13134TIP3   OH260892   3.911   4.071   0.026  0.1688  1.0597 -0.1152
13134TIP3    H160893   3.973   4.031   0.087  0.9634  0.1941 -1.4430
13134TIP3    H260894   3.835   4.014   0.029 -0.2362  1.6287  0.8555
13135TIP3   OH260895   6.765   6.639   1.827 -0.2524 -0.1705  0.1926
13135TIP3    H160896   6.677   6.640   1.788  0.2038  0.7533 -0.8578
13135TIP3    H260897   6.798   6.550   1.809  0.1085  0.3415 -1.9939
13136TIP3   OH260898   4.866   5.013   2.327  0.1681  0.5616 -0.1849
13136TIP3    H160899   4.872   4.974   2.414 -2.8479 -0.4700 -0.3135
13136TIP3    H260900   4.954   5.047   2.309  0.7851  1.2756  3.4308
13137TIP3   OH260901   4.695   0.217  10.144  0.8494 -0.2757 -0.1174
13137TIP3    H160902   4.601   0.227  10.129  0.4701 -2.0300  0.7519
13137TIP3    H260903   4.736   0.238  10.060 -0.3647 -0.0319 -0.6606
13138TIP3   OH260904   5.290   3.462   0.993 -0.5705  0.0301  0.5023
13138TIP3    H160905   5.338   3.484   1.073 -0.3900 -1.2022  0.7426
13138TIP3    H260906   5.296   3.367   0.986 -2.3236 -0.0858  0.1198
13139TIP3   OH260907   2.257   0.622   4.444  0.0401 -0.1983  0.3614
13139TIP3    H160908   2.278   0.576   4.363 -1.1723 -1.1540  0.5636
13139TIP3    H260909   2.336   0.612   4.498  1.1798  1.1293 -0.9355
13140TIP3   OH260910   5.710   1.089  11.365 -0.1298 -0.3097  0.1999
13140TIP3    H160911   5.756   1.023  11.313  1.2789  0.7832  0.0141
13140TIP3    H260912   5.710   1.167  11.310 -0.4157  0.2887  1.0324
13141TIP3   OH260913   0.046   2.778   2.101  0.0977 -0.4417  0.0149
13141TIP3    H160914   0.047   2.873   2.115  0.4191 -0.6550  1.6133
13141TIP3    H260915  -0.043   2.751   2.127 -1.2949 -0.1848 -3.8400
13142TIP3   OH260916   3.353   3.084   2.712 -0.4379  0.5261 -0.2892
13142TIP3    H160917   3.336   3.148   2.642 -0.1320  0.3691 -0.5078
13142TIP3    H260918   3.288   3.105   2.779  0.2458  1.6564  0.0349
13143TIP3   OH260919   0.121   5.068   5.655  0.3622 -0.0032  0.3041
13143TIP3    H160920   0.098   4.979   5.627 -0.3799 -0.7523  2.9900
13143TIP3    H260921   0.184   5.054   5.726  2.1683  1.7624 -0.8488
13144TIP3   OH260922   0.859   4.106  13.245  0.5468 -0.0750 -0.3952
13144TIP3    H160923   0.860   4.191  13.200  1.9094  0.8730  1.2805
13144TIP3    H260924   0.948   4.097  13.280 -0.3480 -0.8383  1.8460
13145TIP3   OH260925   2.084   3.256   0.199  0.2403  0.5485  0.3900
13145TIP3    H160926   1.996   3.231   0.171  0.4810  0.8904 -0.7208
13145TIP3    H260927   2.098   3.208   0.281 -1.6402  1.8146  1.5268
13146TIP3   OH260928   0.284   0.958   3.647 -0.4976 -0.2244 -0.0647
13146TIP3    H160929   0.201   0.989   3.611 -0.5996 -1.3514 -0.8422
13146TIP3    H260930   0.284   0.864   3.630  0.4047 -0.4410  1.0246
13147TIP3   OH260931   2.162   6.358   0.748  0.2623  0.2187  0.6413
13147TIP3    H160932   2.183   6.409   0.826  1.5865 -2.1391  1.9030
13147TIP3    H260933   2.073   6.325   0.764  0.1946  0.4419  0.7345
13148TIP3   OH260934   2.676   3.759  13.629 -1.1223  0.0224  0.6525
13148TIP3    H160935   2.737   3.833  13.624  0.0214 -0.9667 -1.2158
13148TIP3    H260936   2.714   3.701  13.695 -0.0025 -0.5786 -0.4907
13149TIP3   OH260937   6.052   4.193   1.797  0.5440 -0.2798 -0.0363
13149TIP3    H160938   5.996   4.121   1.767 -0.8909  0.2206  1.2709
13149TIP3    H260939   6.019   4.270   1.749 -0.4966  0.1714  1.3504
13150TIP3   OH260940   0.003   3.207  12.760  0.4255  0.7619  0.5773
13150TIP3    H160941  -0.087   3.184  12.783  0.4411 -0.2118 -0.2830
13150TIP3    H260942   0.053   3.127  12.777  1.0315  1.1163  0.4844
13151TIP3   OH260943   2.562   2.680  13.707 -0.3174 -0.2480 -0.2172
13151TIP3    H160944   2.637   2.709  13.654 -1.3031 -0.8517 -2.0558
13151TIP3    H260945   2.600   2.657  13.791  1.6624 -0.9138 -1.2164
13152TIP3   OH260946   2.267   6.641   0.659  0.1742 -0.7105  0.2752
13152TIP3    H160947   2.266   6.546   0.674  0.3264 -0.5999  1.0729
13152TIP3    H260948   2.293   6.678   0.744 -0.7639  0.0948  0.2269
13153TIP3   OH260949   0.067   0.610   1.774 -0.2395  0.2431 -0.0992
13153TIP3    H160950   0.100   0.636   1.689 -0.3643 -0.9557 -0.5399
13153TIP3    H260951   0.003   0.541   1.755 -0.4233  0.0993  0.9433
13154TIP3   OH260952   4.688   0.005  14.169  0.5677 -0.1712  0.0803
13154TIP3    H160953   4.750   0.060  14.122 -0.2050  0.3636 -0.3376
13154TIP3    H260954   4.644  -0.046  14.101 -0.3169  0.3614  0.2419
13155TIP3   OH260955   4.774   0.682  12.624 -0.1630  0.2567 -0.4560
13155TIP3    H160956   4.837   0.611  12.622 -0.3883  0.0602 -0.6503
13155TIP3    H260957   4.772   0.710  12.716  0.7739  0.7789 -0.5813
13156TIP3   OH260958   3.385   0.047  12.686 -0.0222  0.2125  0.1897
13156TIP3    H160959   3.387   0.104  12.609 -0.1082 -1.2838 -0.9757
13156TIP3    H260960   3.314  -0.016  12.667  1.4242 -1.5841  0.4214
13157TIP3   OH260961   0.063   3.619   5.446 -0.3613 -0.7614 -0.0178
13157TIP3    H160962  -0.023   3.661   5.454 -0.1179 -0.4267  1.0574
13157TIP3    H260963   0.119   3.685   5.406  0.1532  0.2060  2.1413
13158TIP3   OH260964   2.365   5.353   0.449  0.1786  0.1945  0.2783
13158TIP3    H160965   2.357   5.346   0.544  2.4977  1.7616  0.6696
13158TIP3    H260966   2.459   5.356   0.433 -0.1647  1.6437 -1.9043
13159TIP3   OH260967   5.285   0.655  14.554  0.1025  0.1865 -0.2918
13159TIP3    H160968   5.323   0.567  14.560 -2.2688 -0.9897 -1.1014
13159TIP3    H260969   5.302   0.694  14.640  0.5773 -1.3550  0.3523
13160TIP3   OH260970   0.174   3.969  12.448  0.6101 -0.3660  0.4718
13160TIP3    H160971   0.082   3.953  12.428  1.0410 -1.9951 -0.4793
13160TIP3    H260972   0.196   4.049  12.400 -0.0515 -0.5745 -0.1973
13161TIP3   OH260973   6.184   1.982  13.300  0.4387 -0.2516 -0.5281
13161TIP3    H160974   6.153   1.892  13.293  1.3678 -0.6268  0.0323
13161TIP3    H260975   6.107   2.032  13.325  0.2461 -1.1539  0.7535
13162TIP3   OH260976   5.141   5.622  15.380 -0.2289  0.1445 -0.1009
13162TIP3    H160977   5.108   5.638  15.468  0.8107  2.3723 -0.0539
13162TIP3    H260978   5.225   5.578  15.393  1.4228  3.1414  0.2697
13163TIP3   OH260979   1.372   2.822  10.499 -0.0388  0.0861  0.4875
13163TIP3    H160980   1.438   2.810  10.430 -0.9011 -1.0567 -0.1859
13163TIP3    H260981   1.297   2.860  10.454 -0.2605  0.2480  0.9934
13164TIP3   OH260982   5.079   0.442   5.871  0.1721  0.2142 -0.5268
13164TIP3    H160983   5.163   0.404   5.898 -0.1380 -0.7925 -0.9314
13164TIP3    H260984   5.037   0.469   5.953 -0.9156 -3.1026  0.1435
13165TIP3   OH260985   6.164   5.329   3.160 -0.1340  0.1177  0.6243
13165TIP3    H160986   6.182   5.248   3.207 -1.0222  0.2560  1.2396
13165TIP3    H260987   6.146   5.302   3.070 -0.5648 -0.3895  0.8602
13166TIP3   OH260988   1.906   3.578   3.818  0.3288 -0.0848 -0.4447
13166TIP3    H160989   1.984   3.537   3.854 -0.3940 -1.3658 -0.2704
13166TIP3    H260990   1.834   3.521   3.847 -0.6975  1.2049 -0.3708
13167TIP3   OH260991   4.497   4.703   0.819  0.1624 -0.0838 -0.2719
13167TIP3    H160992   4.529   4.643   0.752 -0.4359  0.5197 -1.1247
13167TIP3    H260993   4.497   4.789   0.777  1.0108  0.5352  0.9195
13168TIP3   OH260994   5.858   3.639   4.335  0.6130  0.0097 -0.2676
13168TIP3    H160995   5.906   3.666   4.414  0.7075  1.1212 -0.6935
13168TIP3    H260996   5.775   3.686   4.340  1.2002  1.2523 -1.5468
13169TIP3   OH260997   2.452   4.034  13.061 -0.2589  0.2148 -0.2738
13169TIP3    H160998   2.511   4.074  13.124 -0.9887  0.7050  0.1180
13169TIP3    H260999   2.409   4.108  13.018 -2.4988 -0.0525  1.2780
13170TIP3   OH261000   4.893   2.930   0.585  0.3586 -0.8694 -0.3965
13170TIP3    H161001   4.941   3.012   0.595 -0.7362 -0.3878  1.5141
13170TIP3    H261002   4.802   2.956   0.576  0.0345 -1.8512 -0.1454
13171TIP3   OH261003   2.468   6.049  14.779 -0.4329 -0.5507 -0.2491
13171TIP3    H161004   2.460   5.954  14.785 -1.5563 -0.4968 -0.7208
13171TIP3    H261005   2.495   6.065  14.689 -0.6344 -0.4040 -0.2847
13172TIP3   OH261006   4.173   6.309   3.099 -0.0398 -0.2573  0.3200
13172TIP3    H161007   4.146   6.326   3.008  0.9841 -0.3436 -0.0078
13172TIP3    H261008   4.137   6.222   3.119  0.0992 -0.4261 -0.1520
13173TIP3   OH261009   4.664   1.601  15.052  0.3269 -0.5878  0.0561
13173TIP3    H161010   4.740   1.546  15.068 -0.0801 -1.2189 -0.1333
13173TIP3    H261011   4.699   1.682  15.014  0.9467 -0.6384  0.5213
13174TIP3   OH261012   5.084   2.773  12.538  0.1202 -0.3424 -0.7044
13174TIP3    H161013   5.155   2.727  12.494 -0.5654 -1.7850 -0.3479
13174TIP3    H261014   5.126   2.851  12.576  1.5084 -1.1615 -0.4907
13175TIP3   OH261015   4.422   6.114  14.823 -0.1156 -0.3824  0.1806
13175TIP3    H161016   4.422   6.122  14.919  0.3075  1.2863  0.0636
13175TIP3    H261017   4.382   6.195  14.792  2.5009  0.5015 -1.1405
13176TIP3   OH261018   0.173   4.731  10.902  0.2445 -0.3042  0.1427
13176TIP3    H161019   0.180   4.826  10.917 -2.3906  0.1582 -1.0671
13176TIP3    H261020   0.220   4.717  10.820  0.4090  0.0064  0.1804
13177TIP3   OH261021   0.088   4.933   2.173 -0.5076  0.3379 -0.2717
13177TIP3    H161022   0.176   4.921   2.138 -0.1166  0.3770  0.6649
13177TIP3    H261023   0.036   4.965   2.099  0.2070  0.0907 -0.8876
13178TIP3   OH261024   5.145   4.825  13.955 -0.1434 -0.1031 -0.1145
13178TIP3    H161025   5.164   4.902  14.008 -0.6245  0.1965 -0.3732
13178TIP3    H261026   5.067   4.849  13.905 -1.0817 -1.2260  0.7571
13179TIP3   OH261027   2.230   6.805  11.619  0.3223  0.0334  0.1127
13179TIP3    H161028   2.161   6.739  11.610  0.2862 -0.3898  2.8347
13179TIP3    H261029   2.194   6.882  11.575 -0.5118 -1.0919 -1.2909
13180TIP3   OH261030   0.664   4.402  12.689  0.1472  0.6198  0.5526
13180TIP3    H161031   0.747   4.417  12.733  0.2695 -0.2262  0.6281
13180TIP3    H261032   0.641   4.312  12.711 -1.0791  1.0233  1.0035
13181TIP3   OH261033   4.293   5.288   5.667 -0.3335  0.1258  0.4419
13181TIP3    H161034   4.304   5.261   5.758 -1.4863 -0.7158  0.3620
13181TIP3    H261035   4.372   5.337   5.646 -0.2224  0.6690  2.0164
13182TIP3   OH261036   4.647   6.159  12.290 -0.4637  0.2505 -0.0091
13182TIP3    H161037   4.654   6.149  12.195 -0.7115 -0.1574  0.0131
13182TIP3    H261038   4.646   6.254  12.304  0.0485  0.3131 -0.3756
13183TIP3   OH261039   5.911   0.389  13.572  0.0677 -0.1743 -0.0596
13183TIP3    H161040   5.874   0.476  13.588  0.4764 -0.1947  1.0675
13183TIP3    H261041   5.993   0.388  13.621 -0.8768 -1.8672  1.6474
13184TIP3   OH261042   2.840   1.637  13.374  0.2427 -0.8215 -0.2563
13184TIP3    H161043   2.765   1.691  13.398 -0.0612 -1.5824  0.5506
13184TIP3    H261044   2.835   1.561  13.433  0.4178 -1.9412 -1.6322
13185TIP3   OH261045   0.259   3.129  15.201  0.1418  0.0068  0.1369
13185TIP3    H161046   0.187   3.182  15.234  1.1340  1.6822 -0.2695
13185TIP3    H261047   0.266   3.152  15.108  0.6304 -0.8109 -0.0486
13186TIP3   OH261048   3.875   4.341   3.926 -0.1961  0.2831 -0.5674
13186TIP3    H161049   3.928   4.386   3.992  0.3316 -2.0461  0.6999
13186TIP3    H261050   3.805   4.298   3.976 -0.4662 -0.6083 -1.6587
13187TIP3   OH261051   0.440   3.622  14.020  0.2128 -0.1002  0.3373
13187TIP3    H161052   0.525   3.649  13.984  1.9307 -3.6158  1.2683
13187TIP3    H261053   0.381   3.626  13.945  2.0274 -0.6687 -1.2114
13188TIP3   OH261054   0.542   1.508  12.618  0.3618  0.8722 -0.0940
13188TIP3    H161055   0.492   1.427  12.612  0.4709  0.8535 -0.8015
13188TIP3    H261056   0.603   1.493  12.691 -0.2938  0.7008  0.4271
13189TIP3   OH261057   2.028   4.366  11.960 -0.0933 -0.3966 -0.1367
13189TIP3    H161058   1.978   4.409  12.030 -1.9091  0.1382 -1.6628
13189TIP3    H261059   1.965   4.307  11.918  1.3728 -1.8712 -0.3688
13190TIP3   OH261060   3.958   0.084  12.232  0.5280 -0.0634  0.9057
13190TIP3    H161061   3.969  -0.007  12.261  0.3156 -0.7110 -0.9103
13190TIP3    H261062   4.041   0.105  12.189  0.6740  0.7141  1.5392
13191TIP3   OH261063   6.352   0.652   2.329 -0.2419  0.2651  0.3877
13191TIP3    H161064   6.428   0.670   2.275 -1.8058  1.3234 -1.6024
13191TIP3    H261065   6.309   0.737   2.338 -0.8031 -0.1616  2.1180
13192TIP3   OH261066   5.629   6.407  12.825  0.0247 -0.0210  0.5254
13192TIP3    H161067   5.694   6.456  12.876 -0.6789 -0.3925  1.8142
13192TIP3    H261068   5.674   6.326  12.801  0.1028 -0.1811  1.2153
13193TIP3   OH261069   5.460   3.105  15.570  0.1691 -1.0566  0.8053
13193TIP3    H161070   5.521   3.172  15.600  0.3636 -0.6558 -0.4052
13193TIP3    H261071   5.516   3.030  15.548  0.4733 -0.2331 -1.6026
13194TIP3   OH261072   3.535   3.224  12.850  1.3572  0.4367 -0.0408
13194TIP3    H161073   3.459   3.170  12.833  0.2306  1.7232  0.7011
13194TIP3    H261074   3.589   3.172  12.910 -0.2282  0.5177  1.5374
13195TIP3   OH261075   4.188   1.347   5.972  0.1310  0.6151 -0.0046
13195TIP3    H161076   4.121   1.411   5.995 -1.1269 -0.1974 -1.2273
13195TIP3    H261077   4.147   1.294   5.904  1.4456 -0.9638  0.3904
13196TIP3   OH261078   3.676   1.034  14.098  0.6565  0.1367 -0.2974
13196TIP3    H161079   3.655   1.071  14.184 -1.5523 -1.7416  0.0877
13196TIP3    H261080   3.754   1.081  14.070 -1.0124  3.9722  0.7455
13197TIP3   OH261081   6.140   4.541  13.097 -0.7308 -0.1422  0.0476
13197TIP3    H161082   6.109   4.478  13.162 -0.2447 -0.0319  0.3908
13197TIP3    H261083   6.191   4.489  13.035  0.8969  0.0985  1.1239
13198TIP3   OH261084   0.691   1.437   4.831  0.1173  0.6986 -0.0906
13198TIP3    H161085   0.667   1.435   4.739 -0.1949  0.3819 -0.0047
13198TIP3    H261086   0.775   1.483   4.833  0.1375  0.6853 -0.5327
13199TIP3   OH261087   5.890   1.341   1.252  0.1106 -0.6023 -0.3853
13199TIP3    H161088   5.972   1.301   1.281  0.6906  0.7144 -0.1457
13199TIP3    H261089   5.870   1.297   1.169  1.9274  0.1559 -1.2811
13200TIP3   OH261090   2.687   1.482   3.167 -0.1246  0.0053 -0.2191
13200TIP3    H161091   2.724   1.567   3.145  0.4909 -0.4230 -0.8670
13200TIP3    H261092   2.753   1.419   3.140 -1.1041 -0.7494 -0.9380
13201TIP3   OH261093   0.165   0.930  16.173 -0.3147  0.0658  0.0134
13201TIP3    H161094   0.242   0.885  16.207 -0.5934  1.9386  3.6790
13201TIP3    H261095   0.091   0.890  16.220 -1.2571  0.2914 -1.2233
13202TIP3   OH261096   2.265   4.181   2.920 -0.0317  0.4702  0.0821
13202TIP3    H161097   2.198   4.127   2.880 -0.8210  1.1203  0.4995
13202TIP3    H261098   2.343   4.125   2.922 -1.1799 -1.1896  1.7820
13203TIP3   OH261099   2.289   4.625  12.164 -0.4554  0.0530 -0.2018
13203TIP3    H161100   2.273   4.720  12.167 -0.6220  0.0145  0.1829
13203TIP3    H261101   2.278   4.602  12.072  0.1169  0.5012 -0.3917
13204TIP3   OH261102   6.120   0.293  16.999 -0.4825 -0.3065 -0.2620
13204TIP3    H161103   6.146   0.319  17.087  1.5722 -1.1995 -0.5469
13204TIP3    H261104   6.081   0.206  17.010 -0.2496 -0.4072 -0.2424
13205TIP3   OH261105   3.151   2.214   0.018 -0.4027 -0.7765  0.3234
13205TIP3    H161106   3.230   2.211  -0.036 -0.7928 -0.8967 -0.2508
13205TIP3    H261107   3.174   2.271   0.091 -0.4472  0.9189 -0.9189
13206TIP3   OH261108   1.229   2.721  16.005 -0.2451 -0.0046  0.0569
13206TIP3    H161109   1.211   2.738  16.097  1.0436  0.6479  0.2066
13206TIP3    H261110   1.234   2.808  15.965 -2.5779 -0.2885 -1.0311
13207TIP3   OH261111   6.342   1.300   5.392  0.6025  0.3765 -0.2934
13207TIP3    H161112   6.303   1.350   5.464  1.4159  0.8206 -0.1543
13207TIP3    H261113   6.284   1.316   5.317  0.9852  1.7254 -0.3189
13208TIP3   OH261114   6.528   6.835   1.705  0.1181 -0.0198  0.1262
13208TIP3    H161115   6.500   6.749   1.673  0.6186 -0.2612  0.3206
13208TIP3    H261116   6.481   6.847   1.788 -0.5600  0.2486 -0.2910
13209TIP3   OH261117   6.860   1.560   4.032  0.3960 -0.6833 -0.5564
13209TIP3    H161118   6.829   1.515   3.953  0.0810 -1.6462  0.0961
13209TIP3    H261119   6.836   1.502   4.104 -0.2734  0.6824  0.3585
13210TIP3   OH261120   5.229   4.498  10.767  0.0871 -0.3253  0.4477
13210TIP3    H161121   5.302   4.498  10.705 -1.4925 -0.1612 -1.5248
13210TIP3    H261122   5.193   4.410  10.762  0.0575 -0.3728  1.3181
13211TIP3   OH261123   0.295   4.997   3.606  0.1881 -0.3069 -0.0166
13211TIP3    H161124   0.254   4.913   3.625  0.6224 -0.2348  1.3356
13211TIP3    H261125   0.225   5.051   3.568  0.6134 -2.2666 -4.1870
13212TIP3   OH261126   1.722   4.883  11.739  0.2214  0.2180  0.6934
13212TIP3    H161127   1.663   4.903  11.811  0.5303  0.0611  0.9911
13212TIP3    H261128   1.805   4.923  11.763  0.3473  0.1010  0.4603
13213TIP3   OH261129   5.380   1.165  11.043  0.1013 -0.1465  0.3587
13213TIP3    H161130   5.473   1.188  11.037  0.2114  0.3396  2.8089
13213TIP3    H261131   5.380   1.072  11.065 -0.1382 -0.8699 -2.3796
13214TIP3   OH261132   5.914   1.051   5.328 -0.0327  0.8255 -0.2722
13214TIP3    H161133   5.951   1.083   5.245 -0.3448  0.7688 -0.4342
13214TIP3    H261134   5.820   1.048   5.313  0.0531 -1.5216 -0.7378
13215TIP3   OH261135   5.718   1.362  15.372  0.0103  0.0862  0.5768
13215TIP3    H161136   5.790   1.394  15.318  0.1751  3.8738  2.7194
13215TIP3    H261137   5.751   1.368  15.462 -2.0544 -0.8344  1.4649
13216TIP3   OH261138   3.130   2.485   3.852 -0.1501  0.3535 -0.1486
13216TIP3    H161139   3.193   2.556   3.870  1.1184 -1.0533  1.2882
13216TIP3    H261140   3.175   2.406   3.881 -2.0001 -0.9086 -0.5866
13217TIP3   OH261141   6.479   0.757   5.307  1.0577 -0.1497 -0.1460
13217TIP3    H161142   6.572   0.762   5.285  2.7726 -2.4859  4.8610
13217TIP3    H261143   6.457   0.664   5.300 -0.6620  0.2280 -0.3230
13218TIP3   OH261144   6.796   6.611  15.282  0.2510  0.2631  0.4917
13218TIP3    H161145   6.887   6.591  15.258 -0.2547 -0.6226 -0.8224
13218TIP3    H261146   6.803   6.676  15.351  1.9415 -1.4441  2.0680
13219TIP3   OH261147   0.477   5.452   2.120 -0.0567 -0.1575 -0.6493
13219TIP3    H161148   0.513   5.533   2.083 -0.5613  0.4505  0.1452
13219TIP3    H261149   0.456   5.475   2.211 -1.8976 -0.6489 -0.9132
13220TIP3   OH261150   4.463   6.731  16.324 -0.4186 -0.1713  0.0114
13220TIP3    H161151   4.427   6.709  16.238 -0.1725 -2.0193  0.3401
13220TIP3    H261152   4.386   6.758  16.375 -1.1652 -2.3583  0.1754
13221TIP3   OH261153   5.712   6.697   2.756  0.1726 -0.3331  0.2159
13221TIP3    H161154   5.618   6.685   2.768  0.4137 -0.9070  1.7841
13221TIP3    H261155   5.724   6.791   2.744 -0.6903 -0.3689 -1.1613
13222TIP3   OH261156   5.031   3.591   4.958 -0.1837 -0.3386 -0.1853
13222TIP3    H161157   4.987   3.507   4.944  1.9245 -1.6663  0.6085
13222TIP3    H261158   5.041   3.627   4.870 -0.7239 -1.1583 -0.5932
13223TIP3   OH261159   4.290   4.499   3.063  0.0145  0.2634  0.2517
13223TIP3    H161160   4.221   4.474   3.125  0.4228 -0.3414  0.4711
13223TIP3    H261161   4.350   4.424   3.062  0.0792  0.3103 -0.7811
13224TIP3   OH261162   5.335   6.605   0.446 -0.5284 -0.6847  0.4466
13224TIP3    H161163   5.319   6.597   0.352 -0.1299  1.2927  0.1620
13224TIP3    H261164   5.275   6.542   0.487 -0.0726 -2.2100 -1.1487
13225TIP3   OH261165   2.287   3.231  16.136 -0.0133 -0.2745  0.0437
13225TIP3    H161166   2.308   3.272  16.220 -0.9139  0.0308  0.1299
13225TIP3    H261167   2.373   3.212  16.097  0.4701 -1.6644  1.6067
13226TIP3   OH261168   5.886   4.378   2.312 -0.1825 -0.2395 -0.0724
13226TIP3    H161169   5.837   4.392   2.231  0.5933 -0.0716 -0.5252
13226TIP3    H261170   5.897   4.283   2.318 -1.9075 -0.4171  0.8615
13227TIP3   OH261171   2.868   4.238   5.316  0.0785  0.0048 -0.2234
13227TIP3    H161172   2.945   4.197   5.277 -0.9431 -1.5885 -0.6189
13227TIP3    H261173   2.862   4.200   5.404 -0.6664 -0.4113 -0.4526
13228TIP3   OH261174   3.716   0.157   0.092 -0.0503  0.1253  0.7837
13228TIP3    H161175   3.714   0.246   0.055  0.7507 -0.1397  0.0740
13228TIP3    H261176   3.810   0.136   0.097 -0.2707 -1.1846 -0.2830
13229TIP3   OH261177   2.015   5.012   0.662  0.2745  0.7220 -0.2522
13229TIP3    H161178   2.045   5.073   0.595  2.6103  0.6452  0.6413
13229TIP3    H261179   2.069   4.934   0.650  0.7218  0.6857  1.6732
13230TIP3   OH261180   3.989   0.980  10.273 -0.5637 -0.1062 -0.0394
13230TIP3    H161181   3.899   0.996  10.301 -0.5248 -0.3485  0.2218
13230TIP3    H261182   4.037   1.058  10.301 -0.8663  0.4598 -1.0019
13231TIP3   OH261183   1.069   5.012   5.649 -0.2164  0.2457  0.3212
13231TIP3    H161184   1.031   5.045   5.568 -2.3475  0.5842  1.3925
13231TIP3    H261185   1.137   5.076   5.672  1.1189 -0.3814 -1.6505
13232TIP3   OH261186   0.678   3.952  16.349 -0.8238 -0.1230  0.6042
13232TIP3    H161187   0.601   3.912  16.389  0.6614 -2.2445  1.5546
13232TIP3    H261188   0.736   3.878  16.329  0.2658  1.2327 -1.6976
13233TIP3   OH261189   2.226   1.792  16.327 -0.0098 -0.1700  0.3736
13233TIP3    H161190   2.174   1.721  16.288 -1.1311  0.6066  0.4120
13233TIP3    H261191   2.161   1.856  16.356  0.9748  2.0408 -1.8635
13234TIP3   OH261192   2.571   4.988  16.180 -1.1187 -0.5479  0.7240
13234TIP3    H161193   2.501   4.942  16.133 -0.6757 -2.4661  1.8232
13234TIP3    H261194   2.531   5.013  16.264 -0.3526 -2.2593  1.6397
13235TIP3   OH261195   2.040   4.218  17.032 -0.2385 -0.1887  0.3833
13235TIP3    H161196   1.989   4.216  16.951 -0.0940 -0.6164  0.3042
13235TIP3    H261197   1.995   4.158  17.091 -0.6413  0.5128  0.8015
13236TIP3   OH261198   1.290   1.668  14.985 -0.5547  0.1548 -0.4045
13236TIP3    H161199   1.208   1.712  15.007 -0.2528  1.5393 -1.8691
13236TIP3    H261200   1.267   1.611  14.912  0.1063  2.0801 -2.2303
13237TIP3   OH261201   1.551   0.419  16.821  0.1092 -0.0493 -0.2412
13237TIP3    H161202   1.570   0.468  16.740  0.7431 -1.9434 -1.3023
13237TIP3    H261203   1.627   0.435  16.877  0.2639  0.2430 -0.5254
13238TIP3   OH261204   0.352   4.133   5.140 -0.2784 -0.1743 -0.4385
13238TIP3    H161205   0.438   4.149   5.178 -0.1137 -1.3156 -0.2841
13238TIP3    H261206   0.297   4.109   5.215 -0.5637 -0.1135 -0.6255
13239TIP3   OH261207   2.216   2.730  14.227  0.1353 -0.1969  0.5011
13239TIP3    H161208   2.301   2.730  14.183 -0.5201  2.2882 -0.9752
13239TIP3    H261209   2.237   2.707  14.318  2.0428 -1.7869 -0.2543
13240TIP3   OH261210   0.668   4.673   0.277  0.2339 -0.3698  0.4773
13240TIP3    H161211   0.687   4.612   0.205  2.0150  0.4073  0.2214
13240TIP3    H261212   0.583   4.710   0.256 -0.0843 -1.4901 -0.2819
13241TIP3   OH261213   0.677   2.305  10.140  0.4734  0.0834  0.1126
13241TIP3    H161214   0.699   2.356  10.218  0.4590  2.0809 -1.1374
13241TIP3    H261215   0.754   2.250  10.125  2.3912  2.8280 -0.9014
13242TIP3   OH261216   1.118   2.557  16.383  0.0401  0.3333  0.1390
13242TIP3    H161217   1.137   2.614  16.309  2.6887 -0.7388 -0.0862
13242TIP3    H261218   1.079   2.616  16.448 -0.9624  1.5829 -1.4728
13243TIP3   OH261219   3.444   0.255  10.727  0.2701 -0.1658  0.6697
13243TIP3    H161220   3.529   0.212  10.717  0.1913 -0.5782  1.5781
13243TIP3    H261221   3.383   0.198  10.681  0.5153  0.2419 -0.1622
13244TIP3   OH261222   1.331   5.300  11.314  0.0492  0.1076 -0.2280
13244TIP3    H161223   1.305   5.375  11.367  1.0226 -1.0657  2.1029
13244TIP3    H261224   1.253   5.244  11.313  0.1707 -0.0913  0.4672
13245TIP3   OH261225   4.139   1.975  14.814  0.0733  0.2511  0.0275
13245TIP3    H161226   4.233   1.991  14.817  0.0307  0.4149  0.7420
13245TIP3    H261227   4.118   1.939  14.901 -0.1785 -1.7780 -0.8042
13246TIP3   OH261228   3.072   6.834   0.476  0.1884 -1.0835  0.1257
13246TIP3    H161229   3.017   6.909   0.458  0.3304 -0.9378  0.2957
13246TIP3    H261230   3.124   6.822   0.396 -0.7005 -1.7611 -0.3768
13247TIP3   OH261231   3.995   2.206   3.598  0.0131  0.2962 -0.1084
13247TIP3    H161232   3.936   2.231   3.669  1.5462  2.0476  0.6587
13247TIP3    H261233   4.067   2.161   3.641 -0.1586 -0.7649 -0.8828
13248TIP3   OH261234   1.820   3.364  12.474  0.5639 -0.2314 -0.2330
13248TIP3    H161235   1.827   3.351  12.379 -0.6749 -0.2054 -0.3532
13248TIP3    H261236   1.768   3.290  12.504  0.3220  0.1522  0.3048
13249TIP3   OH261237   0.428   6.429  12.097 -0.1677 -0.0397 -0.0128
13249TIP3    H161238   0.345   6.405  12.138 -0.7663  1.0497 -0.5357
13249TIP3    H261239   0.431   6.377  12.017  0.5926 -1.5231  0.9439
13250TIP3   OH261240   5.069   6.298  12.005 -0.0445  0.0596  0.2421
13250TIP3    H161241   5.038   6.337  12.087 -1.0660 -1.4124  0.5937
13250TIP3    H261242   5.121   6.223  12.032  0.6815  0.3055 -0.4422
13251TIP3   OH261243   4.285   2.096  15.841  0.5200 -0.7860  0.2204
13251TIP3    H161244   4.275   2.025  15.905  1.4530 -4.3372 -3.1334
13251TIP3    H261245   4.196   2.127  15.825  0.1213 -0.8987  2.0152
13252TIP3   OH261246   3.325   5.639  11.632 -0.0483 -0.0059 -0.3490
13252TIP3    H161247   3.409   5.656  11.674 -1.1522 -0.1209  2.0775
13252TIP3    H261248   3.263   5.692  11.682 -1.8197 -2.1279 -0.1653
13253TIP3   OH261249   1.812   6.262   0.201  0.2689  0.1725 -0.3143
13253TIP3    H161250   1.899   6.280   0.164  0.3171  0.5534 -0.0308
13253TIP3    H261251   1.819   6.294   0.291 -0.2860  0.5628 -0.4066
13254TIP3   OH261252   2.088   2.577   3.379  0.3981 -0.2111  0.4475
13254TIP3    H161253   2.011   2.582   3.436  1.0862  0.9987  1.3091
13254TIP3    H261254   2.085   2.659   3.329  1.3372  0.0390  0.7896
13255TIP3   OH261255   5.273   5.664   4.510  0.4475 -0.1549 -0.3205
13255TIP3    H161256   5.304   5.749   4.538 -0.0423  0.1141 -0.5809
13255TIP3    H261257   5.264   5.671   4.415  1.4059 -0.8317 -0.4835
13256TIP3   OH261258   4.540   1.979   1.363 -0.4643  0.1203 -0.2249
13256TIP3    H161259   4.525   2.049   1.427 -0.3991  0.6344 -0.7631
13256TIP3    H261260   4.459   1.928   1.362  0.0867 -0.8882  1.4532
13257TIP3   OH261261   6.432   3.873   0.927 -0.6558 -0.0400  0.2262
13257TIP3    H161262   6.460   3.789   0.964 -1.0068  0.0400  0.6710
13257TIP3    H261263   6.476   3.939   0.981 -1.6469  0.0873  0.8920
13258TIP3   OH261264   0.146   1.503   1.104  0.3023 -0.1350 -0.3337
13258TIP3    H161265   0.096   1.503   1.186  0.2967 -0.6080 -0.3321
13258TIP3    H261266   0.123   1.420   1.063  0.8341 -0.2031 -0.4912
13259TIP3   OH261267   2.747   6.645   0.973 -0.3659  0.2420 -0.3983
13259TIP3    H161268   2.730   6.667   1.065  0.3538  1.6314 -0.5728
13259TIP3    H261269   2.813   6.577   0.976 -0.4778  0.1501  0.1137
13260TIP3   OH261270   2.291   2.886  14.619 -0.5535  0.3261  0.3293
13260TIP3    H161271   2.197   2.892  14.600 -0.7482 -2.2652  0.1094
13260TIP3    H261272   2.296   2.853  14.709  0.0301 -1.7839 -0.4161
13261TIP3   OH261273   6.342   2.242   4.923  0.0028  0.3277  0.3842
13261TIP3    H161274   6.388   2.324   4.940  0.3303 -0.0031  1.1604
13261TIP3    H261275   6.367   2.185   4.997  0.3082 -0.6894 -0.4794
13262TIP3   OH261276   6.081   6.490   5.868 -0.3619  0.0391  0.0598
13262TIP3    H161277   6.100   6.543   5.790 -0.4285 -0.0711 -0.0316
13262TIP3    H261278   6.070   6.401   5.834  1.4321 -0.3527  0.4036
13263TIP3   OH261279   4.646   5.213  16.642  0.3097 -0.7816  0.2127
13263TIP3    H161280   4.675   5.299  16.671 -1.4469 -0.3303  0.7107
13263TIP3    H261281   4.551   5.214  16.654  0.0588 -2.1988 -1.3383
13264TIP3   OH261282   3.300   0.226   3.201 -0.7278  0.2843 -0.0208
13264TIP3    H161283   3.251   0.303   3.171  1.5436  1.4270 -1.0493
13264TIP3    H261284   3.392   0.252   3.195  0.0635 -1.3046  2.9903
13265TIP3   OH261285   6.020   5.875   0.078  0.2598 -0.3536  0.8009
13265TIP3    H161286   5.956   5.889   0.008  1.3885 -0.9418 -0.3824
13265TIP3    H261287   5.967   5.858   0.156 -1.0232  0.2605  0.0968
13266TIP3   OH261288   6.681   5.675  15.039 -0.1022  0.6271  0.0699
13266TIP3    H161289   6.751   5.707  14.983  0.1920 -1.0847 -0.6002
13266TIP3    H261290   6.607   5.663  14.979  0.0188 -0.5983  0.1437
13267TIP3   OH261291   3.039   6.424   1.361 -0.3279  0.5683 -1.1048
13267TIP3    H161292   3.100   6.356   1.391  0.9175  2.3352  0.6777
13267TIP3    H261293   3.094   6.502   1.352 -2.2166  2.1345  0.1243
13268TIP3   OH261294   6.589   5.035   3.696  0.5109 -0.2140  0.0539
13268TIP3    H161295   6.581   4.943   3.722 -0.4353 -0.6193 -1.5559
13268TIP3    H261296   6.666   5.066   3.744 -0.3049 -1.2669  2.1594
13269TIP3   OH261297   4.605   1.022   1.279  0.1599 -0.2601 -0.0650
13269TIP3    H161298   4.516   1.021   1.314 -0.0248 -1.1567 -0.5113
13269TIP3    H261299   4.661   1.031   1.356 -0.3023 -0.0839  0.2548
13270TIP3   OH261300   6.463   4.569   4.056 -0.2590  0.3219 -0.4092
13270TIP3    H161301   6.506   4.518   3.987 -1.6946 -0.8640 -0.4805
13270TIP3    H261302   6.533   4.624   4.092  0.8608 -0.1271 -1.7872
13271TIP3   OH261303   1.195   5.887  15.202 -0.0301 -0.6038 -0.0968
13271TIP3    H161304   1.267   5.923  15.253  1.1445 -2.0266 -0.7003
13271TIP3    H261305   1.127   5.954  15.206  1.1189  0.5409  0.9169
13272TIP3   OH261306   4.900   6.649  15.710 -0.5290 -0.3518  0.4889
13272TIP3    H161307   4.928   6.741  15.715 -0.2255 -0.4084 -0.1349
13272TIP3    H261308   4.884   6.625  15.802 -0.4714  0.2791  0.6743
13273TIP3   OH261309   4.921   1.045  10.503 -0.1984  0.0558 -0.0625
13273TIP3    H161310   4.920   1.082  10.415  0.4237 -2.8011 -1.4024
13273TIP3    H261311   4.976   0.966  10.495 -2.3802 -1.8663  2.1682
13274TIP3   OH261312   6.702   1.151   2.552  0.0030 -0.4284  0.1118
13274TIP3    H161313   6.676   1.209   2.623 -0.6690 -3.1958  2.3116
13274TIP3    H261314   6.621   1.134   2.504 -0.5820 -2.2205  1.6400
13275TIP3   OH261315   3.120   0.388  12.549  0.3850 -0.4377  0.5024
13275TIP3    H161316   3.155   0.345  12.472  0.6424  0.5606  0.0534
13275TIP3    H261317   3.182   0.367  12.619  0.6487 -0.5693  0.2286
13276TIP3   OH261318   4.259   0.176   5.551 -0.3712  0.4760  0.3148
13276TIP3    H161319   4.291   0.220   5.629  2.1861 -0.1271 -0.2856
13276TIP3    H261320   4.282   0.084   5.564 -0.2222  0.3093 -0.9653
13277TIP3   OH261321   4.729   3.026  16.297 -0.2831 -0.1056  0.2822
13277TIP3    H161322   4.634   3.030  16.283 -0.2324  1.6509  0.2837
13277TIP3    H261323   4.745   3.084  16.371  0.6309 -1.6205  1.3272
13278TIP3   OH261324   2.398   3.230  10.941  0.9891 -0.0988 -0.1931
13278TIP3    H161325   2.360   3.296  10.883 -0.1860 -1.7443 -1.3900
13278TIP3    H261326   2.450   3.174  10.883  1.0490 -0.8832  0.5899
13279TIP3   OH261327   5.350   3.103   3.435 -0.0480  0.7853 -0.3309
13279TIP3    H161328   5.339   3.134   3.345 -0.0352 -2.7285 -1.6921
13279TIP3    H261329   5.260   3.088   3.466 -0.0673 -1.5090 -1.2448
13280TIP3   OH261330   5.434   1.430  11.709  0.2652 -0.5995  0.0602
13280TIP3    H161331   5.426   1.335  11.722 -1.1464 -0.2159  2.5472
13280TIP3    H261332   5.453   1.439  11.615  0.7105 -3.3270 -0.2083
13281TIP3   OH261333   0.254   1.320   3.560  0.4411  0.2034 -0.4815
13281TIP3    H161334   0.312   1.244   3.554  1.5185  0.7056  2.2112
13281TIP3    H261335   0.306   1.393   3.525  0.5138  0.2160 -0.3481
13282TIP3   OH261336   2.734   1.639   3.869  0.0945 -0.5707  0.4220
13282TIP3    H161337   2.657   1.581   3.869  0.0663 -0.6317 -2.1780
13282TIP3    H261338   2.800   1.591   3.819  1.1124  0.3916  0.8156
13283TIP3   OH261339   5.664   0.555   1.909 -0.1839 -0.4060  0.0022
13283TIP3    H161340   5.688   0.531   1.819 -1.4408 -1.9143  0.0210
13283TIP3    H261341   5.570   0.575   1.904 -0.2690 -0.5098  0.9829
13284TIP3   OH261342   1.955   0.280   4.362  0.0127  0.2797  0.4756
13284TIP3    H161343   1.879   0.249   4.412 -1.6319 -0.5354 -2.3021
13284TIP3    H261344   1.946   0.376   4.363 -0.5847  0.2306  0.8779
13285TIP3   OH261345   2.391   4.888   3.971 -0.0021 -0.2240 -0.0090
13285TIP3    H161346   2.347   4.973   3.972 -0.2366 -0.3165  1.6918
13285TIP3    H261347   2.484   4.910   3.982 -0.0826 -0.1675  0.6422
13286TIP3   OH261348   0.616   0.928  16.685  0.1509 -0.0332 -0.7984
13286TIP3    H161349   0.633   0.842  16.724 -0.9101  0.7460  1.5775
13286TIP3    H261350   0.628   0.990  16.756 -1.4281  1.5694 -1.8222
13287TIP3   OH261351   2.278   6.367  13.093 -0.1305 -0.0026  0.4482
13287TIP3    H161352   2.253   6.458  13.077  1.6104  0.5516  0.7051
13287TIP3    H261353   2.365   6.372  13.132  0.6824 -1.8523 -0.9889
13288TIP3   OH261354   1.346   6.053   4.082 -0.4776 -0.0822  0.0671
13288TIP3    H161355   1.263   6.020   4.048 -0.8438  1.1169 -0.2247
13288TIP3    H261356   1.388   5.975   4.120  0.2639 -1.6985 -3.6367
13289TIP3   OH261357   4.435   2.344  12.880  0.2203  0.7729  0.5354
13289TIP3    H161358   4.414   2.253  12.900  0.3556  0.0845 -2.0454
13289TIP3    H261359   4.356   2.378  12.837  0.6318  1.4666  0.3094
13290TIP3   OH261360   5.570   4.281   2.622 -0.0029 -0.2411 -0.0736
13290TIP3    H161361   5.613   4.231   2.691 -0.5744 -1.1656 -0.3624
13290TIP3    H261362   5.488   4.235   2.606 -1.0697  1.4250  0.3832
13291TIP3   OH261363   6.497   0.254  16.763 -0.2693  0.0251  0.3170
13291TIP3    H161364   6.525   0.173  16.720 -1.5387 -0.5773  0.5719
13291TIP3    H261365   6.575   0.308  16.765  0.6898 -1.3089  0.4132
13292TIP3   OH261366   6.625   5.821   2.129 -0.2885  0.1451  0.5467
13292TIP3    H161367   6.641   5.914   2.142  1.1471 -0.1388  1.0991
13292TIP3    H261368   6.643   5.806   2.036  0.8949  0.2051  0.7408
13293TIP3   OH261369   3.410   2.515  11.683  0.0985  0.6024 -0.0842
13293TIP3    H161370   3.384   2.427  11.655 -0.8573  0.9273 -0.2319
13293TIP3    H261371   3.478   2.540  11.621  1.2099 -0.4711  0.6387
13294TIP3   OH261372   6.191   2.309  12.695 -0.5911  0.4174  0.0595
13294TIP3    H161373   6.264   2.355  12.655  0.3725  0.3831  1.6814
13294TIP3    H261374   6.210   2.216  12.680  0.1848  0.3691  1.2108
13295TIP3   OH261375   6.686   6.545  11.316 -0.1723  0.5883  0.2788
13295TIP3    H161376   6.770   6.582  11.345 -0.8272  0.8641  1.9467
13295TIP3    H261377   6.695   6.451  11.333  0.2801  0.4140 -0.8426
13296TIP3   OH261378   4.270   5.951   4.432  0.5170 -0.1942 -0.0971
13296TIP3    H161379   4.181   5.984   4.430  0.5669  0.0968  1.5698
13296TIP3    H261380   4.322   6.018   4.389  0.2050  0.5785  0.7064
13297TIP3   OH261381   6.575   2.542  12.989  0.3184  0.0786  0.5765
13297TIP3    H161382   6.663   2.573  13.010  0.2875  0.7303 -0.2308
13297TIP3    H261383   6.554   2.583  12.906 -1.5267  1.5009  1.6651
13298TIP3   OH261384   1.621   1.306   2.011  0.3952 -0.4028 -0.1677
13298TIP3    H161385   1.660   1.389   1.983 -0.7711 -0.5454 -2.3938
13298TIP3    H261386   1.542   1.332   2.059 -1.5867 -0.1383 -3.3331
13299TIP3   OH261387   2.571   4.808  11.999  0.0937 -0.0224  0.6219
13299TIP3    H161388   2.541   4.735  11.945  3.0441 -1.1720  0.3501
13299TIP3    H261389   2.574   4.773  12.088  0.5490  0.0873  0.6497
13300TIP3   OH261390   0.927   1.347  14.203 -0.0966 -0.0526  0.0687
13300TIP3    H161391   0.870   1.424  14.195  0.6710  0.5257  0.0680
13300TIP3    H261392   1.012   1.377  14.172  0.1082 -1.0352 -0.3403
13301TIP3   OH261393   5.503   5.593   3.463  0.4293 -0.7258  0.0389
13301TIP3    H161394   5.498   5.534   3.388  0.8348  2.7768 -3.0851
13301TIP3    H261395   5.586   5.640   3.451  0.7149 -0.3052  3.0009
13302TIP3   OH261396   0.108   1.933  10.776 -0.4169  0.1445 -0.3126
13302TIP3    H161397   0.092   1.959  10.686  0.7666 -0.9071 -0.8614
13302TIP3    H261398   0.029   1.885  10.801 -0.2892 -0.5656 -1.2063
13303TIP3   OH261399   6.500   0.993  16.260  1.2251 -0.3003  0.6531
13303TIP3    H161400   6.536   0.969  16.346  0.2692  2.1539  1.8120
13303TIP3    H261401   6.536   1.080  16.243  0.2041 -0.1343 -0.7452
13304TIP3   OH261402   5.044   6.776   6.428  0.7343 -0.2821  0.3318
13304TIP3    H161403   5.107   6.704   6.427  1.9234  0.7032  0.8818
13304TIP3    H261404   5.093   6.850   6.465 -0.3381  0.9107 -0.5409
13305TIP3   OH261405   2.818   2.806   5.193  0.5652  0.1893  0.2640
13305TIP3    H161406   2.771   2.877   5.148  0.5937  1.2564  1.8221
13305TIP3    H261407   2.852   2.847   5.273  1.0534 -1.4639  0.9491
13306TIP3   OH261408   6.043   4.029   3.111 -0.7575 -0.1085  0.4091
13306TIP3    H161409   6.089   4.112   3.119  1.2118 -1.1015  0.2001
13306TIP3    H261410   6.107   3.971   3.069 -2.6735 -1.2589 -1.0855
13307TIP3   OH261411   6.352   5.393  14.771  0.5705  0.9399  0.7109
13307TIP3    H161412   6.362   5.419  14.863  1.8898  1.3657  0.4721
13307TIP3    H261413   6.431   5.427  14.728  0.8703 -0.8490 -0.2316
13308TIP3   OH261414   0.006   0.654  15.266 -0.2249  0.0910 -0.0599
13308TIP3    H161415  -0.066   0.715  15.257 -1.1762 -0.9943 -0.0631
13308TIP3    H261416  -0.034   0.576  15.305  0.7439 -0.9052 -1.0126
13309TIP3   OH261417   6.495   1.678   6.005 -0.8467 -0.3461 -0.9137
13309TIP3    H161418   6.443   1.647   6.079 -1.9949 -0.1256 -1.6058
13309TIP3    H261419   6.512   1.770   6.025 -3.7659  0.6010 -2.2815
13310TIP3   OH261420   2.422   0.865   1.304  0.2124  0.2635 -0.6256
13310TIP3    H161421   2.398   0.895   1.392 -0.3728 -1.7223 -0.0347
13310TIP3    H261422   2.516   0.851   1.309  0.2862  0.7753 -0.5209
13311TIP3   OH261423   4.569   0.031   4.863  0.0580 -0.1078 -0.2567
13311TIP3    H161424   4.571   0.028   4.767  0.3315  0.0363 -0.2569
13311TIP3    H261425   4.652   0.073   4.887 -0.9436  1.8392 -0.0215
13312TIP3   OH261426   5.093   4.422   1.043 -0.6899 -0.2247 -0.0314
13312TIP3    H161427   5.174   4.413   0.993 -0.4588  1.7253 -0.0868
13312TIP3    H261428   5.027   4.377   0.990 -0.3888  1.4660 -1.9979
13313TIP3   OH261429   2.558   4.842   0.105  0.2370  0.0020  0.3090
13313TIP3    H161430   2.498   4.788   0.157  0.3384  1.4677  2.0036
13313TIP3    H261431   2.516   4.847   0.019 -0.8184 -1.0424  0.7367
13314TIP3   OH261432   3.898   1.163  13.267 -0.5611  0.1935  0.2897
13314TIP3    H161433   3.916   1.100  13.337 -0.7589  0.5275  0.6444
13314TIP3    H261434   3.943   1.243  13.294  1.2652 -0.3088 -1.0620
13315TIP3   OH261435   3.244   6.151  12.856  0.0441 -0.0150  0.2472
13315TIP3    H161436   3.178   6.086  12.881 -0.2133 -0.1822 -0.8259
13315TIP3    H261437   3.276   6.186  12.939 -2.0826  0.7685  0.7930
13316TIP3   OH261438   3.871   1.814  12.650 -0.0393 -0.4662 -0.1665
13316TIP3    H161439   3.857   1.867  12.571 -0.3388 -1.2355 -0.6405
13316TIP3    H261440   3.897   1.878  12.717  0.5821  0.1582 -0.9772
13317TIP3   OH261441   2.422   0.600   4.663 -0.7037  0.2862  0.1549
13317TIP3    H161442   2.492   0.580   4.725 -0.7843  1.9435  0.8196
13317TIP3    H261443   2.343   0.604   4.717 -1.1821 -0.6714 -0.4522
13318TIP3   OH261444   3.632   5.440   3.448 -0.0477 -0.3845  0.0708
13318TIP3    H161445   3.622   5.532   3.474 -2.6826 -0.7314  0.5860
13318TIP3    H261446   3.606   5.439   3.356 -0.2145 -0.6505  0.1225
13319TIP3   OH261447   2.216   1.630  15.867 -0.1433 -0.3663 -0.2529
13319TIP3    H161448   2.278   1.676  15.810  1.5103 -1.0702  0.9046
13319TIP3    H261449   2.269   1.566  15.914 -1.7150 -0.8321  0.9919
13320TIP3   OH261450   2.808   6.224   3.740 -0.0987  0.4998  0.1156
13320TIP3    H161451   2.743   6.292   3.757  1.8186  1.8547  2.6881
13320TIP3    H261452   2.866   6.263   3.675  1.4241  1.7758  2.1203
13321TIP3   OH261453   3.903   0.423   2.832 -0.3528  0.4046 -0.4848
13321TIP3    H161454   3.963   0.392   2.763 -1.0595  0.6111 -1.2112
13321TIP3    H261455   3.859   0.499   2.792  0.5164  1.6566  0.8370
13322TIP3   OH261456   4.431   2.977  16.499 -0.6078 -0.3444 -0.0506
13322TIP3    H161457   4.344   2.943  16.520 -1.0021  0.4501 -0.3541
13322TIP3    H261458   4.469   2.911  16.442 -2.6912  1.1350 -3.5136
13323TIP3   OH261459   1.607   3.629   0.624  0.8729 -0.4273 -0.0564
13323TIP3    H161460   1.527   3.667   0.588  1.0075 -0.6208 -0.5746
13323TIP3    H261461   1.580   3.542   0.654  0.1176  0.6875  2.8722
13324TIP3   OH261462   2.685   1.089  16.064 -0.5896 -0.3496 -0.7834
13324TIP3    H161463   2.650   1.033  15.994  0.3637 -2.0385  0.0103
13324TIP3    H261464   2.730   1.028  16.122  0.4183  1.2775  0.2099
13325TIP3   OH261465   2.532   0.525   0.528  0.2229 -0.2901 -0.3660
13325TIP3    H161466   2.577   0.571   0.457 -2.8530  0.9256 -1.6873
13325TIP3    H261467   2.603   0.484   0.578  2.5899 -1.7446 -4.4099
13326TIP3   OH261468   5.491   2.436   2.769 -0.0857  0.8665 -0.3309
13326TIP3    H161469   5.576   2.393   2.758  1.0092  2.8312  0.0428
13326TIP3    H261470   5.429   2.364   2.775  1.4943 -0.6318 -0.9717
13327TIP3   OH261471   2.847   2.402   3.850  0.0387  0.4531  0.4691
13327TIP3    H161472   2.928   2.453   3.848  0.0062  0.4855 -1.0471
13327TIP3    H261473   2.854   2.344   3.774 -1.2333  0.2548  0.4915
13328TIP3   OH261474   5.955   2.141   2.819 -0.1779  0.1388  0.2963
13328TIP3    H161475   6.010   2.123   2.743  1.1361 -2.0974  1.6538
13328TIP3    H261476   5.895   2.067   2.824 -2.1432  1.6171 -0.0656
13329TIP3   OH261477   3.473   1.781  16.966  0.3500 -0.6882 -0.1794
13329TIP3    H161478   3.391   1.773  16.917 -0.4995 -1.0523  1.2517
13329TIP3    H261479   3.532   1.719  16.922 -0.3295 -0.8844 -0.8477
13330TIP3   OH261480   2.980   4.252   4.695 -0.4339  0.0548  0.0770
13330TIP3    H161481   2.888   4.224   4.700 -0.4102 -0.4789 -1.5641
13330TIP3    H261482   2.976   4.342   4.662 -0.3878  0.3990  1.0008
13331TIP3   OH261483   2.038   5.707   0.209  0.4658  0.3129 -0.7709
13331TIP3    H161484   2.086   5.630   0.238 -0.1982 -0.2287 -1.0599
13331TIP3    H261485   2.065   5.777   0.268 -1.0203 -0.7910  1.3737
13332TIP3   OH261486   3.722   2.254  12.302  0.1655  0.0837 -0.1045
13332TIP3    H161487   3.678   2.191  12.246 -2.2980 -0.1951  1.9512
13332TIP3    H261488   3.655   2.321  12.320 -0.1001 -1.0662  4.2711
13333TIP3   OH261489   0.485   6.299  14.174  0.1968  0.8124  0.2848
13333TIP3    H161490   0.578   6.311  14.193  0.9603 -3.7282  0.6037
13333TIP3    H261491   0.473   6.204  14.172 -4.1406  1.1496 -1.4374
13334TIP3   OH261492   2.287   4.938   4.313 -0.2107 -0.2649  0.3805
13334TIP3    H161493   2.211   4.995   4.310 -0.9389 -1.2197  0.0915
13334TIP3    H261494   2.251   4.849   4.309  0.9487 -0.7242 -0.4115
13335TIP3   OH261495   5.220   5.972  12.599 -0.4623  0.2543  0.1737
13335TIP3    H161496   5.205   5.945  12.690  1.0374  1.5577  0.8570
13335TIP3    H261497   5.138   5.951  12.554 -0.6865 -1.9508  1.4293
13336TIP3   OH261498   3.397   0.145   5.064  0.2591 -0.2620 -0.3252
13336TIP3    H161499   3.456   0.154   5.139  0.7064  2.2446 -0.8715
13336TIP3    H261500   3.324   0.093   5.097  1.0554 -0.3327  1.4628
13337TIP3   OH261501   4.384   6.259   2.603  0.3077 -0.1441  1.0815
13337TIP3    H161502   4.358   6.284   2.692  0.1208 -0.2588  1.0597
13337TIP3    H261503   4.307   6.276   2.550  0.3177 -0.3685  0.9938
13338TIP3   OH261504   6.646   0.000  10.209  0.2003 -0.0657 -0.1027
13338TIP3    H161505   6.733  -0.038  10.221 -0.5984 -1.6962  0.7646
13338TIP3    H261506   6.663   0.086  10.169  2.1186 -0.8641 -1.1323
13339TIP3   OH261507   6.570   4.886  13.782 -0.5762  0.0983  0.5319
13339TIP3    H161508   6.491   4.887  13.728  0.9709  1.3619 -1.8985
13339TIP3    H261509   6.622   4.812  13.748 -0.1701  0.0188  1.2907
13340TIP3   OH261510   3.565   0.714   0.770  0.0489  0.0738 -0.0684
13340TIP3    H161511   3.601   0.750   0.851  1.0642 -0.9174 -0.0445
13340TIP3    H261512   3.576   0.619   0.780  1.1794 -0.0161 -1.8056
13341TIP3   OH261513   1.058   1.560  15.869  0.4005 -0.4041  0.9812
13341TIP3    H161514   1.098   1.641  15.898 -0.5736  0.3849  0.2170
13341TIP3    H261515   1.060   1.565  15.773  1.1653 -1.7197  0.9000
13342TIP3   OH261516   4.337   1.355  16.362 -0.6967  0.4407  0.3788
13342TIP3    H161517   4.383   1.345  16.279 -1.6450  2.3135 -0.4184
13342TIP3    H261518   4.247   1.330  16.344 -0.8088  0.3774  0.9857
13343TIP3   OH261519   3.802   2.411   3.455 -0.5681 -0.6089 -0.7703
13343TIP3    H161520   3.864   2.340   3.471  1.1476  1.2123  1.1748
13343TIP3    H261521   3.718   2.376   3.485  0.4897 -1.3945  1.5098
13344TIP3   OH261522   3.824   5.594  14.151  0.0144  0.1912 -0.4189
13344TIP3    H161523   3.766   5.530  14.111 -0.3503 -0.1517  0.6197
13344TIP3    H261524   3.802   5.592  14.244  0.3848  1.4261 -0.2819
13345TIP3   OH261525   0.176   4.352  12.006  0.0638  0.1107  0.0489
13345TIP3    H161526   0.261   4.357  11.962 -0.1202 -0.0968 -0.3387
13345TIP3    H261527   0.155   4.258  12.007 -0.0686  0.1409  0.3262
13346TIP3   OH261528   2.185   6.290  13.371 -0.2026  0.2453  0.2889
13346TIP3    H161529   2.214   6.345  13.298  0.5083 -0.5166 -0.0149
13346TIP3    H261530   2.105   6.249  13.339 -0.8854  1.2926  0.6170
13347TIP3   OH261531   4.381   2.629  12.028 -0.2943 -0.3785  0.6524
13347TIP3    H161532   4.432   2.578  11.964 -0.1282  0.6854 -0.0792
13347TIP3    H261533   4.445   2.657  12.093 -0.2888 -0.6398  0.7602
13348TIP3   OH261534   5.476   4.300   2.332  0.2286 -0.3189 -0.0798
13348TIP3    H161535   5.539   4.318   2.402  1.1942  1.5725 -1.3385
13348TIP3    H261536   5.393   4.334   2.365  0.6717  0.5572  0.1574
13349TIP3   OH261537   3.031   4.688   3.045  0.6284  0.4228 -0.6517
13349TIP3    H161538   2.941   4.709   3.018  0.6153  1.2495 -0.0029
13349TIP3    H261539   3.083   4.764   3.020  1.1841 -0.1083 -1.1442
13350TIP3   OH261540   2.899   5.939  15.560 -0.3036  0.0292  0.2212
13350TIP3    H161541   2.988   5.956  15.530 -1.0694 -0.6600 -2.7519
13350TIP3    H261542   2.858   6.025  15.563 -0.7077  0.0599 -2.8189
13351TIP3   OH261543   0.533   4.282  13.731 -0.2669 -0.2643 -1.0547
13351TIP3    H161544   0.594   4.302  13.802 -0.6213  0.3842 -0.9234
13351TIP3    H261545   0.573   4.209  13.685 -0.5776 -1.4583  0.4962
13352TIP3   OH261546   1.096   0.244  14.420  0.0751  0.2347  0.0803
13352TIP3    H161547   1.038   0.318  14.442 -1.7145 -0.5375 -1.7627
13352TIP3    H261548   1.166   0.249  14.485 -2.4680  0.7252  3.0428
13353TIP3   OH261549   2.217   5.966  13.842 -0.5738 -0.0465 -0.1414
13353TIP3    H161550   2.311   5.974  13.825 -0.6139  0.1453 -0.2690
13353TIP3    H261551   2.211   5.899  13.910 -0.3229  0.1603  0.0871
13354TIP3   OH261552   5.771   3.561   3.091  0.1699  0.8088 -0.4851
13354TIP3    H161553   5.777   3.607   3.008  0.0347 -1.1553 -1.6487
13354TIP3    H261554   5.677   3.547   3.103  0.2755 -0.5360 -0.9984
13355TIP3   OH261555   1.403   2.458   3.388 -0.7873  0.0832 -0.4659
13355TIP3    H161556   1.381   2.448   3.481 -0.7466 -1.5671 -0.5993
13355TIP3    H261557   1.339   2.405   3.342  1.1634 -1.8930 -1.1069
13356TIP3   OH261558   2.185   5.790  16.699 -0.3910 -0.2335 -0.3800
13356TIP3    H161559   2.098   5.750  16.699 -0.4098 -0.2318 -1.5524
13356TIP3    H261560   2.205   5.804  16.606  0.4485  0.6701 -0.0822
13357TIP3   OH261561   2.511   0.411   0.834  0.1485  0.2141  0.4764
13357TIP3    H161562   2.532   0.330   0.880  0.5383  1.9423  3.5441
13357TIP3    H261563   2.592   0.434   0.788  1.3008  0.7838  2.7005
13358TIP3   OH261564   6.158   1.231  12.453  0.1055 -0.5748  0.2702
13358TIP3    H161565   6.137   1.235  12.360  2.3909 -1.2299 -0.3551
13358TIP3    H261566   6.132   1.316  12.488  1.1800  0.5130 -1.4541
13359TIP3   OH261567   5.411   1.337   4.324  0.2122 -0.2971  0.0617
13359TIP3    H161568   5.404   1.286   4.243  3.0847  1.3263 -1.3705
13359TIP3    H261569   5.360   1.417   4.307 -0.1249 -0.4517  0.3281
13360TIP3   OH261570   1.905   4.172   2.179 -0.0502  0.0703  0.1602
13360TIP3    H161571   1.926   4.264   2.197 -1.5226  0.3366  0.6673
13360TIP3    H261572   1.983   4.138   2.137  1.1262  1.1489  1.3521
13361TIP3   OH261573   3.549   6.001   1.239 -0.0405  0.8187  0.3169
13361TIP3    H161574   3.523   6.073   1.182 -0.0245  0.4241 -0.1968
13361TIP3    H261575   3.472   5.945   1.244  0.5707 -0.1971 -0.9641
13362TIP3   OH261576   6.055   1.621   0.833 -0.3547 -0.7428 -0.2491
13362TIP3    H161577   6.131   1.637   0.776 -0.2580  0.4798  0.1973
13362TIP3    H261578   6.093   1.614   0.920 -0.6620 -1.1178 -0.1461
13363TIP3   OH261579   3.769   3.549   0.076  0.4784 -1.0335 -0.0490
13363TIP3    H161580   3.804   3.530   0.163  1.5243 -2.2628 -0.7130
13363TIP3    H261581   3.694   3.490   0.068 -0.0135 -0.4669  0.2388
13364TIP3   OH261582   3.064   2.226   4.802  0.2901  0.2540 -0.0132
13364TIP3    H161583   3.047   2.194   4.714  1.7716 -0.6568  0.0055
13364TIP3    H261584   3.058   2.322   4.794 -2.9532  0.1284 -0.3270
13365TIP3   OH261585   2.324   4.031   5.045 -0.0940  0.1000 -0.0544
13365TIP3    H161586   2.247   4.040   4.989  0.1020  1.4623 -0.1437
13365TIP3    H261587   2.291   4.047   5.134 -0.1382 -0.6343  0.0719
13366TIP3   OH261588   0.474   6.301  15.659 -0.2331  0.7593 -0.2142
13366TIP3    H161589   0.533   6.326  15.587  0.5537  0.4265  0.3027
13366TIP3    H261590   0.394   6.273  15.615 -0.7667  3.1171 -0.8591
13367TIP3   OH261591   3.482   0.951  11.214  0.3618  0.2896  0.7782
13367TIP3    H161592   3.390   0.924  11.215  0.4832 -0.2325 -0.5563
13367TIP3    H261593   3.512   0.933  11.125  1.4394  1.5699  0.8459
13368TIP3   OH261594   4.642   6.820  13.728 -0.4745 -0.0556  0.0778
13368TIP3    H161595   4.643   6.729  13.697 -1.5284  0.5725 -1.9691
13368TIP3    H261596   4.682   6.870  13.657  1.5920  0.9804  1.8389
13369TIP3   OH261597   1.729   3.565  11.703  0.5591 -0.1901  0.0221
13369TIP3    H161598   1.716   3.637  11.641  1.7173 -0.9035 -1.1102
13369TIP3    H261599   1.757   3.608  11.784  0.2430  0.6895 -0.3165
13370TIP3   OH261600   2.639   4.533   4.663  0.7881  0.1909  0.2264
13370TIP3    H161601   2.675   4.490   4.741  0.5891 -0.3505  0.0313
13370TIP3    H261602   2.658   4.472   4.592 -0.0407  0.1348  0.0394
13371TIP3   OH261603   1.218   5.839  12.755  0.3192  0.0923  0.0589
13371TIP3    H161604   1.127   5.809  12.757  0.5647 -0.6792  1.7709
13371TIP3    H261605   1.212   5.933  12.773 -0.2058  0.3592 -1.3740
13372TIP3   OH261606   6.098   6.148   5.287  0.4702  0.1758  0.1402
13372TIP3    H161607   6.074   6.220   5.346  2.1174  0.0304  1.0399
13372TIP3    H261608   6.067   6.069   5.332 -1.7796  0.2776 -1.0741
13373TIP3   OH261609   5.249   0.079   6.522 -0.3383 -0.5980  0.3436
13373TIP3    H161610   5.315   0.016   6.492 -0.4599 -0.9923  0.8826
13373TIP3    H261611   5.290   0.165   6.508 -0.7342 -0.7154 -1.7314
13374TIP3   OH261612   6.584   5.682   1.204  0.1467  0.2012 -0.2664
13374TIP3    H161613   6.494   5.714   1.194  0.0803  0.5163  1.1459
13374TIP3    H261614   6.588   5.649   1.293  1.4934  0.3517 -0.2486
13375TIP3   OH261615   5.971   1.259   3.703  0.0751  0.0737 -0.4212
13375TIP3    H161616   5.891   1.311   3.692 -0.3975 -0.4354  0.5670
13375TIP3    H261617   6.038   1.324   3.725 -0.2048  0.4183 -0.5622
13376TIP3   OH261618   6.596   1.366   5.464 -0.4771  0.0362  0.0790
13376TIP3    H161619   6.609   1.454   5.430 -1.6121  0.1102 -0.2244
13376TIP3    H261620   6.507   1.343   5.436 -1.0488 -0.3328  2.0988
13377TIP3   OH261621   2.446   6.714   0.457 -0.4155  0.5819 -0.2650
13377TIP3    H161622   2.465   6.628   0.420  0.6504  0.7164 -0.0510
13377TIP3    H261623   2.398   6.695   0.538  1.2561  0.0891  0.6579
13378TIP3   OH261624   4.901   4.055   4.671  0.5064  0.3729  0.3521
13378TIP3    H161625   4.815   4.013   4.682  0.8534 -1.3642 -2.5196
13378TIP3    H261626   4.887   4.145   4.699 -2.0781 -0.0129  0.5963
13379TIP3   OH261627   3.325   4.763  14.833 -0.2367  0.3220 -0.1502
13379TIP3    H161628   3.399   4.822  14.847  0.4586 -0.4221 -0.6177
13379TIP3    H261629   3.322   4.750  14.738 -0.2773 -0.5186 -0.0409
13380TIP3   OH261630   1.879   6.250  16.743  0.6082  0.1006 -0.7369
13380TIP3    H161631   1.937   6.277  16.672  1.8259 -0.7825 -0.1062
13380TIP3    H261632   1.823   6.326  16.757  0.1846  0.2230 -2.7607
13381TIP3   OH261633   1.955   5.916  12.622 -0.4271 -0.1945 -0.1910
13381TIP3    H161634   1.923   5.838  12.577 -0.7393 -0.1612 -0.0299
13381TIP3    H261635   2.049   5.915  12.607 -0.4880 -0.3429 -0.5959
13382TIP3   OH261636   6.628   3.274   5.831 -0.3038  0.1243 -0.1144
13382TIP3    H161637   6.574   3.201   5.862 -0.4327  0.5103  0.6012
13382TIP3    H261638   6.614   3.343   5.896 -2.6088  1.9296 -2.3089
13383TIP3   OH261639   3.110   1.168   2.247 -0.8997 -0.1683 -0.5559
13383TIP3    H161640   3.105   1.243   2.307 -0.7268 -0.9768  0.4904
13383TIP3    H261641   3.202   1.166   2.221 -1.1844  0.8419 -1.7416
13384TIP3   OH261642   5.265   1.499  12.130 -0.5208  0.0882  0.1979
13384TIP3    H161643   5.268   1.535  12.041  1.1286  0.2305  0.2929
13384TIP3    H261644   5.277   1.405  12.118 -1.1669 -0.0004  0.2171
13385TIP3   OH261645   5.897   2.138   3.402 -0.6713  0.2435  0.3499
13385TIP3    H161646   5.934   2.116   3.488  0.6200  1.2876  0.0883
13385TIP3    H261647   5.955   2.094   3.339 -0.5045  0.9986 -0.0333
13386TIP3   OH261648   0.954   3.139   0.829 -0.1289 -0.0851  0.7819
13386TIP3    H161649   1.011   3.215   0.816  0.0865 -0.5054 -1.1551
13386TIP3    H261650   0.895   3.164   0.899  0.0347  1.8344  0.2830
13387TIP3   OH261651   5.402   5.638   2.223  0.4604 -0.3804  0.3207
13387TIP3    H161652   5.441   5.553   2.200 -0.3722 -0.3169 -1.4993
13387TIP3    H261653   5.333   5.616   2.287 -0.3024 -1.2148 -0.7453
13388TIP3   OH261654   4.691   6.161   5.978 -0.3089 -0.3072 -0.4627
13388TIP3    H161655   4.655   6.111   6.051 -1.6534 -0.9556 -1.5160
13388TIP3    H261656   4.686   6.253   6.006  0.5117 -0.6325  0.7884
13389TIP3   OH261657   4.877   3.671   3.327 -0.1413  0.4154  0.3420
13389TIP3    H161658   4.810   3.603   3.315  1.1642 -0.6923 -1.1776
13389TIP3    H261659   4.954   3.623   3.359  0.1061  1.5814  1.5815
13390TIP3   OH261660   4.537   2.900  11.949  0.1661 -0.2993 -0.3252
13390TIP3    H161661   4.449   2.874  11.975 -0.2446 -0.0799 -1.4178
13390TIP3    H261662   4.556   2.847  11.871  1.0328 -0.4010 -0.0584
13391TIP3   OH261663   4.234   1.455  13.682  0.0758 -0.3206  0.0130
13391TIP3    H161664   4.264   1.380  13.630  2.4458  0.6413 -0.1594
13391TIP3    H261665   4.315   1.497  13.712 -1.1128  2.4975 -0.3983
13392TIP3   OH261666   0.858   6.014  11.735  0.3317 -0.1418  0.5162
13392TIP3    H161667   0.901   5.992  11.818  1.0906  0.9693  0.4271
13392TIP3    H261668   0.883   6.104  11.717 -2.2254  0.6427  0.5591
13393TIP3   OH261669   6.229   3.082  16.542  0.1405  0.1875  0.1923
13393TIP3    H161670   6.322   3.084  16.567  0.6039  1.1179 -1.4931
13393TIP3    H261671   6.211   2.989  16.526  0.7579 -0.0021  0.5407
13394TIP3   OH261672   2.413   0.873  13.782  0.1406 -0.0822 -0.1131
13394TIP3    H161673   2.440   0.834  13.866 -0.6555 -2.9337 -1.0438
13394TIP3    H261674   2.333   0.826  13.759 -1.5735  3.0089 -0.9242
13395TIP3   OH261675   6.234   6.509   0.383  0.0555 -0.4617  0.6562
13395TIP3    H161676   6.295   6.575   0.349 -0.0137  0.7304  2.6897
13395TIP3    H261677   6.251   6.432   0.330  1.1609  0.7527 -0.8594
13396TIP3   OH261678   0.947   6.384  13.689 -0.1294  0.0222  0.3700
13396TIP3    H161679   1.023   6.369  13.632  0.3768  0.1548  1.0080
13396TIP3    H261680   0.878   6.329  13.651  0.2797 -0.1013 -0.2125
13397TIP3   OH261681   2.050   2.099   3.820  0.2895  0.0154 -1.2816
13397TIP3    H161682   1.958   2.076   3.835  0.3541  1.0507  0.9596
13397TIP3    H261683   2.094   2.015   3.809  0.1885 -1.1954  4.6320
13398TIP3   OH261684   0.361   3.954   3.416  0.2708  0.1020  0.3995
13398TIP3    H161685   0.384   3.990   3.502  0.9094 -1.3614  0.8810
13398TIP3    H261686   0.279   3.908   3.430  0.1198  0.2804  0.1054
13399TIP3   OH261687   0.317   1.062   3.403  0.2923 -0.1985 -0.3549
13399TIP3    H161688   0.345   0.999   3.470  1.5386  2.4252  1.7963
13399TIP3    H261689   0.394   1.071   3.346  0.8152  0.7520  0.4833
13400TIP3   OH261690   2.311   1.814   0.843  0.4141 -0.3807 -0.3955
13400TIP3    H161691   2.373   1.759   0.795  0.0336 -1.6913  0.5548
13400TIP3    H261692   2.239   1.754   0.866  0.7833  0.0609  2.1511
13401TIP3   OH261693   4.642   1.682  12.994  0.1832  0.3241 -0.5073
13401TIP3    H161694   4.660   1.776  12.990  1.0332  0.1591 -0.7269
13401TIP3    H261695   4.661   1.650  12.907  2.7346 -0.5243  0.2835
13402TIP3   OH261696   1.360   0.818   0.673  0.3858 -0.1247 -0.3507
13402TIP3    H161697   1.378   0.774   0.756  1.2719 -0.3943 -0.6797
13402TIP3    H261698   1.270   0.851   0.683  0.5759  0.1020  0.8262
13403TIP3   OH261699   3.238   5.642   4.879  0.0101 -0.8375  0.6437
13403TIP3    H161700   3.162   5.600   4.839 -0.6718 -1.3430  2.3615
13403TIP3    H261701   3.208   5.669   4.966  1.5063 -0.1147  0.9826
13404TIP3   OH261702   2.059   1.879  14.487  0.1720 -0.1593  0.2130
13404TIP3    H161703   1.968   1.853  14.495 -0.1065  1.0749  1.4629
13404TIP3    H261704   2.075   1.934  14.564  1.7408  0.2932 -0.3973
13405TIP3   OH261705   2.031   6.089   0.340 -0.8243  0.2031  0.3883
13405TIP3    H161706   2.092   6.026   0.379  0.8141  2.2390  1.3394
13405TIP3    H261707   2.045   6.080   0.246 -0.1006 -0.3509  0.5360
13406TIP3   OH261708   5.104   2.626  11.462  0.0081  0.3321 -0.3443
13406TIP3    H161709   5.060   2.615  11.378 -0.3549 -0.6686 -0.0423
13406TIP3    H261710   5.035   2.658  11.521 -0.3276 -1.1189  0.0994
13407TIP3   OH261711   3.314   4.540   4.620 -0.0853 -0.5868 -0.4236
13407TIP3    H161712   3.273   4.511   4.539  1.0103 -0.7440 -0.9359
13407TIP3    H261713   3.397   4.493   4.623  1.5802  2.0947 -1.0808
13408TIP3   OH261714   0.432   1.180  14.708 -0.3690 -0.5706 -0.5631
13408TIP3    H161715   0.464   1.149  14.793 -0.7362  0.7766  0.0953
13408TIP3    H261716   0.371   1.112  14.680 -0.6203 -0.8110  0.4989
13409TIP3   OH261717   4.018   1.291   2.677  0.0489  0.0211 -0.1666
13409TIP3    H161718   3.930   1.329   2.679 -0.3922 -0.9932  0.7695
13409TIP3    H261719   4.059   1.323   2.757  0.0205 -0.6400  0.1202
13410TIP3   OH261720   6.163   1.460  11.559  0.2813 -0.4645 -0.4616
13410TIP3    H161721   6.211   1.534  11.597  1.3628 -1.4555  0.1618
13410TIP3    H261722   6.157   1.481  11.466  1.6292 -0.1295 -0.4974
13411TIP3   OH261723   4.320   4.096   0.233 -0.0750  0.3996  0.1798
13411TIP3    H161724   4.403   4.049   0.225  0.2949  0.5926  2.2620
13411TIP3    H261725   4.343   4.175   0.283 -1.1268  1.6055 -1.1571
13412TIP3   OH261726   2.779   4.237   5.036  0.0357  0.5470  0.1360
13412TIP3    H161727   2.723   4.244   5.113 -1.0865  0.5757 -0.6435
13412TIP3    H261728   2.866   4.260   5.066 -0.5296  1.3467  1.2173
13413TIP3   OH261729   4.692   4.143  16.231 -0.2502 -0.1048 -0.3920
13413TIP3    H161730   4.666   4.235  16.223 -0.5989 -0.3431 -2.6802
13413TIP3    H261731   4.779   4.139  16.191  0.5411 -0.5101  1.2579
13414TIP3   OH261732   0.868   0.317  13.893 -0.4571  0.6392  0.3016
13414TIP3    H161733   0.876   0.407  13.863  0.6175  0.8715  1.2156
13414TIP3    H261734   0.957   0.291  13.917 -1.1035  0.2251  2.4998
13415TIP3   OH261735   0.006   3.036   1.931 -0.3819  0.0036  0.0766
13415TIP3    H161736   0.100   3.053   1.923 -0.5614  0.1995 -2.2147
13415TIP3    H261737  -0.025   3.103   1.993  1.0184 -0.2689  1.1061
13416TIP3   OH261738   1.449   1.020   2.728 -0.2419  0.1795 -0.4063
13416TIP3    H161739   1.411   0.966   2.798  0.4335  0.3072  0.0716
13416TIP3    H261740   1.373   1.061   2.686 -0.7632 -1.1848 -0.8296
13417TIP3   OH261741   2.259   3.122   5.174 -0.1334 -0.6802  0.5927
13417TIP3    H161742   2.228   3.162   5.093  2.9477 -1.1209 -0.9673
13417TIP3    H261743   2.249   3.028   5.160 -2.5975 -0.7283  2.1542
13418TIP3   OH261744   0.426   5.929   5.239 -0.1751  0.1605  0.3314
13418TIP3    H161745   0.483   5.871   5.188 -0.0100  1.0277 -0.4913
13418TIP3    H261746   0.364   5.870   5.282 -1.0585 -0.5450 -1.7951
13419TIP3   OH261747   4.992   4.937   5.694  0.0053  0.2208  0.2111
13419TIP3    H161748   5.008   4.895   5.779  1.6294 -0.0497 -0.1947
13419TIP3    H261749   5.066   4.910   5.639 -0.8981  0.5487 -1.2444
13420TIP3   OH261750   5.063   5.211   0.217  0.8917 -0.4894  0.4533
13420TIP3    H161751   5.125   5.277   0.186  0.0955 -0.0939 -0.3284
13420TIP3    H261752   5.111   5.163   0.285  1.0683  1.6983  1.9540
13421TIP3   OH261753   0.018   1.254   4.003  0.3138  0.8197 -0.4908
13421TIP3    H161754   0.076   1.279   3.931  0.8632  0.5389 -0.1452
13421TIP3    H261755   0.076   1.224   4.072 -0.2242  0.8888 -0.0006
13422TIP3   OH261756   1.112   1.260   0.699  0.4078 -0.4822 -0.1131
13422TIP3    H161757   1.049   1.285   0.631  0.8992  1.8097  0.2000
13422TIP3    H261758   1.182   1.325   0.692  0.5296 -0.2405  2.5030
13423TIP3   OH261759   5.025   3.285  13.783  0.0371  0.1059 -0.0934
13423TIP3    H161760   5.097   3.299  13.721  1.4418  0.0290  1.4289
13423TIP3    H261761   4.948   3.269  13.729  1.4028 -0.9776 -1.8158
13424TIP3   OH261762   6.866   4.410  15.174 -0.3649  0.3609 -0.6538
13424TIP3    H161763   6.885   4.444  15.261  0.7849  2.4128 -1.6407
13424TIP3    H261764   6.940   4.351  15.155  0.3410  1.3123 -0.9234
13425TIP3   OH261765   0.397   1.892  16.670 -0.5610  0.1104  0.5302
13425TIP3    H161766   0.483   1.916  16.636 -0.5880  0.1206  0.4700
13425TIP3    H261767   0.339   1.961  16.639 -0.1688  1.4389  2.5562
13426TIP3   OH261768   4.530   1.319  12.036  0.0018 -0.1659  0.1416
13426TIP3    H161769   4.487   1.403  12.022  0.6260  0.2533  0.6991
13426TIP3    H261770   4.560   1.292  11.949  0.8137  0.7418  0.1292
13427TIP3   OH261771   1.910   1.388   0.460 -1.0940  0.0991 -0.0694
13427TIP3    H161772   1.949   1.407   0.375  2.0318  0.6661  1.3235
13427TIP3    H261773   1.905   1.292   0.464  1.5473 -0.1092  0.1114
13428TIP3   OH261774   0.852   5.595  16.049  0.3310 -0.0857 -0.0956
13428TIP3    H161775   0.831   5.605  16.142  0.0119 -0.1342 -0.1607
13428TIP3    H261776   0.891   5.508  16.043  1.3332  0.3267  0.1623
13429TIP3   OH261777   5.403   4.180   0.594  0.0510 -0.5764 -0.3698
13429TIP3    H161778   5.324   4.188   0.648 -1.9497  0.9782 -3.2132
13429TIP3    H261779   5.392   4.247   0.526  3.6933 -0.5835 -1.1511
13430TIP3   OH261780   0.187   2.790  15.048 -0.0691  0.1654  0.1429
13430TIP3    H161781   0.134   2.741  15.110 -0.6595 -1.4018 -1.4995
13430TIP3    H261782   0.125   2.847  15.002  0.3069  1.0782  0.7492
13431TIP3   OH261783   1.956   3.989   1.518  0.3831 -0.1056 -0.0806
13431TIP3    H161784   1.920   3.945   1.595 -0.8839  1.2283  0.1153
13431TIP3    H261785   1.922   3.939   1.443  1.1984 -1.0905  0.1830
13432TIP3   OH261786   3.422   2.785   3.270 -0.2257  0.5281 -0.3099
13432TIP3    H161787   3.467   2.704   3.292  2.1552  1.8032 -0.2526
13432TIP3    H261788   3.442   2.800   3.177 -0.9759  0.8818 -0.4312
13433TIP3   OH261789   1.672   2.781  12.397 -0.3599  0.0998 -0.2463
13433TIP3    H161790   1.732   2.820  12.333 -0.2108  0.2567 -0.0111
13433TIP3    H261791   1.716   2.701  12.425  0.0888  0.5924  0.4801
13434TIP3   OH261792   3.622   5.542  13.412 -0.0875 -0.7425  0.0460
13434TIP3    H161793   3.683   5.616  13.416  0.3305 -1.1177  1.0179
13434TIP3    H261794   3.538   5.581  13.391  0.1426  0.0062  0.4636
13435TIP3   OH261795   2.618   4.954  13.218 -0.6009  0.3097 -0.3775
13435TIP3    H161796   2.665   5.027  13.177  1.6034 -0.0568  1.2604
13435TIP3    H261797   2.611   4.980  13.310  1.3812 -1.9814  0.5216
13436TIP3   OH261798   1.751   4.750   5.269 -0.7194 -0.2027  0.1679
13436TIP3    H161799   1.684   4.775   5.205 -0.2669 -0.2051 -0.3088
13436TIP3    H261800   1.810   4.824   5.273  0.0530 -0.7704 -0.4881
13437TIP3   OH261801   5.193   4.450   4.350  0.1774 -0.2908  0.4317
13437TIP3    H161802   5.251   4.516   4.313  0.2294 -0.8507 -0.5414
13437TIP3    H261803   5.123   4.499   4.392  0.6318  0.3778  0.4155
13438TIP3   OH261804   0.706   0.151   6.413  0.3305 -0.0561 -0.7556
13438TIP3    H161805   0.666   0.131   6.329  0.7445 -0.8908 -0.7629
13438TIP3    H261806   0.706   0.068   6.460 -0.0030  0.4271  0.1178
13439TIP3   OH261807   2.279   4.113  11.847 -0.6723 -0.0614 -0.1699
13439TIP3    H161808   2.195   4.143  11.880 -0.5321  0.7890 -0.5352
13439TIP3    H261809   2.265   4.104  11.752 -0.3502  0.1316 -0.2385
13440TIP3   OH261810   2.094   5.518  13.986 -0.1602 -0.2080  0.2904
13440TIP3    H161811   2.032   5.465  13.936  1.1634 -0.4451 -1.1347
13440TIP3    H261812   2.118   5.462  14.060 -2.2221  0.1980  1.3718
13441TIP3   OH261813   5.404   2.927   0.752 -0.5511  0.1223  0.5716
13441TIP3    H161814   5.456   2.974   0.817  1.3568 -2.5800  1.1447
13441TIP3    H261815   5.468   2.895   0.688 -1.9338 -0.6056 -0.5101
13442TIP3   OH261816   0.519   3.931   1.632  0.6460  0.5911  0.3487
13442TIP3    H161817   0.471   3.913   1.551 -1.8001  0.7539  1.6593
13442TIP3    H261818   0.492   4.020   1.656  0.4979  0.1776  1.8459
13443TIP3   OH261819   6.574   2.063  13.659 -0.8416 -0.1328  0.2408
13443TIP3    H161820   6.573   2.133  13.593 -1.6123  0.3887  0.7929
13443TIP3    H261821   6.512   1.998  13.626 -1.4047  0.2353  0.5457
13444TIP3   OH261822   0.473   4.003  15.946 -0.2036  0.1096  0.7528
13444TIP3    H161823   0.550   4.029  15.997 -0.9479  1.7988  1.1193
13444TIP3    H261824   0.490   4.036  15.858  0.7032 -2.0473  0.0721
13445TIP3   OH261825   0.956   3.640  11.987  0.4963 -0.3895 -0.2987
13445TIP3    H161826   0.889   3.686  12.037  0.8003 -0.0951 -0.1624
13445TIP3    H261827   1.033   3.642  12.043  0.7174 -0.4353 -0.6016
13446TIP3   OH261828   5.451   4.104  12.544  0.1421  0.0812  0.3809
13446TIP3    H161829   5.461   4.164  12.618 -1.3162 -0.2337  0.8603
13446TIP3    H261830   5.467   4.017  12.581 -0.3961 -0.0613  0.2806
13447TIP3   OH261831   3.196   4.127   4.386  0.2604 -0.0299 -0.0257
13447TIP3    H161832   3.233   4.210   4.417  0.2679  0.8392 -2.1745
13447TIP3    H261833   3.102   4.145   4.376  0.3944  0.0388 -1.3461
13448TIP3   OH261834   5.970   3.298  10.426  0.0113  0.1902  0.2131
13448TIP3    H161835   5.891   3.353  10.420  0.0919  0.3313  0.4206
13448TIP3    H261836   6.024   3.342  10.492  0.3090  0.1472 -0.0031
13449TIP3   OH261837   3.897   5.568  15.458  0.2691  0.4717  0.0402
13449TIP3    H161838   3.877   5.508  15.530 -0.1722  0.7227  0.1288
13449TIP3    H261839   3.908   5.653  15.499  1.9312  0.2998  0.0515
13450TIP3   OH261840   0.896   1.067  14.134 -0.3244 -0.0214 -0.0428
13450TIP3    H161841   0.983   1.068  14.095 -0.8151 -0.5119 -1.2099
13450TIP3    H261842   0.877   1.158  14.155  0.8667 -0.0364  1.1585
13451TIP3   OH261843   0.749   2.221  16.353  0.3990 -0.0344  0.6009
13451TIP3    H161844   0.783   2.245  16.439 -1.5552  1.0748  1.1238
13451TIP3    H261845   0.762   2.300  16.300  0.9706 -0.4842  0.0576
13452TIP3   OH261846   3.203   4.388  15.660  0.4194 -0.5477 -0.0661
13452TIP3    H161847   3.132   4.372  15.722 -0.4276 -2.4233 -1.4132
13452TIP3    H261848   3.281   4.400  15.714 -0.4373 -1.2688  1.3826
13453TIP3   OH261849   6.159   3.240   1.451 -0.3708 -0.5533 -0.4789
13453TIP3    H161850   6.248   3.219   1.478 -0.7062 -2.1703 -0.5129
13453TIP3    H261851   6.105   3.223   1.528 -1.0264 -2.8273 -1.3532
13454TIP3   OH261852   0.183   5.129  11.722  0.0797  0.6195 -0.2659
13454TIP3    H161853   0.234   5.133  11.641 -1.6333 -2.1826 -1.6584
13454TIP3    H261854   0.101   5.172  11.701 -1.6502 -2.8564 -1.2506
13455TIP3   OH261855   2.381   4.881   1.718 -0.2991  0.2598  0.1738
13455TIP3    H161856   2.469   4.917   1.729  0.7771 -1.9515 -0.5724
13455TIP3    H261857   2.367   4.828   1.796 -0.9607  0.5854  0.2776
13456TIP3   OH261858   2.053   5.518  13.121  0.1468  0.6245 -0.1692
13456TIP3    H161859   2.015   5.526  13.208 -0.1160  0.5642 -0.2763
13456TIP3    H261860   2.143   5.548  13.130  0.6389 -0.9319  0.4930
13457TIP3   OH261861   6.207   4.197   4.289  0.0787 -0.1401  0.2004
13457TIP3    H161862   6.217   4.254   4.213  0.7358  0.0379  0.4118
13457TIP3    H261863   6.137   4.136   4.265 -1.1454  1.2086  0.2445
13458TIP3   OH261864   6.474   0.960  12.312  0.1445  0.4668 -0.8527
13458TIP3    H161865   6.547   0.945  12.252  0.2450  2.1799 -1.2156
13458TIP3    H261866   6.516   0.984  12.395  0.1076  3.3941 -1.5654
13459TIP3   OH261867   5.709   4.534  16.816  0.2298 -0.2156  0.7112
13459TIP3    H161868   5.658   4.473  16.869 -0.5413  0.1714  0.4330
13459TIP3    H261869   5.780   4.481  16.780 -0.3294 -0.9167  0.6159
13460TIP3   OH261870   3.759   6.815   5.820 -0.6372 -0.0806  0.0763
13460TIP3    H161871   3.778   6.721   5.822  1.1016  0.2331  0.6017
13460TIP3    H261872   3.703   6.829   5.896 -1.2624 -0.7544 -0.2502
13461TIP3   OH261873   6.826   2.822  13.555 -0.1263  0.1915 -0.0907
13461TIP3    H161874   6.791   2.799  13.640 -1.6010 -0.3074 -0.7964
13461TIP3    H261875   6.918   2.843  13.571 -0.3870  0.1395  1.6041
13462TIP3   OH261876   2.011   4.435   1.985  0.2322 -0.2408  0.0226
13462TIP3    H161877   1.968   4.483   2.055  1.6357  0.7780  0.2372
13462TIP3    H261878   2.029   4.500   1.917 -0.1145 -0.9885 -0.8213
13463TIP3   OH261879   6.356   5.599   5.453 -0.1550  0.2629 -0.5059
13463TIP3    H161880   6.432   5.611   5.396  1.1589  0.5700  1.1962
13463TIP3    H261881   6.381   5.526   5.511 -1.0533  0.5237  0.2338
13464TIP3   OH261882   2.659   1.879  14.815 -0.6161  0.1976 -0.3518
13464TIP3    H161883   2.618   1.810  14.762 -2.0878 -0.9318  2.0789
13464TIP3    H261884   2.751   1.854  14.818 -0.5417  0.1404 -2.0742
13465TIP3   OH261885   1.014   2.161  15.154  0.6254  0.0726 -0.2851
13465TIP3    H161886   1.089   2.217  15.136  0.8364  0.3768  1.3704
13465TIP3    H261887   0.952   2.217  15.199  0.1949 -0.6497  0.0420
13466TIP3   OH261888   4.072   5.709   5.174  0.1334 -0.3110 -0.1101
13466TIP3    H161889   4.007   5.674   5.114 -1.2910 -0.1820  1.2867
13466TIP3    H261890   4.136   5.752   5.118 -1.9851  1.2491 -1.5109
13467TIP3   OH261891   3.346   2.191  16.364 -0.0917  0.2032  0.4537
13467TIP3    H161892   3.251   2.194  16.375 -0.1032  1.0313  0.2533
13467TIP3    H261893   3.375   2.282  16.378  0.5066  0.2322 -0.7493
13468TIP3   OH261894   3.111   6.141   2.682 -0.6955 -0.3552 -0.2209
13468TIP3    H161895   3.154   6.087   2.615 -1.0660 -0.0359 -0.7186
13468TIP3    H261896   3.019   6.116   2.678 -0.7858 -0.0471 -0.1051
13469TIP3   OH261897   1.509   6.621  15.902  0.4396 -0.5157 -0.2074
13469TIP3    H161898   1.577   6.668  15.950 -0.7759 -1.4262  2.5943
13469TIP3    H261899   1.553   6.590  15.822  1.9677  2.9593 -0.8824
13470TIP3   OH261900   6.739   5.604  14.060 -0.5649  0.1140  0.2179
13470TIP3    H161901   6.805   5.674  14.060  1.6490 -1.8463  0.6572
13470TIP3    H261902   6.737   5.574  13.969  0.6611 -1.1029  0.5608
13471TIP3   OH261903   0.538   3.839   0.781  0.1252 -0.6246 -0.1909
13471TIP3    H161904   0.542   3.903   0.710  1.8837 -1.4528 -0.8905
13471TIP3    H261905   0.444   3.829   0.798 -0.2672  0.7385 -1.3277
13472TIP3   OH261906   0.938   2.357   2.723  0.2532 -1.1046 -0.8210
13472TIP3    H161907   0.933   2.409   2.642  0.7211  0.3258  0.0333
13472TIP3    H261908   1.029   2.329   2.728  0.8676  0.8797  0.3935
13473TIP3   OH261909   0.893   5.196  15.253  0.4669  0.0490 -0.3284
13473TIP3    H161910   0.815   5.140  15.258  0.2020  0.4985  0.6555
13473TIP3    H261911   0.963   5.136  15.227 -0.1562 -0.3994 -1.0174
13474TIP3   OH261912   2.370   5.236   4.128  0.5389  0.3602 -0.2981
13474TIP3    H161913   2.433   5.164   4.122  0.4495  0.2825 -0.3148
13474TIP3    H261914   2.390   5.279   4.211 -0.1010 -0.3442  0.2409
13475TIP3   OH261915   6.325   4.357  12.450  0.7431  0.0544  0.5432
13475TIP3    H161916   6.378   4.300  12.506  1.1598  0.1415  0.2401
13475TIP3    H261917   6.388   4.412  12.405  0.3107  1.2227  1.3164
13476TIP3   OH261918   6.314   0.229   5.173  0.8497 -0.0278  0.3008
13476TIP3    H161919   6.251   0.231   5.245 -0.4575 -1.2978 -0.7414
13476TIP3    H261920   6.294   0.307   5.121 -2.1650 -1.9657 -1.7772
13477TIP3   OH261921   6.594   0.140  12.929  0.3058 -0.2318 -0.9557
13477TIP3    H161922   6.657   0.102  12.990  0.4013  4.2791  2.1987
13477TIP3    H261923   6.646   0.195  12.871 -0.3968  1.0560 -0.3974
13478TIP3   OH261924   6.629   4.895   5.973 -0.2736 -0.3421 -0.6150
13478TIP3    H161925   6.674   4.825   5.926  0.0828 -0.5920  0.0955
13478TIP3    H261926   6.699   4.941   6.020 -0.7216 -0.5410  0.2460
13479TIP3   OH261927   1.828   5.414   1.879 -0.5847  0.4776 -0.1074
13479TIP3    H161928   1.869   5.396   1.794 -0.6477 -0.4545  0.0449
13479TIP3    H261929   1.743   5.454   1.857 -1.2521 -1.0940 -0.5536
13480TIP3   OH261930   3.567   5.892   2.046 -0.3031 -0.5305 -0.3248
13480TIP3    H161931   3.531   5.916   1.960 -1.2566 -0.5231  0.0604
13480TIP3    H261932   3.491   5.895   2.105  0.5993  0.9577  0.8271
13481TIP3   OH261933   4.784   3.417  14.554 -0.2217  0.1775  0.4133
13481TIP3    H161934   4.764   3.507  14.530  1.3187  0.2577 -0.6621
13481TIP3    H261935   4.808   3.422  14.647  0.7424  1.0208  0.1283
13482TIP3   OH261936   6.797   0.065   0.623 -0.7542 -0.2102  0.5154
13482TIP3    H161937   6.802   0.154   0.656  0.6199  0.0866 -0.4123
13482TIP3    H261938   6.887   0.044   0.596 -1.5666 -0.7816 -2.0462
13483TIP3   OH261939   2.665   3.071  14.380  0.1546 -0.0714 -0.0707
13483TIP3    H161940   2.701   3.126  14.310 -1.4158  1.2074  0.0606
13483TIP3    H261941   2.714   3.098  14.458 -0.4159  0.9817 -0.0563
13484TIP3   OH261942   6.868   0.080  11.565  0.1256 -0.2103  0.3994
13484TIP3    H161943   6.893   0.124  11.483  2.4042 -1.8487  0.1205
13484TIP3    H261944   6.815   0.145  11.611  0.9527  1.7535 -1.2353
13485TIP3   OH261945   2.120   5.829   5.194  0.5127 -0.0622  0.1220
13485TIP3    H161946   2.200   5.870   5.160  0.8623 -1.1740 -0.4783
13485TIP3    H261947   2.138   5.735   5.190 -0.8484 -0.3396 -0.0750
13486TIP3   OH261948   6.864   5.264   2.074 -0.3717 -0.2618 -0.0855
13486TIP3    H161949   6.852   5.170   2.060 -0.7154 -0.3599  0.7769
13486TIP3    H261950   6.797   5.305   2.020 -1.3518 -0.6021  0.8258
13487TIP3   OH261951   4.166   3.113   0.901  0.2738 -0.3963 -0.0301
13487TIP3    H161952   4.114   3.095   0.979  1.1715  2.8434  1.5315
13487TIP3    H261953   4.254   3.081   0.924  0.3612 -0.1466 -0.0135
13488TIP3   OH261954   0.877   2.095   5.684 -0.3037 -0.0507  0.2364
13488TIP3    H161955   0.936   2.157   5.727 -0.8275 -0.1480  1.1261
13488TIP3    H261956   0.933   2.047   5.622  0.6695 -0.4777  1.3987
13489TIP3   OH261957   2.645   2.431   5.088  0.2944  0.2833 -0.9417
13489TIP3    H161958   2.735   2.404   5.107 -0.1766 -0.7153 -0.0558
13489TIP3    H261959   2.636   2.516   5.131  0.2849 -0.4124  0.4632
13490TIP3   OH261960   4.144   4.113   5.259 -0.1758 -0.2256  0.1609
13490TIP3    H161961   4.187   4.173   5.198 -1.3380 -0.1451 -0.6276
13490TIP3    H261962   4.140   4.160   5.342  1.1838 -0.2269  0.2414
13491TIP3   OH261963   5.472   0.480  12.879  0.5247  0.4097 -0.3753
13491TIP3    H161964   5.452   0.458  12.970  0.2945 -0.0331 -0.5278
13491TIP3    H261965   5.486   0.575  12.879  2.1667  0.1898  0.4168
13492TIP3   OH261966   3.701   6.644  13.294  0.0842 -0.4181 -0.2579
13492TIP3    H161967   3.794   6.660  13.314  0.2678 -1.0066 -0.6283
13492TIP3    H261968   3.688   6.551  13.313 -0.2092 -0.5429 -1.0492
13493TIP3   OH261969   5.931   6.221  13.317 -0.0854 -0.1083  0.1532
13493TIP3    H161970   6.011   6.223  13.265 -0.8752 -0.7603 -1.1607
13493TIP3    H261971   5.902   6.312  13.320 -0.3128 -0.1120 -1.0723
13494TIP3   OH261972   2.234   4.492   0.814  0.1298 -0.2984 -0.0583
13494TIP3    H161973   2.187   4.451   0.887  2.4037 -3.5977 -0.1766
13494TIP3    H261974   2.227   4.428   0.743  2.3368  0.3690 -0.9543
13495TIP3   OH261975   6.523   1.487   0.083 -0.2095 -0.8198 -0.0402
13495TIP3    H161976   6.609   1.446   0.084  0.0635 -0.2636  1.1472
13495TIP3    H261977   6.539   1.579   0.106 -0.8897 -0.1870 -1.9381
13496TIP3   OH261978   3.825   6.210  15.304  0.4603 -0.0006  0.5769
13496TIP3    H161979   3.757   6.231  15.241  1.0915  1.4512  0.3407
13496TIP3    H261980   3.905   6.246  15.266  1.7807 -3.3560 -0.0863
13497TIP3   OH261981   2.989   2.780  11.312  0.4023  0.2267 -0.0388
13497TIP3    H161982   2.957   2.691  11.327  0.1964  0.0033 -1.6199
13497TIP3    H261983   2.933   2.815  11.243  0.2567  1.7300  0.7929
13498TIP3   OH261984   6.336   1.891   0.516  0.4599 -0.2459 -0.1035
13498TIP3    H161985   6.257   1.868   0.467  0.8945  0.2984 -1.1011
13498TIP3    H261986   6.351   1.817   0.575 -1.4152  0.1522  0.9306
13499TIP3   OH261987   1.675   4.120   3.250 -0.2563  0.0740 -1.1554
13499TIP3    H161988   1.644   4.167   3.173 -2.5215 -2.5213 -1.9878
13499TIP3    H261989   1.641   4.170   3.324 -2.2349  0.0709 -1.9935
13500TIP3   OH261990   2.042   4.651   4.117  0.5604 -0.3649  0.4390
13500TIP3    H161991   2.123   4.648   4.167  0.8288 -0.7774 -0.0145
13500TIP3    H261992   1.973   4.637   4.182  0.6912  1.9159  1.1674
13501TIP3   OH261993   4.457   4.342  11.542  0.1682 -0.0094 -0.3895
13501TIP3    H161994   4.446   4.288  11.463 -2.4288 -1.3621  0.7631
13501TIP3    H261995   4.373   4.387  11.552  0.7228  0.7457  1.1658
13502TIP3   OH261996   4.736   0.737   5.081 -0.2127 -0.1226  0.2683
13502TIP3    H161997   4.787   0.665   5.117  0.1587  0.5477  1.1125
13502TIP3    H261998   4.735   0.803   5.150  1.3442  1.6203 -1.2797
13503TIP3   OH261999   4.319   4.649   6.158 -0.5893 -0.5512 -0.0750
13503TIP3    H162000   4.332   4.573   6.214 -1.0311  0.6624  1.7873
13503TIP3    H262001   4.271   4.711   6.213 -0.8399  0.8202 -1.7431
13504TIP3   OH262002   2.255   1.076   3.949  0.0124 -0.2736  0.0329
13504TIP3    H162003   2.190   1.141   3.971  0.1464 -0.2882  0.4893
13504TIP3    H262004   2.311   1.118   3.883 -0.0435 -0.0152  0.1510
13505TIP3   OH262005   5.493   2.590  16.918  0.2080  0.3844  0.1139
13505TIP3    H162006   5.512   2.601  17.012 -0.6241  0.4495  0.2876
13505TIP3    H262007   5.493   2.495  16.905 -0.0638  0.3613  0.2682
13506TIP3   OH262008   3.698   5.477  12.789  0.1705  0.1459  0.4897
13506TIP3    H162009   3.706   5.403  12.729 -0.1864  1.7479 -1.6508
13506TIP3    H262010   3.662   5.439  12.869  2.5285 -2.4333  0.4931
13507TIP3   OH262011   5.086   3.447  13.388  0.2498 -0.0111 -0.3217
13507TIP3    H162012   4.993   3.441  13.367  0.0694  0.0205  0.4756
13507TIP3    H262013   5.114   3.356  13.396  0.6223 -0.0841 -1.9410
13508TIP3   OH262014   2.162   3.011  13.732 -0.1218  0.0883 -0.1898
13508TIP3    H162015   2.139   2.925  13.766  1.9765 -0.0406  1.0227
13508TIP3    H262016   2.216   2.993  13.655 -1.6840  0.3945 -1.4369
13509TIP3   OH262017   5.518   0.430   4.153 -0.1155  0.3944 -0.1043
13509TIP3    H162018   5.533   0.448   4.060  1.6645 -0.8492 -0.0983
13509TIP3    H262019   5.583   0.364   4.175 -1.7195 -0.7121  1.5869
13510TIP3   OH262020   6.156   4.090  16.163 -0.6113  0.1535  0.4183
13510TIP3    H162021   6.188   4.001  16.175 -3.0068 -0.9213 -0.7290
13510TIP3    H262022   6.204   4.123  16.087 -1.1405 -0.9089 -0.4031
13511TIP3   OH262023   6.475   2.239   0.812  0.2453 -0.1927  0.7219
13511TIP3    H162024   6.491   2.305   0.879  0.3134  1.0719 -0.5011
13511TIP3    H262025   6.561   2.223   0.772 -0.2717  1.6174 -1.3212
13512TIP3   OH262026   2.497   2.888  15.153  0.5655  0.0943  0.1859
13512TIP3    H162027   2.404   2.883  15.174  0.2255 -1.2605 -1.3984
13512TIP3    H262028   2.516   2.981  15.145 -0.2140  0.4649  2.2147
13513TIP3   OH262029   0.393   5.972   2.505  0.0760  0.6330  0.0938
13513TIP3    H162030   0.389   5.879   2.526 -0.0768  0.0843 -2.0595
13513TIP3    H262031   0.381   6.017   2.589 -0.7222 -1.2758  1.0583
13514TIP3   OH262032   3.885   3.562  15.248  0.1922  0.1202  0.1158
13514TIP3    H162033   3.964   3.615  15.254  1.2085 -1.3564  0.3397
13514TIP3    H262034   3.894   3.515  15.166 -1.0220  0.7523 -0.4100
13515TIP3   OH262035   2.840   4.889  16.298  0.5697  0.6557 -0.4107
13515TIP3    H162036   2.926   4.931  16.304 -0.6338  3.3934 -0.8195
13515TIP3    H262037   2.778   4.962  16.291 -1.9491 -1.1690  1.3136
13516TIP3   OH262038   2.339   1.580   4.446  0.2017  0.1745 -0.3337
13516TIP3    H162039   2.354   1.616   4.359 -2.0684  1.0815 -0.4193
13516TIP3    H262040   2.366   1.649   4.506 -1.2719  0.8913 -0.4387
13517TIP3   OH262041   5.808   1.174  12.460 -0.6214 -0.0258 -0.1990
13517TIP3    H162042   5.847   1.120  12.528 -0.3864  1.8120  1.1901
13517TIP3    H262043   5.734   1.121  12.428 -0.1402 -1.3431  0.7566
13518TIP3   OH262044   3.876   4.844   5.939  0.5534  0.0240  0.0829
13518TIP3    H162045   3.803   4.878   5.886  1.5743  3.4684  0.6159
13518TIP3    H262046   3.867   4.890   6.022  1.6507 -1.8002  1.2602
13519TIP3   OH262047   3.831   6.122   4.408  0.2702 -0.5928 -0.4220
13519TIP3    H162048   3.808   6.154   4.495  0.5204 -1.1325 -0.1565
13519TIP3    H262049   3.840   6.028   4.418  0.8801 -0.5911 -0.9027
13520TIP3   OH262050   4.312   0.076   4.941 -0.5128  0.0842  0.5340
13520TIP3    H162051   4.405   0.056   4.926 -0.6696  0.0521 -0.5084
13520TIP3    H262052   4.310   0.170   4.957 -0.3355  0.1452  0.2090
13521TIP3   OH262053   2.120   2.355  15.163  0.1551 -0.2736  0.1450
13521TIP3    H162054   2.036   2.388  15.130 -1.2331 -0.4422  3.2270
13521TIP3    H262055   2.098   2.310  15.244  3.3128  0.0381  1.2947
13522TIP3   OH262056   3.059   4.251   5.094  0.1887 -0.1134  0.1815
13522TIP3    H162057   3.085   4.223   5.006 -0.6904 -1.1121  0.2157
13522TIP3    H262058   3.141   4.267   5.140  0.6901 -1.0650 -0.3617
13523TIP3   OH262059   4.998   6.249   1.286  0.0545 -0.3719 -0.2626
13523TIP3    H162060   5.073   6.205   1.245  0.4073 -0.3342  0.3401
13523TIP3    H262061   5.008   6.233   1.379  0.5036  1.4411  0.0415
13524TIP3   OH262062   3.252   0.752   2.436  0.0723  0.0377 -0.5282
13524TIP3    H162063   3.211   0.669   2.459  0.1264 -0.2182 -1.3398
13524TIP3    H262064   3.210   0.777   2.354  0.7104  0.3622 -0.7550
13525TIP3   OH262065   6.581   5.517  12.830  0.0503  0.4538  0.5315
13525TIP3    H162066   6.512   5.552  12.886 -1.5464  1.5879 -1.9327
13525TIP3    H262067   6.591   5.583  12.761  1.2907 -1.1921 -0.9446
13526TIP3   OH262068   5.946   3.759   0.542 -0.0242 -0.1008  0.2149
13526TIP3    H162069   5.929   3.743   0.635  1.9001  0.8556  0.7830
13526TIP3    H262070   5.947   3.672   0.502  0.3275 -0.6204  1.3272
13527TIP3   OH262071   4.044   4.241   3.755 -0.7206 -0.0140 -0.1178
13527TIP3    H162072   3.994   4.268   3.832  0.3609 -0.2472  0.6830
13527TIP3    H262073   4.087   4.159   3.781  1.4710  1.0582 -0.1371
13528TIP3   OH262074   3.456   4.225   1.489  0.4382 -0.1049  0.2997
13528TIP3    H162075   3.521   4.156   1.501  1.2452  0.6120  0.1411
13528TIP3    H262076   3.470   4.284   1.564 -1.3369 -0.9317  1.3590
13529TIP3   OH262077   4.188   6.690   2.586 -0.0905  0.3578  0.5864
13529TIP3    H162078   4.263   6.655   2.538 -0.5844 -0.0976  0.1254
13529TIP3    H262079   4.216   6.775   2.617  0.9747 -0.2310  1.2952
13530TIP3   OH262080   6.149   0.514   4.362  0.0295 -0.5569  0.2571
13530TIP3    H162081   6.100   0.518   4.444  2.3069  2.6603  1.6722
13530TIP3    H262082   6.104   0.575   4.304 -0.1897 -1.0261 -0.0764
13531TIP3   OH262083   3.468   3.164  11.825 -0.3055  0.0884 -0.3714
13531TIP3    H162084   3.425   3.096  11.774  0.8882 -0.5433 -0.5600
13531TIP3    H262085   3.399   3.198  11.883 -1.1615 -0.5668 -0.9873
13532TIP3   OH262086   3.179   6.510  14.816 -0.4821  0.5041  0.0271
13532TIP3    H162087   3.257   6.512  14.871  0.6199 -0.1014 -1.4485
13532TIP3    H262088   3.116   6.457  14.865  1.7803 -3.4175 -0.8534
13533TIP3   OH262089   4.194   4.330   4.649  0.1639  0.9033  0.2047
13533TIP3    H162090   4.118   4.284   4.615  1.0673 -0.2030 -0.3893
13533TIP3    H262091   4.210   4.401   4.586 -0.0158  0.7774  0.0170
13534TIP3   OH262092   2.467   2.896   3.525  0.4420  0.1156 -0.4684
13534TIP3    H162093   2.430   2.809   3.515 -0.1589  0.1353  1.2425
13534TIP3    H262094   2.554   2.891   3.486 -0.4496 -0.5676 -2.5135
13535TIP3   OH262095   4.755   1.275   0.182  0.0924 -0.0566  0.2772
13535TIP3    H162096   4.848   1.294   0.171 -0.1216  0.2472 -1.3350
13535TIP3    H262097   4.711   1.342   0.129 -0.9749 -1.0552 -0.1423
13536TIP3   OH262098   3.276   5.852   1.228  0.0331 -0.4451 -0.2907
13536TIP3    H162099   3.227   5.912   1.284  0.8424  0.4597 -0.5115
13536TIP3    H262100   3.248   5.765   1.255 -0.9627  0.0240  0.2372
13537TIP3   OH262101   5.764   5.728  12.127 -0.4024  0.9103  0.2248
13537TIP3    H162102   5.756   5.798  12.061  1.8511  0.8402 -0.1879
13537TIP3    H262103   5.793   5.652  12.077  0.6749  0.6714  1.1895
13538TIP3   OH262104   0.217   5.285   2.356 -0.0374 -0.3711  0.2059
13538TIP3    H162105   0.284   5.293   2.424  1.3526  1.0876 -1.2427
13538TIP3    H262106   0.157   5.358   2.372 -0.3306 -0.6616  0.4697
13539TIP3   OH262107   5.817   6.791   4.194  0.7539 -0.1484 -0.6566
13539TIP3    H162108   5.815   6.748   4.280  0.7724  0.2048 -0.4740
13539TIP3    H262109   5.809   6.884   4.215  2.9567  0.1297 -0.9103
13540TIP3   OH262110   6.108   2.267  11.946 -0.2137  0.4543  0.2506
13540TIP3    H162111   6.106   2.310  11.860  0.0020 -0.6846 -0.3347
13540TIP3    H262112   6.016   2.256  11.970 -0.2736  0.4927  0.0356
13541TIP3   OH262113   0.416   3.019   5.293 -0.0174 -0.3777 -0.3201
13541TIP3    H162114   0.410   3.113   5.278 -0.6525 -0.2987  0.4023
13541TIP3    H262115   0.510   3.000   5.293  0.0986 -0.1120 -2.6711
13542TIP3   OH262116   3.344   3.520  15.488 -0.5946  0.1020  0.2240
13542TIP3    H162117   3.375   3.457  15.553  0.7081  0.4749 -0.0204
13542TIP3    H262118   3.289   3.581  15.538  0.8667  0.7282  1.1059
13543TIP3   OH262119   4.859   5.647  15.542 -0.3594 -0.0509  0.1059
13543TIP3    H162120   4.853   5.650  15.638 -2.6711 -1.3871  0.0710
13543TIP3    H262121   4.807   5.572  15.517 -0.0888  0.4730 -2.2610
13544TIP3   OH262122   5.213   1.602   3.357  0.1305 -0.2122  0.2782
13544TIP3    H162123   5.283   1.567   3.301  1.9663  0.4487  2.0367
13544TIP3    H262124   5.133   1.587   3.307  1.6197  0.0836 -2.3771
13545TIP3   OH262125   5.679   3.972  16.452  0.1295 -0.5521  0.2109
13545TIP3    H162126   5.715   4.005  16.534  0.0669 -1.5098  0.6337
13545TIP3    H262127   5.751   3.981  16.389 -0.1908  1.2957  0.0459
13546TIP3   OH262128   1.002   2.242  11.446  0.2278  0.3857 -0.3449
13546TIP3    H162129   1.024   2.216  11.536 -0.2854 -2.5342 -0.9428
13546TIP3    H262130   1.012   2.337  11.445  0.5766  0.4856  2.6984
13547TIP3   OH262131   5.854   0.124  10.747  0.4977  0.1649  0.4256
13547TIP3    H162132   5.926   0.165  10.699 -1.0475  0.4820 -1.7434
13547TIP3    H262133   5.788   0.193  10.754  0.1508 -0.2753  1.9327
13548TIP3   OH262134   1.305   1.484   0.645  0.3056 -0.4430 -0.0480
13548TIP3    H162135   1.368   1.419   0.677  1.1380  0.3892  0.0585
13548TIP3    H262136   1.331   1.500   0.554  0.3604  0.0263  0.0470
13549TIP3   OH262137   3.719   1.107  12.045 -0.6755  0.5891  0.3216
13549TIP3    H162138   3.661   1.053  11.991 -0.3110  0.5905 -0.0732
13549TIP3    H262139   3.704   1.196  12.015  0.2927  0.4853 -0.5051
13550TIP3   OH262140   2.404   4.582  16.842 -0.0547 -0.4674 -0.3298
13550TIP3    H162141   2.378   4.637  16.915  1.0936 -0.2457 -0.0691
13550TIP3    H262142   2.402   4.640  16.766  0.4336 -0.2536 -0.1802
13551TIP3   OH262143   5.691   1.772   0.586  0.3523 -0.8716  0.2262
13551TIP3    H162144   5.736   1.693   0.615  1.2054 -0.2807  0.5612
13551TIP3    H262145   5.600   1.744   0.572  0.2613 -1.5600  1.8986
13552TIP3   OH262146   4.608   2.633  14.383  0.7930  0.1443 -0.5290
13552TIP3    H162147   4.572   2.680  14.458  0.8813 -2.0887  1.0078
13552TIP3    H262148   4.687   2.683  14.359  0.7079  0.9563  0.7887
13553TIP3   OH262149   4.827   0.266   4.252 -0.0232  0.2629 -0.2506
13553TIP3    H162150   4.788   0.345   4.290  1.2708  1.2453 -0.8924
13553TIP3    H262151   4.752   0.210   4.231 -1.0340  1.7173 -0.6535
13554TIP3   OH262152   1.621   3.615   0.014  0.5112 -0.0740  0.4589
13554TIP3    H162153   1.678   3.559   0.067  2.1433  0.6909 -0.4424
13554TIP3    H262154   1.634   3.703   0.050 -0.8725  0.0018  0.8607
13555TIP3   OH262155   3.526   4.417  13.538 -0.0401 -0.4037 -0.3837
13555TIP3    H162156   3.607   4.377  13.568 -0.8961 -1.2487  0.9020
13555TIP3    H262157   3.486   4.351  13.481  0.8723  0.6172 -2.2933
13556TIP3   OH262158   4.250   4.559  11.598 -0.2568  0.5899  0.3963
13556TIP3    H162159   4.177   4.527  11.651  0.1211  1.1548  1.2805
13556TIP3    H262160   4.314   4.590  11.662 -0.6287  3.2182 -0.3773
13557TIP3   OH262161   0.233   3.636  16.746  0.4890  0.8208  0.8021
13557TIP3    H162162   0.229   3.731  16.756  0.2792  0.8916  0.0709
13557TIP3    H262163   0.149   3.605  16.780  0.2465  0.9639  0.3417
13558TIP3   OH262164   2.509   1.770  14.585 -0.2920 -0.0180 -0.1260
13558TIP3    H162165   2.426   1.732  14.558 -0.5445  0.6216 -0.2578
13558TIP3    H262166   2.569   1.749  14.513 -0.3683 -0.3517 -0.0962
13559TIP3   OH262167   2.916   4.753   4.471  0.4244 -0.2234  0.0735
13559TIP3    H162168   2.920   4.839   4.513 -0.1420  0.1495 -0.6067
13559TIP3    H262169   2.912   4.772   4.377 -1.1438 -0.9318 -0.0429
13560TIP3   OH262170   4.341   6.017   4.143 -0.0225  0.4093  0.0504
13560TIP3    H162171   4.287   6.083   4.186 -1.2958 -0.6575  0.1488
13560TIP3    H262172   4.327   6.033   4.049 -0.7167 -0.0330  0.0794
13561TIP3   OH262173   4.357   0.713  14.146  0.3144  0.0779  0.3192
13561TIP3    H162174   4.298   0.788  14.150  0.8664  0.5234  0.1270
13561TIP3    H262175   4.301   0.640  14.118 -0.3107  0.3192  0.9157
13562TIP3   OH262176   4.708   1.310   5.174  0.0474  0.1500  0.3708
13562TIP3    H162177   4.694   1.375   5.242 -3.3900  0.5891 -0.6066
13562TIP3    H262178   4.715   1.227   5.221 -0.4191  0.6551  1.3444
13563TIP3   OH262179   2.928   2.297  11.793  0.0040 -0.1434  0.8559
13563TIP3    H162180   2.980   2.354  11.736  0.1015  0.9444  1.9814
13563TIP3    H262181   2.982   2.284  11.871  0.1968 -2.2351  0.4300
13564TIP3   OH262182   3.361   5.341  10.505 -0.1449  0.5884  0.5380
13564TIP3    H162183   3.421   5.292  10.562  1.9788  0.2831 -1.8150
13564TIP3    H262184   3.404   5.426  10.492  0.4391 -0.0349 -2.0973
13565TIP3   OH262185   3.846   6.855   4.759 -0.2388  0.2878 -0.1372
13565TIP3    H162186   3.862   6.860   4.854 -1.1352 -0.7931  0.1037
13565TIP3    H262187   3.929   6.824   4.723 -0.0411  0.2088  0.3694
13566TIP3   OH262188   2.216   6.762  11.184  0.1282 -0.2940 -0.2907
13566TIP3    H162189   2.213   6.747  11.090 -2.2236 -0.0792 -0.3318
13566TIP3    H262190   2.264   6.688  11.220 -0.1085 -1.0718 -1.5497
13567TIP3   OH262191   6.157   3.447  12.116 -0.2693 -0.0224 -0.4685
13567TIP3    H162192   6.102   3.369  12.106 -0.1459 -0.1476 -0.1623
13567TIP3    H262193   6.165   3.459  12.210 -0.5534  0.5525 -0.5113
13568TIP3   OH262194   3.845   5.792   3.737  0.3336  0.1448 -0.0585
13568TIP3    H162195   3.794   5.769   3.815 -1.5209  0.4172 -1.1291
13568TIP3    H262196   3.910   5.722   3.730  0.7391  0.2616  1.8542
13569TIP3   OH262197   5.049   2.414   1.225  0.0565 -0.0568 -0.1582
13569TIP3    H162198   4.968   2.464   1.241 -0.2198 -0.2312 -0.9413
13569TIP3    H262199   5.102   2.472   1.171 -0.1371 -0.4831 -0.8144
13570TIP3   OH262200   2.324   6.545  11.307 -0.5119 -0.5269 -0.0793
13570TIP3    H162201   2.290   6.457  11.292  0.7430 -1.1083  0.3096
13570TIP3    H262202   2.377   6.537  11.387 -0.0513  0.4816 -0.2597
13571TIP3   OH262203   5.998   6.271   4.351  0.2848 -0.8258  0.0690
13571TIP3    H162204   5.957   6.198   4.305  3.4586 -1.8661 -1.4200
13571TIP3    H262205   5.950   6.278   4.433 -1.9857 -2.6328 -0.9892
13572TIP3   OH262206   4.305   3.197   2.892  0.8902 -0.0513 -0.3043
13572TIP3    H162207   4.306   3.201   2.796  0.3858  2.2163 -0.2657
13572TIP3    H262208   4.212   3.199   2.914  0.9660 -1.5193  0.2478
13573TIP3   OH262209   4.795   5.573  14.743  0.1217  0.5906  0.2002
13573TIP3    H162210   4.821   5.638  14.809 -0.3608  0.3550  0.6330
13573TIP3    H262211   4.702   5.587  14.731 -0.1905 -0.5912  0.9666
13574TIP3   OH262212   0.565   6.506  12.958 -0.7713  0.1259  0.5597
13574TIP3    H162213   0.526   6.581  12.914  1.2937  0.3619 -1.0142
13574TIP3    H262214   0.554   6.433  12.896  2.3053  0.5009 -0.5801
13575TIP3   OH262215   4.407   1.919   5.130  0.3357  0.2656 -0.2769
13575TIP3    H162216   4.453   1.927   5.213 -1.0346  0.2673  0.5083
13575TIP3    H262217   4.469   1.950   5.065  0.9756  1.4992  0.8874
13576TIP3   OH262218   6.055   0.211  16.690  0.1021  0.6786 -0.2623
13576TIP3    H162219   6.096   0.259  16.762  0.6743  0.3575 -0.3662
13576TIP3    H262220   6.106   0.130  16.684 -0.5399  0.2796 -0.4073
13577TIP3   OH262221   1.797   5.801  13.406  0.2498 -0.0401 -0.1271
13577TIP3    H162222   1.751   5.845  13.334 -2.5217 -1.5237  0.5977
13577TIP3    H262223   1.813   5.870  13.470 -0.3287  0.6851 -0.7416
13578TIP3   OH262224   1.511   5.850  16.794 -0.1280 -0.1032 -0.6588
13578TIP3    H162225   1.417   5.846  16.812 -0.2045 -0.2487 -1.0893
13578TIP3    H262226   1.538   5.936  16.825 -0.3301 -0.2035 -0.1948
13579TIP3   OH262227   1.711   0.212   5.800  0.0938 -0.0868  0.0910
13579TIP3    H162228   1.674   0.293   5.836  1.4682  0.6445 -0.1058
13579TIP3    H262229   1.752   0.169   5.875 -0.5357 -0.5653  0.1718
13580TIP3   OH262230   4.860   2.149   2.556 -0.4251  0.2879  0.0582
13580TIP3    H162231   4.943   2.173   2.598  1.8408 -2.3052 -2.4852
13580TIP3    H262232   4.837   2.227   2.504  0.4431  1.0255  0.7356
13581TIP3   OH262233   4.296   5.110   4.196 -0.3617  0.1652  0.3691
13581TIP3    H162234   4.276   5.203   4.184  0.9573  0.4916  0.4693
13581TIP3    H262235   4.375   5.110   4.251 -0.8727 -1.0444  1.1391
13582TIP3   OH262236   0.815   1.522  12.738  0.0584 -0.1980 -0.3381
13582TIP3    H162237   0.878   1.459  12.704 -0.1114  0.3432 -1.7200
13582TIP3    H262238   0.859   1.607  12.728 -0.8294  0.1702 -1.1977
13583TIP3   OH262239   2.496   2.301   2.599  0.3479  0.0955 -0.1408
13583TIP3    H162240   2.468   2.216   2.565  0.9272 -1.1665  2.2692
13583TIP3    H262241   2.415   2.349   2.613 -0.0057 -0.1049 -1.3770
13584TIP3   OH262242   0.381   4.388  12.958  0.2709 -0.9495  0.2237
13584TIP3    H162243   0.454   4.367  12.898 -0.8180 -1.5274 -0.9467
13584TIP3    H262244   0.327   4.310  12.957 -0.2630 -0.6004  1.2558
13585TIP3   OH262245   2.636   2.114   4.917 -0.1823 -0.0881  0.1620
13585TIP3    H162246   2.654   2.021   4.930 -0.8784 -0.1837  0.4649
13585TIP3    H262247   2.660   2.155   5.000 -0.6530 -0.1172  0.3163
13586TIP3   OH262248   3.657   4.615  12.553 -0.2557  0.0625  0.3771
13586TIP3    H162249   3.647   4.633  12.646  0.7930 -1.1125  0.7479
13586TIP3    H262250   3.734   4.666  12.527  0.4153 -0.8384  0.5462
13587TIP3   OH262251   1.497   0.101  15.267 -0.1536 -0.1857  0.3805
13587TIP3    H162252   1.496   0.197  15.269 -1.6177 -0.0780 -1.7544
13587TIP3    H262253   1.406   0.077  15.245  0.7170 -1.9059 -1.7307
13588TIP3   OH262254   1.197   6.670   4.379  0.2465 -0.3930 -0.0815
13588TIP3    H162255   1.284   6.631   4.367  0.9400  0.9890  0.3097
13588TIP3    H262256   1.183   6.668   4.474  0.0726 -0.1374 -0.1029
13589TIP3   OH262257   0.886   0.229  13.572 -0.5548 -0.0979  0.2622
13589TIP3    H162258   0.979   0.239  13.590 -0.2511 -1.0210 -0.7355
13589TIP3    H262259   0.881   0.163  13.503 -1.9373  0.0679  0.1693
13590TIP3   OH262260   4.052   0.370   3.970  0.2109  0.2289  0.7808
13590TIP3    H162261   4.093   0.321   4.041 -0.4703  0.7637  1.5617
13590TIP3    H262262   4.125   0.414   3.926  0.9900 -2.2503 -0.6065
13591TIP3   OH262263   3.894   0.344  13.540 -0.6302 -0.2169 -0.0417
13591TIP3    H162264   3.810   0.363  13.583 -0.7708  1.0085 -0.7991
13591TIP3    H262265   3.902   0.412  13.473  0.8892 -0.4201 -0.0988
13592TIP3   OH262266   0.957   4.481  12.736  0.7078  0.0826  0.4208
13592TIP3    H162267   0.962   4.491  12.641 -1.0787 -0.1059  0.2771
13592TIP3    H262268   1.034   4.428  12.758  1.6040  0.8210 -0.7876
13593TIP3   OH262269   3.306   3.311  11.466 -0.4299 -0.1323 -0.5322
13593TIP3    H162270   3.304   3.343  11.557  0.1993  0.0693 -0.5837
13593TIP3    H262271   3.359   3.376  11.419 -0.7821 -0.2173 -1.0562
13594TIP3   OH262272   3.602   3.496   1.875 -0.0565 -0.1507  0.4871
13594TIP3    H162273   3.607   3.581   1.917 -1.5631 -0.3811  1.2012
13594TIP3    H262274   3.674   3.496   1.812  0.0836  1.5677  0.5978
13595TIP3   OH262275   3.357   0.773  10.271 -0.9805  0.6133  0.2538
13595TIP3    H162276   3.303   0.845  10.240 -0.3903  0.5765 -0.9253
13595TIP3    H262277   3.446   0.807  10.270 -0.4455 -0.6212 -2.0920
13596TIP3   OH262278   0.491   2.490  12.329  0.0517 -0.1558 -0.1325
13596TIP3    H162279   0.484   2.478  12.424 -1.0278  1.2696  0.0010
13596TIP3    H262280   0.499   2.401  12.294  3.4049 -0.6400  1.4488
13597TIP3   OH262281   4.093   2.302  11.459  0.0430  0.3972 -0.0853
13597TIP3    H162282   4.083   2.240  11.387 -1.2441  1.7447 -1.1326
13597TIP3    H262283   4.188   2.308  11.472  0.2055 -1.3744 -0.2939
13598TIP3   OH262284   1.410   4.153  11.352  0.0187  0.2180 -0.3514
13598TIP3    H162285   1.440   4.219  11.289  0.5779  1.4032  1.1053
13598TIP3    H262286   1.472   4.081  11.343  0.9812  1.0026 -0.1424
13599TIP3   OH262287   3.163   2.729  11.525  0.6556 -0.2287  0.1196
13599TIP3    H162288   3.249   2.748  11.488  1.2934  0.3452  1.8151
13599TIP3    H262289   3.101   2.767  11.463  1.6913  1.0160 -0.1786
13600TIP3   OH262290   5.943   5.485  11.357  0.5574 -0.0090  0.2708
13600TIP3    H162291   5.888   5.458  11.431  2.4671 -0.9906  1.4053
13600TIP3    H262292   5.986   5.404  11.328 -0.7656  0.1540 -2.5620
13601TIP3   OH262293   6.285   0.914  10.925 -0.2591  0.1941 -0.2785
13601TIP3    H162294   6.256   0.823  10.916  0.1680  0.0458 -0.1758
13601TIP3    H262295   6.364   0.920  10.871  0.3316  0.2118  0.5694
13602TIP3   OH262296   4.329   5.037  17.035 -0.5846  0.8382  0.4531
13602TIP3    H162297   4.272   5.019  16.961 -0.0538 -0.5032  0.3422
13602TIP3    H262298   4.394   5.099  17.001  0.4638 -0.7710 -0.6531
13603TIP3   OH262299   5.002   3.816   4.764  0.0426  0.9474 -0.0473
13603TIP3    H162300   5.074   3.834   4.824 -0.1465  0.8008  0.2282
13603TIP3    H262301   4.964   3.902   4.746  1.4918  1.2669 -1.7491
13604TIP3   OH262302   6.496   0.911   3.857 -0.4332 -0.3315  0.3342
13604TIP3    H162303   6.487   0.964   3.778 -1.4578  0.1323  0.7354
13604TIP3    H262304   6.448   0.961   3.924  0.4119 -0.7114  1.2481
13605TIP3   OH262305   6.773   3.912  16.956  0.6110  0.3295  0.2443
13605TIP3    H162306   6.855   3.872  16.985 -0.9856 -1.4616  2.6557
13605TIP3    H262307   6.709   3.840  16.956 -0.9402  1.5655 -1.9644
13606TIP3   OH262308   0.815   0.823   4.641  0.0972 -0.7294 -0.0332
13606TIP3    H162309   0.870   0.859   4.572  1.9549 -0.5948  1.4342
13606TIP3    H262310   0.801   0.897   4.701 -1.0588 -0.9707  0.0118
13607TIP3   OH262311   3.808   4.666  13.451  0.1237  0.0639 -0.1799
13607TIP3    H162312   3.753   4.737  13.420  1.5074  0.5852 -1.5949
13607TIP3    H262313   3.806   4.602  13.380 -0.6977 -1.1245  0.8622
13608TIP3   OH262314   1.299   5.628   4.329 -0.2220 -0.1583 -0.8775
13608TIP3    H162315   1.265   5.540   4.315  0.1776 -0.3044 -0.9518
13608TIP3    H262316   1.394   5.616   4.336 -0.2826  0.0576  0.7338
13609TIP3   OH262317   5.640   2.281   5.888 -0.2550  0.0459 -0.2437
13609TIP3    H162318   5.665   2.223   5.816 -1.9081  0.4862 -1.2339
13609TIP3    H262319   5.545   2.289   5.880 -0.3530  0.9416  1.3776
13610TIP3   OH262320   3.810   5.531  17.005  0.1456  0.8611  0.3233
13610TIP3    H162321   3.856   5.560  16.927 -0.0945 -0.1551 -0.2102
13610TIP3    H262322   3.722   5.568  16.996 -0.8584 -1.6995 -1.4506
13611TIP3   OH262323   3.713   4.528  10.571  0.1201  0.0490  0.1926
13611TIP3    H162324   3.745   4.445  10.534  0.0137  0.6147 -1.2382
13611TIP3    H262325   3.783   4.557  10.629  1.2678  0.1789 -1.2193
13612TIP3   OH262326   4.237   6.872   4.655  0.5641 -0.2628  0.0052
13612TIP3    H162327   4.181   6.798   4.634 -0.3899  0.2559  0.6421
13612TIP3    H262328   4.224   6.887   4.749 -1.3951  2.3596 -0.5612
13613TIP3   OH262329   0.172   4.222  12.331  0.5757 -0.0853  0.0839
13613TIP3    H162330   0.124   4.262  12.403 -0.9314  0.8468 -1.3631
13613TIP3    H262331   0.117   4.239  12.254  1.9450 -1.3583 -1.2231
13614TIP3   OH262332   2.363   2.295   3.373  0.2279 -0.2251  0.2182
13614TIP3    H162333   2.334   2.364   3.313 -2.3305 -0.1494  1.4004
13614TIP3    H262334   2.440   2.258   3.331  0.0312  1.4766 -1.8490
13615TIP3   OH262335   2.787   4.302   3.870 -0.4836 -0.5186 -0.6762
13615TIP3    H162336   2.871   4.337   3.900 -1.6971  1.5420  0.5440
13615TIP3    H262337   2.791   4.308   3.775  0.1571  1.1526 -0.5852
13616TIP3   OH262338   3.409   0.869  12.228 -0.3068 -0.6439  0.2117
13616TIP3    H162339   3.454   0.841  12.149  0.3127 -1.7496  0.9334
13616TIP3    H262340   3.475   0.864  12.297 -1.6662 -3.0816  1.4659
13617TIP3   OH262341   1.651   0.498   2.717 -0.2242  0.0004 -0.1507
13617TIP3    H162342   1.696   0.523   2.636  0.2391 -1.9065 -0.5216
13617TIP3    H262343   1.568   0.461   2.687 -0.1595 -0.4804  0.2682
13618TIP3   OH262344   1.959   1.210   3.705 -0.7630  0.4628  0.4147
13618TIP3    H162345   1.886   1.260   3.742  0.6860  1.9544  1.3758
13618TIP3    H262346   2.001   1.270   3.644 -0.5486 -0.5188 -0.4328
13619TIP3   OH262347   0.309   0.353   5.508 -0.0713 -0.1915  0.0013
13619TIP3    H162348   0.215   0.367   5.516  0.1684  0.7217  1.6644
13619TIP3    H262349   0.333   0.306   5.588  0.8497 -0.6374 -0.5213
13620TIP3   OH262350   6.599   4.561   1.679  0.4132  0.5410  0.4650
13620TIP3    H162351   6.678   4.541   1.729  0.1984  0.7482  0.8909
13620TIP3    H262352   6.529   4.512   1.723  0.3741  0.0162 -0.1647
13621TIP3   OH262353   5.298   3.466   5.085 -0.3852  0.1565  0.1077
13621TIP3    H162354   5.261   3.512   5.011 -1.1666 -0.4860  0.0796
13621TIP3    H262355   5.259   3.378   5.081  1.2535 -0.5971  0.0002
13622TIP3   OH262356   0.724   4.870   4.012 -0.2610 -0.1757 -0.0544
13622TIP3    H162357   0.777   4.791   4.027 -0.5593 -0.0533  1.8482
13622TIP3    H262358   0.788   4.940   3.998  0.0111 -0.5608 -0.8265
13623TIP3   OH262359   5.119   6.464   4.594 -0.2325 -0.5217 -0.2005
13623TIP3    H162360   5.196   6.449   4.540 -0.1427  0.4505 -0.3714
13623TIP3    H262361   5.118   6.559   4.608 -2.5093 -0.2216 -1.8781
13624TIP3   OH262362   0.559   1.385   0.668 -0.1379 -0.2841 -0.0215
13624TIP3    H162363   0.630   1.436   0.708 -0.4463  1.4035 -1.4993
13624TIP3    H262364   0.600   1.340   0.594 -0.5319  0.5879 -0.7972
13625TIP3   OH262365   6.730   5.527  13.815  0.0546 -0.2457  0.5706
13625TIP3    H162366   6.818   5.496  13.796  0.8097  0.9933  1.8897
13625TIP3    H262367   6.722   5.610  13.767 -1.4468 -1.6356 -1.7925
13626TIP3   OH262368   6.390   4.501   3.220  0.0791  0.5089  1.0547
13626TIP3    H162369   6.360   4.499   3.129  0.7724  0.0698  0.8291
13626TIP3    H262370   6.485   4.494   3.213  0.1527  0.7377  1.8073
13627TIP3   OH262371   1.829   0.707  13.801  0.0135 -0.0300 -0.1843
13627TIP3    H162372   1.910   0.709  13.749 -0.8943  0.1122 -1.6541
13627TIP3    H262373   1.766   0.663  13.744 -1.0850  0.3055  0.7530
13628TIP3   OH262374   1.645   6.677   2.183 -0.3476  0.2899 -0.1118
13628TIP3    H162375   1.555   6.663   2.154 -0.2425 -2.0612  0.5371
13628TIP3    H262376   1.677   6.590   2.205  2.3670  0.9600 -1.0654
13629TIP3   OH262377   1.658   4.677   1.059 -0.3142 -0.0115 -0.1301
13629TIP3    H162378   1.730   4.663   1.121 -0.2621 -1.4212 -0.4602
13629TIP3    H262379   1.651   4.772   1.051  1.2275  0.1595  0.2327
13630TIP3   OH262380   5.549   5.930   1.056  0.4499 -0.2228 -0.4456
13630TIP3    H162381   5.538   5.908   1.149 -2.6457  1.4936 -0.2939
13630TIP3    H262382   5.483   5.877   1.011  0.8092  0.1898 -1.4828
13631TIP3   OH262383   5.649   3.517  13.735  0.2363 -0.1056 -0.0523
13631TIP3    H162384   5.727   3.563  13.705  0.5851  0.2758  1.3816
13631TIP3    H262385   5.666   3.497  13.827 -1.7226  0.8401  0.5681
13632TIP3   OH262386   1.687   6.400   2.119  0.3448  0.0692 -0.2406
13632TIP3    H162387   1.610   6.356   2.154  1.2819 -1.9984 -0.6511
13632TIP3    H262388   1.670   6.409   2.025  0.7764 -0.7944 -0.4064
13633TIP3   OH262389   1.702   5.464  15.583 -0.0363  0.2052 -0.7040
13633TIP3    H162390   1.675   5.407  15.511  1.8747 -0.3145 -1.0491
13633TIP3    H262391   1.746   5.405  15.645  1.8629  1.2586 -1.0029
13634TIP3   OH262392   4.902   4.296   6.180 -0.2605 -0.2193  0.2130
13634TIP3    H162393   4.873   4.305   6.089 -1.0221 -2.2840  0.1968
13634TIP3    H262394   4.837   4.346   6.230 -0.5705 -0.1298 -0.2652
13635TIP3   OH262395   0.377   0.585   2.445  0.3290  0.0245  0.1317
13635TIP3    H162396   0.319   0.509   2.441  0.1371  0.0304  1.9406
13635TIP3    H262397   0.356   0.635   2.366 -2.4174  0.2032  0.8718
13636TIP3   OH262398   1.865   5.120   3.205 -0.7562  0.3277 -0.9252
13636TIP3    H162399   1.873   5.168   3.123  1.7402  2.5427  0.4221
13636TIP3    H262400   1.955   5.114   3.238 -1.2453 -3.3501  0.1649
13637TIP3   OH262401   5.002   2.074  12.191  0.1010 -0.5944  0.4456
13637TIP3    H162402   4.928   2.024  12.157  0.2050 -0.9716  0.7632
13637TIP3    H262403   5.077   2.014  12.183  0.2021 -0.5380  0.9387
13638TIP3   OH262404   2.171   2.934  15.899 -0.3682 -0.0904 -0.5923
13638TIP3    H162405   2.129   2.879  15.965 -0.6340  1.4158  0.5642
13638TIP3    H262406   2.260   2.898  15.890 -0.2935 -0.2666  0.6871
13639TIP3   OH262407   5.154   0.750   0.872 -0.0513 -0.1321 -0.2034
13639TIP3    H162408   5.130   0.658   0.876 -0.3062 -0.0594 -0.0320
13639TIP3    H262409   5.126   0.786   0.956 -2.2106  0.6307 -1.1922
13640TIP3   OH262410   1.999   1.153  15.636  0.1557 -0.0848  0.2394
13640TIP3    H162411   1.927   1.128  15.578  0.7480 -0.6663 -0.2519
13640TIP3    H262412   2.075   1.160  15.578  0.6484 -0.1769  0.8692
13641TIP3   OH262413   4.724   0.320   3.701  0.5659  0.4356  0.1962
13641TIP3    H162414   4.721   0.388   3.768 -1.3903  0.6150 -0.0181
13641TIP3    H262415   4.720   0.368   3.618 -1.7120  0.1060  0.0527
13642TIP3   OH262416   4.652   6.310   2.212  0.4339  0.0511  0.2554
13642TIP3    H162417   4.624   6.219   2.202 -0.8384  0.4985 -0.5365
13642TIP3    H262418   4.661   6.322   2.306  0.5396 -0.8688  0.3745
13643TIP3   OH262419   3.522   0.525   5.518  0.4568 -0.1901 -0.0953
13643TIP3    H162420   3.554   0.473   5.592  0.3996  2.0582  1.6250
13643TIP3    H262421   3.429   0.539   5.538 -0.0186 -1.0311 -1.5707
13644TIP3   OH262422   2.229   2.077  14.047 -0.4641 -0.0475 -0.5445
13644TIP3    H162423   2.298   2.098  14.110 -0.4675  1.4371 -0.9923
13644TIP3    H262424   2.266   2.102  13.962 -1.3660  0.3231 -0.8400
13645TIP3   OH262425   1.171   3.316  13.923 -0.5467 -0.0652  0.0029
13645TIP3    H162426   1.256   3.360  13.932 -1.0535  0.6566  1.6137
13645TIP3    H262427   1.122   3.371  13.861 -0.0639 -0.1514 -0.4636
13646TIP3   OH262428   3.883   5.608   2.886 -0.2168 -0.1354 -0.5203
13646TIP3    H162429   3.851   5.564   2.965 -2.1635  0.6584 -0.8291
13646TIP3    H262430   3.817   5.590   2.820  0.1638  1.2341 -1.3052
13647TIP3   OH262431   2.670   4.410   1.567  0.4833  0.1040  0.2848
13647TIP3    H162432   2.707   4.364   1.492 -0.6379  1.9972 -1.5333
13647TIP3    H262433   2.719   4.492   1.572  0.9752 -0.2584  2.0784
13648TIP3   OH262434   4.781   6.866   2.075 -0.3253 -0.5923  0.2045
13648TIP3    H162435   4.762   6.956   2.101  1.0344 -0.1740 -0.1395
13648TIP3    H262436   4.757   6.814   2.151 -4.6118 -0.4546 -0.8020
13649TIP3   OH262437   5.831   3.547  15.858 -0.3516 -0.6673 -0.3614
13649TIP3    H162438   5.770   3.607  15.902 -2.5091 -1.4046 -2.1552
13649TIP3    H262439   5.824   3.571  15.766  2.0856 -0.8667 -0.6561
13650TIP3   OH262440   6.659   2.738  11.112  0.3974  0.0003 -0.2365
13650TIP3    H162441   6.682   2.687  11.035 -0.7312  0.0868 -0.6508
13650TIP3    H262442   6.740   2.746  11.161  1.0698 -0.2979 -1.2750
13651TIP3   OH262443   3.008   4.636  16.933  0.2035  0.3130  0.3782
13651TIP3    H162444   3.086   4.591  16.964  0.7302  1.8476  1.3708
13651TIP3    H262445   2.942   4.618  16.999  0.2717  0.5976  0.5243
13652TIP3   OH262446   6.686   6.312  13.284  0.0157  0.2515  0.1922
13652TIP3    H162447   6.669   6.374  13.356 -0.6425  0.0863  0.1895
13652TIP3    H262448   6.717   6.367  13.212  1.1999  0.3572  0.7642
13653TIP3   OH262449   2.015   5.759  14.254  0.0985  0.2216  0.1377
13653TIP3    H162450   2.062   5.701  14.314  0.5593  0.6803  0.2278
13653TIP3    H262451   1.957   5.701  14.205  0.0464 -0.2240  0.7057
13654TIP3   OH262452   6.051   3.485  12.631  1.1580  0.1983 -0.3822
13654TIP3    H162453   5.958   3.506  12.627  1.2829  0.9708  0.6198
13654TIP3    H262454   6.066   3.454  12.720  1.8246 -0.1087 -0.5920
13655TIP3   OH262455   1.873   2.401  14.958 -0.3462  0.1512 -0.5404
13655TIP3    H162456   1.911   2.392  14.870  0.4868 -2.0415 -0.0191
13655TIP3    H262457   1.780   2.381  14.946 -0.4022  0.7088 -1.0546
13656TIP3   OH262458   2.447   3.542  15.948 -0.3438 -0.1619 -0.1862
13656TIP3    H162459   2.512   3.609  15.926 -0.1581  0.4013  1.8484
13656TIP3    H262460   2.488   3.460  15.922  0.4047  0.3380 -0.6178
13657TIP3   OH262461   3.511   5.974  11.766  0.0499  0.3980  0.5004
13657TIP3    H162462   3.515   5.984  11.861 -0.4309 -0.4117  0.6103
13657TIP3    H262463   3.562   5.895  11.748 -0.6367  0.0176  0.1850
13658TIP3   OH262464   5.025   1.595  14.281 -0.3488 -0.1382  0.1125
13658TIP3    H162465   4.941   1.569  14.243  0.0008  0.8701 -1.4184
13658TIP3    H262466   5.088   1.532  14.247  0.0618  1.0918 -1.5564
13659TIP3   OH262467   1.030   2.093  15.937  0.3240 -0.3660  0.2822
13659TIP3    H162468   1.002   2.042  16.013 -2.1146 -1.2869 -1.1263
13659TIP3    H262469   0.972   2.169  15.936  0.8711  0.0558 -0.2328
13660TIP3   OH262470   5.079   6.609  11.137  0.4423  1.0996 -0.4202
13660TIP3    H162471   5.013   6.669  11.171 -0.6775 -0.4332  0.1874
13660TIP3    H262472   5.058   6.600  11.044 -0.1085  0.7699 -0.2697
13661TIP3   OH262473   3.076   5.461   3.692 -0.6382  0.0634  0.4580
13661TIP3    H162474   3.021   5.539   3.691 -1.0826 -0.1544 -2.4143
13661TIP3    H262475   3.015   5.388   3.703 -0.3650  0.0376  1.8969
13662TIP3   OH262476   0.292   5.713   1.424 -0.2131  0.2179  0.7559
13662TIP3    H162477   0.254   5.649   1.485 -1.4656  0.6869  0.4919
13662TIP3    H262478   0.282   5.797   1.468  0.1724  0.4017  0.4997
13663TIP3   OH262479   6.527   1.695  12.685 -0.1904 -0.3210  0.0988
13663TIP3    H162480   6.614   1.682  12.650 -0.1408  0.6734 -0.1898
13663TIP3    H262481   6.506   1.613  12.730  0.8228 -0.6225  0.0441
13664TIP3   OH262482   0.091   3.596  12.444  0.5741  0.3109 -0.7416
13664TIP3    H162483   0.154   3.662  12.473 -0.9073  1.0506  1.0223
13664TIP3    H262484   0.112   3.518  12.496  0.2995  0.4495 -0.4114
13665TIP3   OH262485   0.181   5.969  13.939 -0.0639  0.3222 -0.3327
13665TIP3    H162486   0.185   5.902  13.870  2.1151  1.1269 -1.0845
13665TIP3    H262487   0.100   5.950  13.986 -0.8454 -1.2129 -2.1482
13666TIP3   OH262488   0.281   6.044   2.096  0.1959  0.2058  0.3405
13666TIP3    H162489   0.307   6.124   2.050  1.6959 -0.3356  0.1865
13666TIP3    H262490   0.202   6.069   2.144  0.9594  1.9442  0.7725
13667TIP3   OH262491   5.796   4.642   4.121  0.3104  0.3139 -0.6054
13667TIP3    H162492   5.778   4.708   4.189 -1.8136  0.3564 -1.1278
13667TIP3    H262493   5.848   4.688   4.056 -0.5996  1.3260 -0.6488
13668TIP3   OH262494   5.388   4.994   2.990  0.2567  0.0075 -0.9066
13668TIP3    H162495   5.309   4.995   3.045  1.1668  1.4419  0.4574
13668TIP3    H262496   5.450   4.940   3.038  0.4809 -0.2016 -1.4242
13669TIP3   OH262497   6.033   4.632   3.150  0.4176 -0.2455  0.1076
13669TIP3    H162498   6.094   4.561   3.129  1.3785 -0.4433  3.0776
13669TIP3    H262499   5.948   4.600   3.121  0.9264 -2.3779  0.7487
13670TIP3   OH262500   0.947   6.615   1.881  0.0751 -0.1164  0.0673
13670TIP3    H162501   0.963   6.550   1.813 -2.9049 -0.3895 -0.5404
13670TIP3    H262502   0.858   6.647   1.863 -1.0223 -0.4209  3.9705
13671TIP3   OH262503   6.778   0.987  13.459  0.3113  0.0714 -0.0380
13671TIP3    H162504   6.840   1.052  13.493  0.3488 -0.5430  1.1287
13671TIP3    H262505   6.744   1.025  13.379  1.0778  1.0897  0.1080
13672TIP3   OH262506   6.068   5.935  11.458 -0.1115 -0.6900  0.5394
13672TIP3    H162507   5.980   5.899  11.447 -0.6575  0.9303 -0.8844
13672TIP3    H262508   6.120   5.893  11.390  0.1116 -1.2658  1.0535
13673TIP3   OH262509   4.452   5.747  14.433  0.3325  0.1477  0.0944
13673TIP3    H162510   4.409   5.661  14.432  0.6795 -0.0994 -2.7019
13673TIP3    H262511   4.382   5.809  14.414  0.3847  0.2617  0.2813
13674TIP3   OH262512   4.935   6.873  14.421 -0.2594 -0.4163  0.2717
13674TIP3    H162513   4.879   6.795  14.414  0.6050 -1.3852  2.7949
13674TIP3    H262514   5.020   6.838  14.447  0.2716  1.3443  1.0168
13675TIP3   OH262515   1.109   3.262   5.093 -0.0522  0.0942  0.0674
13675TIP3    H162516   1.141   3.173   5.107  0.8904  0.5751  1.1653
13675TIP3    H262517   1.122   3.305   5.178  1.1611  1.7747 -0.9088
13676TIP3   OH262518   0.440   1.177   5.315 -0.7180  0.2039  0.0786
13676TIP3    H162519   0.424   1.224   5.233  2.2335  0.8206 -0.2336
13676TIP3    H262520   0.464   1.245   5.378  1.9550 -0.5936  0.0570
13677TIP3   OH262521   0.711   0.814   3.322 -0.3606  0.1732  0.5305
13677TIP3    H162522   0.750   0.877   3.383  0.2523 -0.0343  0.3550
13677TIP3    H262523   0.758   0.733   3.338 -0.8378 -0.1277  0.4316
13678TIP3   OH262524   1.084   0.746  16.028  1.1093  0.3564  0.0454
13678TIP3    H162525   1.085   0.650  16.032  4.1889  0.1758 -1.6323
13678TIP3    H262526   1.148   0.774  16.094  1.1455  1.1629 -0.3184
13679TIP3   OH262527   2.625   0.711  15.350 -0.1659  0.2165  0.4052
13679TIP3    H162528   2.654   0.792  15.308  0.5770  0.1549  0.7799
13679TIP3    H262529   2.543   0.735  15.394  0.2597  0.8858  0.8681
13680TIP3   OH262530   4.866   0.159   4.884 -1.0176  0.6307 -0.1725
13680TIP3    H162531   4.843   0.127   4.797  0.5166 -1.8691  0.2407
13680TIP3    H262532   4.960   0.175   4.880 -0.6004 -1.0439  1.3706
13681TIP3   OH262533   6.318   0.521   3.534  0.1073 -0.3820 -0.2837
13681TIP3    H162534   6.365   0.524   3.451  1.3998 -1.8927  0.3593
13681TIP3    H262535   6.366   0.580   3.592 -1.1130  1.1056 -0.7103
13682TIP3   OH262536   1.119   1.643  10.280 -0.1068  0.1945 -0.6354
13682TIP3    H162537   1.129   1.577  10.349 -1.7881 -0.1987 -0.7057
13682TIP3    H262538   1.208   1.660  10.248  0.3466 -2.3692 -0.9207
13683TIP3   OH262539   2.756   0.739  11.393  0.2663  0.8459 -0.0598
13683TIP3    H162540   2.838   0.706  11.430 -0.6694 -0.6719  0.7737
13683TIP3    H262541   2.714   0.661  11.356 -0.9673  1.5334 -0.1458
13684TIP3   OH262542   3.545   2.654   5.783 -0.8415  0.0888  0.0544
13684TIP3    H162543   3.569   2.590   5.849  0.7833 -0.9552 -1.4746
13684TIP3    H262544   3.616   2.651   5.719 -1.2296  2.6718 -0.6223
13685TIP3   OH262545   6.806   4.134   1.573  0.1560 -0.4816  0.2459
13685TIP3    H162546   6.860   4.067   1.616 -1.0184 -1.3323  0.4416
13685TIP3    H262547   6.732   4.146   1.632 -0.5043 -0.2530 -0.6203
13686TIP3   OH262548   1.642   3.563  13.867 -0.1159 -0.3707  0.3875
13686TIP3    H162549   1.728   3.569  13.826 -0.8726  0.9166 -1.1227
13686TIP3    H262550   1.661   3.542  13.959  1.8882  1.1734  0.4132
13687TIP3   OH262551   6.469   6.101  10.967  0.3230 -0.3147 -0.0316
13687TIP3    H162552   6.522   6.023  10.978  0.6687 -0.0220  0.4304
13687TIP3    H262553   6.519   6.156  10.906  0.0228 -0.5020 -0.4508
13688TIP3   OH262554   5.973   3.794   5.483 -0.1282  0.1933  0.0587
13688TIP3    H162555   6.048   3.846   5.453  0.0809 -0.7519 -1.1234
13688TIP3    H262556   6.003   3.703   5.477 -0.3926 -0.0915  2.3897
13689TIP3   OH262557   2.513   5.703  15.151 -0.3583  0.6471  1.3016
13689TIP3    H162558   2.466   5.638  15.098 -3.0517  2.8486  0.7773
13689TIP3    H262559   2.498   5.676  15.241 -0.1128 -0.2729  1.0856
13690TIP3   OH262560   4.351   0.629   5.658  0.9871 -0.0697 -0.1691
13690TIP3    H162561   4.294   0.586   5.722  2.1839 -0.1064  0.9255
13690TIP3    H262562   4.293   0.651   5.585 -1.3643  3.3969  2.4298
13691TIP3   OH262563   6.613   5.173   4.162  0.0251 -0.0546  0.0429
13691TIP3    H162564   6.677   5.232   4.123 -1.0306 -0.4257 -2.4123
13691TIP3    H262565   6.545   5.163   4.095 -0.4232 -3.1278  0.8126
13692TIP3   OH262566   3.468   2.001   5.278  0.0291  0.2439  0.0052
13692TIP3    H162567   3.452   1.986   5.372  0.5290 -0.3305  0.0043
13692TIP3    H262568   3.385   2.037   5.246 -1.3039 -2.4761  0.0358
13693TIP3   OH262569   2.034   3.065   1.084 -0.5208  0.4779 -0.0705
13693TIP3    H162570   2.022   3.056   0.990 -0.2981  0.4755 -0.0988
13693TIP3    H262571   1.972   3.134   1.110  1.1694  2.3007 -0.6217
13694TIP3   OH262572   4.540   5.835   4.111  0.3530 -0.0264 -0.2276
13694TIP3    H162573   4.585   5.805   4.190 -1.2852 -1.8983  0.0768
13694TIP3    H262574   4.465   5.884   4.143 -1.2434 -2.1612 -0.4747
13695TIP3   OH262575   1.041   4.326  14.288  0.4987  0.2048 -0.3216
13695TIP3    H162576   1.065   4.390  14.220  1.3891  0.7881  0.5099
13695TIP3    H262577   1.033   4.378  14.367 -0.3027 -0.5078  0.0728
13696TIP3   OH262578   3.860   0.930   0.255 -0.0600  0.5584  0.2242
13696TIP3    H162579   3.861   0.849   0.205 -0.2263  1.0147 -0.5360
13696TIP3    H262580   3.939   0.977   0.226 -0.3285  0.9671  0.1497
13697TIP3   OH262581   2.766   6.290  16.647 -0.0970  0.4136  0.2207
13697TIP3    H162582   2.758   6.350  16.572  0.2708  0.3317  0.1134
13697TIP3    H262583   2.726   6.208  16.616  0.5938  0.1914 -0.1028
13698TIP3   OH262584   6.346   4.890   0.891  0.0119 -0.2880  0.3315
13698TIP3    H162585   6.393   4.866   0.971  0.4341 -2.0011 -0.3929
13698TIP3    H262586   6.345   4.986   0.892  0.5786 -0.2676  2.0520
13699TIP3   OH262587   4.421   0.491   0.199  0.1715  0.3305 -0.7333
13699TIP3    H162588   4.484   0.538   0.144  2.8713  1.0362  2.6711
13699TIP3    H262589   4.379   0.559   0.251  0.8386 -0.5892  1.0826
13700TIP3   OH262590   5.435   5.679  10.818 -0.0279  0.3653 -0.3488
13700TIP3    H162591   5.430   5.619  10.892 -0.2179 -0.9903 -1.4187
13700TIP3    H262592   5.344   5.691  10.790  0.0739  0.4886 -0.6407
13701TIP3   OH262593   5.723   1.682  12.003  0.1355  0.4528 -0.4492
13701TIP3    H162594   5.638   1.721  11.986 -0.5528  0.1657  2.0330
13701TIP3    H262595   5.779   1.756  12.026 -0.1806  0.3925  0.5609
13702TIP3   OH262596   4.847   2.343   0.727  0.1438  0.8052  0.1946
13702TIP3    H162597   4.922   2.361   0.670  0.4771  1.4633  0.8193
13702TIP3    H262598   4.851   2.412   0.793  1.8138 -1.7542  3.0511
13703TIP3   OH262599   6.757   4.273   5.339 -0.2932  0.3005 -0.3259
13703TIP3    H162600   6.822   4.213   5.375 -0.0209  0.1572 -1.0252
13703TIP3    H262601   6.785   4.359   5.369  0.3450  0.2638 -0.7818
13704TIP3   OH262602   1.486   4.992  15.463 -0.5063  0.2195  0.4355
13704TIP3    H162603   1.502   4.977  15.370  0.1215  1.0753  0.4017
13704TIP3    H262604   1.470   4.905  15.499  2.2027 -0.4935  0.0867
13705TIP3   OH262605   2.943   2.010  11.774 -0.4889 -0.2942 -0.3118
13705TIP3    H162606   2.947   2.102  11.797 -1.1760 -0.1851 -0.6134
13705TIP3    H262607   2.851   1.985  11.787 -0.7547 -0.4282 -2.1242
13706TIP3   OH262608   5.745   5.729   3.420  0.1039  0.1245 -0.5106
13706TIP3    H162609   5.834   5.696   3.417 -0.1715 -0.7568  0.5906
13706TIP3    H262610   5.748   5.800   3.485  0.0029  0.1096 -0.4900
13707TIP3   OH262611   4.285   1.523  11.205  0.9383  0.3333  0.1141
13707TIP3    H162612   4.239   1.548  11.125  0.7854  0.2891  0.1870
13707TIP3    H262613   4.229   1.455  11.244  0.9895  0.3874  0.2808
13708TIP3   OH262614   0.207   5.665  14.253 -0.2608  0.2735 -0.0202
13708TIP3    H162615   0.286   5.681  14.202  0.1602  1.1783  0.8946
13708TIP3    H262616   0.137   5.710  14.204 -0.0207  0.3892 -0.2584
13709TIP3   OH262617   0.717   3.830  15.851 -0.6155  0.6591 -0.0518
13709TIP3    H162618   0.732   3.859  15.761 -0.9389  2.9905  0.5946
13709TIP3    H262619   0.780   3.879  15.904 -2.8953  2.2349  1.3954
13710TIP3   OH262620   6.832   4.579   2.899  0.1641 -0.3873 -0.1040
13710TIP3    H162621   6.792   4.665   2.914  1.0181  0.1013 -0.5363
13710TIP3    H262622   6.846   4.575   2.804  1.5408 -0.3385  0.0737
13711TIP3   OH262623   4.142   4.144   2.559  0.2365 -0.3188 -0.2638
13711TIP3    H162624   4.106   4.170   2.644 -0.3704  1.7814 -1.1202
13711TIP3    H262625   4.113   4.053   2.548  0.0703 -0.5339  1.6202
13712TIP3   OH262626   4.623   3.000   1.113 -0.1720  0.3628 -0.0549
13712TIP3    H162627   4.663   3.077   1.072  0.7888  0.6140  1.2960
13712TIP3    H262628   4.634   3.014   1.207  0.2426 -1.5278  0.2131
13713TIP3   OH262629   2.758   2.524  16.520  0.2126  0.5522  0.3711
13713TIP3    H162630   2.851   2.528  16.541 -0.1374  0.5681  2.0573
13713TIP3    H262631   2.719   2.478  16.593 -0.9222 -0.8473 -1.0583
13714TIP3   OH262632   1.878   2.675  15.777  0.3914  0.2907  1.1260
13714TIP3    H162633   1.878   2.589  15.818  4.4991 -0.9316 -0.9013
13714TIP3    H262634   1.833   2.662  15.693 -1.2333  0.8907  1.8443
13715TIP3   OH262635   6.245   3.288  11.690  0.0569 -0.5007 -0.1100
13715TIP3    H162636   6.312   3.322  11.749  1.9988 -4.6559  0.4705
13715TIP3    H262637   6.282   3.300  11.602  0.7536 -1.1287  0.0885
13716TIP3   OH262638   3.787   0.746   4.945 -0.2384 -0.0629 -0.2806
13716TIP3    H162639   3.814   0.655   4.934 -1.2587 -0.5424  0.9510
13716TIP3    H262640   3.692   0.743   4.947 -0.2645  0.9049  0.7279
13717TIP3   OH262641   0.824   2.198   1.126 -0.5393  1.0153  0.3279
13717TIP3    H162642   0.878   2.139   1.179 -1.7919  0.4531  1.0272
13717TIP3    H262643   0.885   2.236   1.063  0.6423  0.3163  1.0066
13718TIP3   OH262644   3.425   5.999  16.568 -0.0643  0.5520 -0.2201
13718TIP3    H162645   3.381   6.073  16.525 -0.1394  0.1947 -0.7612
13718TIP3    H262646   3.391   6.000  16.657 -1.0218  0.3998 -0.5788
13719TIP3   OH262647   1.010   1.985   0.521  0.0511 -0.0163 -0.4612
13719TIP3    H162648   1.096   2.027   0.528 -0.9473  2.2193 -0.6158
13719TIP3    H262649   0.978   2.010   0.434  0.1340 -2.7466 -1.3760
13720TIP3   OH262650   6.861   0.123   3.724 -0.1873 -0.1526  0.3632
13720TIP3    H162651   6.818   0.204   3.750  1.7586  1.6367 -1.5217
13720TIP3    H262652   6.908   0.094   3.802 -2.3191 -0.5099  1.5687
13721TIP3   OH262653   6.489   1.491   2.102  0.1812 -0.1937  0.5545
13721TIP3    H162654   6.553   1.549   2.061 -0.2679 -0.2659 -0.2594
13721TIP3    H262655   6.472   1.424   2.036 -0.1466 -0.6198  1.0666
13722TIP3   OH262656   5.587   3.590  11.069 -0.2280 -0.9760 -0.2731
13722TIP3    H162657   5.674   3.593  11.031  0.4016  1.7150  1.1553
13722TIP3    H262658   5.602   3.583  11.164 -1.5096 -0.1123  0.0281
13723TIP3   OH262659   0.080   5.422   1.072 -0.3332  0.3208 -0.2315
13723TIP3    H162660   0.171   5.419   1.043  0.7482  1.0968  2.6764
13723TIP3    H262661   0.071   5.346   1.130 -1.0399  1.1143  0.7329
13724TIP3   OH262662   0.159   3.178   5.044 -0.3372  0.1380  0.0138
13724TIP3    H162663   0.221   3.198   5.114 -0.1975 -0.6281  0.1105
13724TIP3    H262664   0.126   3.264   5.017  0.6128  0.5474  0.0932
13725TIP3   OH262665   4.164   3.800   3.786  0.1542  0.0982  0.1863
13725TIP3    H162666   4.195   3.890   3.785 -0.3183  0.2683 -0.5582
13725TIP3    H262667   4.071   3.807   3.763  0.5105 -0.6998 -1.7165
13726TIP3   OH262668   5.886   0.929  13.974 -0.1205 -0.0862  0.4669
13726TIP3    H162669   5.957   0.884  14.019  0.9063  1.4333  0.4478
13726TIP3    H262670   5.830   0.963  14.044 -0.7417 -1.0915  0.4837
13727TIP3   OH262671   3.473   6.332  12.282 -0.2617 -0.4792 -0.2909
13727TIP3    H162672   3.392   6.333  12.332 -0.6382 -2.5437 -0.7831
13727TIP3    H262673   3.460   6.264  12.216  1.8743 -0.8556 -0.3868
13728TIP3   OH262674   1.204   5.495  14.420 -0.3170 -0.2181 -0.3098
13728TIP3    H162675   1.176   5.465  14.506  0.0987  1.0288  0.2760
13728TIP3    H262676   1.187   5.589  14.420  0.6409 -0.0215 -1.2010
13729TIP3   OH262677   6.488   6.815   1.294 -0.3594  0.1809 -0.1000
13729TIP3    H162678   6.395   6.815   1.318 -0.3946  0.8170 -0.2080
13729TIP3    H262679   6.532   6.847   1.373 -0.4135  1.6418 -0.6166
13730TIP3   OH262680   1.730   6.011  15.195  0.3474 -0.2882  0.0746
13730TIP3    H162681   1.801   5.973  15.247  1.1390 -0.9354 -1.4202
13730TIP3    H262682   1.658   6.023  15.257  1.9275  0.9562  1.7756
13731TIP3   OH262683   6.656   6.165  11.794  0.1468 -0.2463 -0.5353
13731TIP3    H162684   6.564   6.170  11.768  0.5653  0.1212 -2.0067
13731TIP3    H262685   6.656   6.107  11.870 -1.3074 -0.2012 -0.4781
13732TIP3   OH262686   5.857   2.609   3.072 -0.0869  0.0712 -0.5594
13732TIP3    H162687   5.763   2.601   3.061 -0.2550  0.5604  0.3593
13732TIP3    H262688   5.891   2.623   2.984 -0.9804  0.7987 -0.8072
13733TIP3   OH262689   6.301   2.276   1.681  0.4615 -0.0142  0.0013
13733TIP3    H162690   6.375   2.327   1.712  0.7680 -0.2079 -0.3921
13733TIP3    H262691   6.278   2.219   1.754  0.0293  0.7662  0.4934
13734TIP3   OH262692   2.512   4.861  15.443 -0.3581  0.0737  0.2524
13734TIP3    H162693   2.547   4.915  15.514 -1.1924  1.0971 -0.0868
13734TIP3    H262694   2.420   4.847  15.466 -0.6942  0.5860 -0.6997
13735TIP3   OH262695   4.038   3.835  15.351  0.3045  0.3309 -0.1775
13735TIP3    H162696   3.975   3.905  15.368 -0.3228 -0.1410 -0.5188
13735TIP3    H262697   4.081   3.821  15.435 -1.1078 -0.3639  0.4515
13736TIP3   OH262698   3.001   6.352   3.592  0.2035 -0.3185 -0.2291
13736TIP3    H162699   3.094   6.341   3.613 -0.0535  0.6676  1.6279
13736TIP3    H262700   3.000   6.364   3.497  1.4342 -5.3938 -1.1758
13737TIP3   OH262701   4.669   2.172  12.549  0.0482  0.2112 -0.1429
13737TIP3    H162702   4.665   2.187  12.643 -0.4770 -0.3749 -0.0709
13737TIP3    H262703   4.676   2.077  12.540  0.2451  0.2741 -0.6919
13738TIP3   OH262704   1.286   1.191  15.061  0.0254  0.3714  0.3256
13738TIP3    H162705   1.240   1.113  15.091  0.5313 -0.0139  0.1205
13738TIP3    H262706   1.272   1.192  14.966  0.9630 -0.1049  0.1726
13739TIP3   OH262707   1.054   0.732  14.873 -0.3016 -0.4564  0.0951
13739TIP3    H162708   1.027   0.690  14.791  2.0172 -0.2103 -0.8645
13739TIP3    H262709   1.098   0.663  14.922 -1.2988 -0.4887  0.9965
13740TIP3   OH262710   1.989   1.510  15.546 -0.1520 -0.6209 -0.1618
13740TIP3    H162711   2.065   1.523  15.603  0.0615 -0.9567 -0.3722
13740TIP3    H262712   1.939   1.440  15.588 -0.2631 -0.5132 -0.1125
13741TIP3   OH262713   1.707   2.045   4.346  0.1553 -0.1812  0.2141
13741TIP3    H162714   1.765   2.024   4.419  0.0702  0.2738  0.4231
13741TIP3    H262715   1.736   2.132   4.316 -0.4377  0.0756  0.3539
13742TIP3   OH262716   1.448   0.931   5.569  0.4644  0.3745 -0.5350
13742TIP3    H162717   1.403   1.010   5.598 -1.1685 -0.7190  0.0700
13742TIP3    H262718   1.476   0.888   5.650  0.2705 -0.2426 -0.7885
13743TIP3   OH262719   3.323   5.637   5.875 -0.2270  0.2316 -0.0535
13743TIP3    H162720   3.304   5.670   5.963  1.6863  2.0761 -0.2447
13743TIP3    H262721   3.398   5.579   5.886  0.1401  0.6152 -0.4669
13744TIP3   OH262722   6.471   3.940   5.536 -0.2650 -0.2066 -0.6393
13744TIP3    H162723   6.478   4.034   5.549 -1.2604 -0.0608 -1.0240
13744TIP3    H262724   6.473   3.929   5.441 -2.8888 -0.2684 -0.7728
13745TIP3   OH262725   6.818   5.321   3.299  0.2982 -0.0912 -0.0785
13745TIP3    H162726   6.883   5.388   3.322  2.2192 -1.2932 -1.6407
13745TIP3    H262727   6.837   5.300   3.207 -0.4986 -2.4569  0.2326
13746TIP3   OH262728   4.460   3.285   3.568 -0.1165  0.3383 -0.1461
13746TIP3    H162729   4.486   3.193   3.560  0.8200  0.4556  1.1100
13746TIP3    H262730   4.473   3.321   3.480 -2.5617 -1.1781 -1.2280
13747TIP3   OH262731   3.061   5.700  16.215  0.1676 -0.4989  0.5877
13747TIP3    H162732   3.133   5.680  16.275 -0.0123  0.5303  1.1602
13747TIP3    H262733   2.989   5.646  16.246 -0.0504  0.3464  1.5676
13748TIP3   OH262734   3.064   1.968  14.760 -0.9010 -0.8509  0.1971
13748TIP3    H162735   3.126   1.998  14.826  0.1207 -2.6090  0.1028
13748TIP3    H262736   3.088   2.016  14.681 -0.3858 -0.6986  0.4458
13749TIP3   OH262737   2.201   5.364  13.697 -0.0227  0.5957 -0.2986
13749TIP3    H162738   2.257   5.326  13.629  0.8916 -0.0359  0.7624
13749TIP3    H262739   2.196   5.296  13.764 -0.5063  1.3762  0.4763
13750TIP3   OH262740   3.262   1.670   4.168  0.0388 -0.1508 -0.2523
13750TIP3    H162741   3.285   1.761   4.187  1.0383 -0.1731 -1.2293
13750TIP3    H262742   3.276   1.624   4.251  0.3594  0.4348  0.0292
13751TIP3   OH262743   1.375   6.728   0.484 -0.5741  0.3496  0.2802
13751TIP3    H162744   1.319   6.700   0.556 -0.7891  0.5123  0.1752
13751TIP3    H262745   1.350   6.818   0.467 -1.6946 -0.1923 -1.1038
13752TIP3   OH262746   5.611   6.567   0.911 -0.3700  0.1083  0.4326
13752TIP3    H162747   5.520   6.586   0.889 -0.1521  1.9868  0.9649
13752TIP3    H262748   5.662   6.615   0.847  0.2825 -1.3349 -0.1712
13753TIP3   OH262749   3.983   2.064   5.771 -0.2062 -0.4121  0.4625
13753TIP3    H162750   4.019   2.152   5.788 -0.8546 -0.0195 -0.1337
13753TIP3    H262751   4.039   2.005   5.821  0.0029  0.3826  1.1906
13754TIP3   OH262752   6.445   3.435   1.348  0.3889 -0.2650 -0.0697
13754TIP3    H162753   6.521   3.380   1.328  0.6127 -0.1084  0.3429
13754TIP3    H262754   6.477   3.496   1.414  0.0076  0.0537 -0.1817
13755TIP3   OH262755   3.394   6.616   1.034  0.0773 -0.2305 -0.2067
13755TIP3    H162756   3.361   6.540   0.985  0.4908 -1.1253  0.8371
13755TIP3    H262757   3.400   6.584   1.124 -0.8274  1.4187  0.4583
13756TIP3   OH262758   0.100   4.379  13.513  0.3474  0.3551 -0.2011
13756TIP3    H162759   0.188   4.385  13.477 -0.1281 -0.4924 -1.5804
13756TIP3    H262760   0.075   4.287  13.501 -1.6496  1.0851 -2.2011
13757TIP3   OH262761   4.869   3.195   1.283 -0.2808 -0.5044  0.1596
13757TIP3    H162762   4.855   3.197   1.378 -0.2476 -1.6035  0.1961
13757TIP3    H262763   4.924   3.119   1.269  0.8711  0.4330 -0.6145
13758TIP3   OH262764   3.394   2.830   2.293  0.0866 -0.6196  0.1356
13758TIP3    H162765   3.490   2.837   2.292  0.0532  0.0565  0.8442
13758TIP3    H262766   3.370   2.829   2.200  0.7220  0.2228 -0.0538
13759TIP3   OH262767   4.525   3.011  16.867  0.5490  0.2629 -0.4500
13759TIP3    H162768   4.491   2.942  16.925  1.5968  0.5892  0.5921
13759TIP3    H262769   4.578   2.964  16.803  2.0070  0.1026  0.7929
13760TIP3   OH262770   3.616   6.235   5.615 -0.1372  0.1419 -0.2740
13760TIP3    H162771   3.707   6.227   5.644  0.1619 -2.4921 -1.6626
13760TIP3    H262772   3.567   6.178   5.674 -0.9350  1.5424  0.4631
13761TIP3   OH262773   0.563   0.741   2.596 -0.1681 -0.0211 -0.0501
13761TIP3    H162774   0.500   0.690   2.545  1.8948 -1.3235 -1.4804
13761TIP3    H262775   0.571   0.693   2.679 -2.7003  1.4681  1.1405
13762TIP3   OH262776   5.497   4.929   1.311  0.0334  0.4186 -0.2694
13762TIP3    H162777   5.538   4.885   1.386 -1.3937 -0.6359 -0.0618
13762TIP3    H262778   5.511   5.022   1.327  0.4050  0.1762  0.9236
13763TIP3   OH262779   1.958   0.718   3.628 -0.5151  0.1173  0.0321
13763TIP3    H162780   1.980   0.785   3.693  3.7158  0.7084 -1.6786
13763TIP3    H262781   1.912   0.766   3.559 -1.2908  0.3266  0.6764
13764TIP3   OH262782   6.384   5.096   3.503 -0.8026 -0.4120 -0.0169
13764TIP3    H162783   6.387   5.022   3.443  1.2627  0.1839 -0.7432
13764TIP3    H262784   6.450   5.075   3.570 -1.8410 -0.2671  1.0791
13765TIP3   OH262785   2.043   0.268   0.867 -0.1649  0.1010 -0.4875
13765TIP3    H162786   2.109   0.323   0.824  1.0077  0.0063  1.0927
13765TIP3    H262787   2.022   0.201   0.803  1.8125 -0.2661 -0.8088
13766TIP3   OH262788   4.846   4.657   2.602  0.0931 -0.0999 -0.2008
13766TIP3    H162789   4.800   4.597   2.544 -0.7436 -0.0126  0.3580
13766TIP3    H262790   4.780   4.686   2.664  1.0150 -0.3585  0.9349
13767TIP3   OH262791   2.235   1.734   4.675  0.0774  0.1943 -0.3173
13767TIP3    H162792   2.211   1.642   4.683  1.4692 -0.2549 -0.9141
13767TIP3    H262793   2.248   1.763   4.766  0.1444 -0.3572 -0.1425
13768TIP3   OH262794   5.852   2.403  12.956 -0.1082 -0.1581  0.6030
13768TIP3    H162795   5.863   2.411  12.861  0.8425 -0.3729  0.6882
13768TIP3    H262796   5.906   2.472  12.993 -2.4537  1.6351  0.9602
13769TIP3   OH262797   4.470   6.470   5.574  0.4520  0.0752 -0.8295
13769TIP3    H162798   4.531   6.531   5.613  2.1473 -1.9208 -0.1691
13769TIP3    H262799   4.500   6.459   5.483  1.1892 -0.9851 -0.4758
13770TIP3   OH262800   4.390   2.422  13.632  0.0621  0.0234  0.1091
13770TIP3    H162801   4.462   2.367  13.598  2.1315  0.9369  2.6735
13770TIP3    H262802   4.378   2.489  13.564  0.7956 -0.8362 -0.9126
13771TIP3   OH262803   0.062   6.815   5.576 -0.1223  0.0954  0.0704
13771TIP3    H162804   0.078   6.829   5.669 -0.7464  1.3341  0.0155
13771TIP3    H262805   0.148   6.797   5.539  0.1242 -0.4567  0.8957
13772TIP3   OH262806   1.868   2.307   0.589  0.1065  0.1590  0.4816
13772TIP3    H162807   1.799   2.371   0.608 -1.1814 -1.0965  0.1794
13772TIP3    H262808   1.950   2.355   0.607 -0.8144  1.6983  0.8141
13773TIP3   OH262809   5.488   5.454  13.229 -0.1703  0.1924  0.2701
13773TIP3    H162810   5.455   5.504  13.154 -0.4581 -1.3799 -0.6908
13773TIP3    H262811   5.579   5.480  13.237  0.3113 -0.7092 -1.6278
13774TIP3   OH262812   5.489   5.866   5.927  0.8008 -0.3115  0.4490
13774TIP3    H162813   5.541   5.800   5.881 -0.1371 -0.6201 -0.2000
13774TIP3    H262814   5.402   5.827   5.934  0.3182  0.7216  0.3515
13775TIP3   OH262815   5.801   2.316  12.367  0.1401  1.0339  0.5425
13775TIP3    H162816   5.755   2.261  12.430 -0.4384  0.5597 -0.2784
13775TIP3    H262817   5.751   2.397  12.365 -1.5776  0.0308 -1.3690
13776TIP3   OH262818   4.171   1.375   0.239 -0.2745 -0.1574  0.4140
13776TIP3    H162819   4.081   1.364   0.207 -0.0185 -3.5355  0.4399
13776TIP3    H262820   4.168   1.340   0.328  1.2296 -1.2919  0.0506
13777TIP3   OH262821   1.720   3.271  12.808  0.0790 -0.1893  0.0238
13777TIP3    H162822   1.742   3.264  12.901 -1.6383 -0.2411  0.4609
13777TIP3    H262823   1.690   3.184  12.784  3.0573 -0.9653 -1.3671
13778TIP3   OH262824   5.001   0.229   3.683 -0.1894 -0.6216 -0.5119
13778TIP3    H162825   4.984   0.289   3.610  1.8745 -0.4952 -0.9641
13778TIP3    H262826   4.936   0.252   3.749  0.3261  1.9566 -0.7834
13779TIP3   OH262827   2.655   0.454   5.030  0.0651  0.2383  0.0588
13779TIP3    H162828   2.726   0.497   5.078 -1.1988  0.5811  1.7638
13779TIP3    H262829   2.576   0.477   5.080 -1.1446 -0.8033 -1.2844
13780TIP3   OH262830   6.483   4.535   1.171  0.3954 -0.1414  0.0556
13780TIP3    H162831   6.426   4.558   1.097  2.4458 -0.6095 -1.7858
13780TIP3    H262832   6.480   4.439   1.174 -0.2923 -0.1023  1.1426
13781TIP3   OH262833   5.735   6.621   0.671 -1.1536  0.2916 -0.2078
13781TIP3    H162834   5.802   6.682   0.704 -0.6668 -0.1219 -0.4164
13781TIP3    H262835   5.681   6.675   0.614 -0.6153  0.4945 -0.5359
13782TIP3   OH262836   5.538   2.327  13.667 -0.2748 -0.4251  0.5414
13782TIP3    H162837   5.494   2.244  13.681 -1.8188  0.2164 -0.2890
13782TIP3    H262838   5.470   2.393  13.681  0.3888  0.6045 -0.8215
13783TIP3   OH262839   6.273   4.086   6.613 -0.4921  0.4662  0.2461
13783TIP3    H162840   6.348   4.106   6.556  0.9347  0.8455  2.1458
13783TIP3    H262841   6.273   3.991   6.620 -0.2532  0.4565  0.1237
13784TIP3   OH262842   4.228   4.947   5.492  0.7064 -0.6164 -0.4284
13784TIP3    H162843   4.172   4.929   5.567 -0.1975 -1.9025 -1.3657
13784TIP3    H262844   4.305   4.991   5.529  0.2367 -1.1142  1.2159
13785TIP3   OH262845   5.223   1.008  14.534  0.8820  0.2877  0.1490
13785TIP3    H162846   5.240   1.023  14.441  0.2936 -0.1925 -0.0403
13785TIP3    H262847   5.163   0.934  14.536 -0.4636  1.3453  0.8176
13786TIP3   OH262848   0.132   5.377  14.295  0.3343  0.2550  0.2898
13786TIP3    H162849   0.145   5.379  14.390  2.2643  0.6317  0.0579
13786TIP3    H262850   0.131   5.469  14.269 -1.3218  0.1865  0.0585
13787TIP3   OH262851   0.564   0.726  12.803 -0.2030  0.1148 -0.6679
13787TIP3    H162852   0.508   0.803  12.800 -0.6014 -0.1710 -0.7224
13787TIP3    H262853   0.505   0.655  12.829  0.7377  0.3694  2.5692
13788TIP3   OH262854   1.497   4.449   4.098  0.1316 -0.3497 -0.3511
13788TIP3    H162855   1.457   4.446   4.011  0.1842 -1.3538 -0.3461
13788TIP3    H262856   1.585   4.412   4.086  0.8326  1.1796 -0.2171
13789TIP3   OH262857   5.444   3.725  14.363  0.1585  0.3209  0.0501
13789TIP3    H162858   5.352   3.750  14.369 -0.0576  0.0917 -1.8257
13789TIP3    H262859   5.442   3.630  14.351  0.5227  0.5163 -1.7964
13790TIP3   OH262860   2.278   1.544   5.432 -0.1242 -0.4242  0.0731
13790TIP3    H162861   2.278   1.540   5.336 -4.0953  1.9436 -0.2756
13790TIP3    H262862   2.345   1.608   5.454  0.2489 -0.3643 -1.1774
13791TIP3   OH262863   3.163   4.653   1.171  0.0567 -0.2362  0.2409
13791TIP3    H162864   3.152   4.691   1.258  0.4027 -0.8050  0.5402
13791TIP3    H262865   3.253   4.619   1.171  1.0850  2.1553 -1.2752
13792TIP3   OH262866   0.673   5.999  14.211  0.3486 -0.0595  0.2843
13792TIP3    H162867   0.691   5.907  14.192 -2.2749 -1.4688  3.4944
13792TIP3    H262868   0.591   6.017  14.165  0.6908  0.5731 -0.0831
13793TIP3   OH262869   2.732   2.900  14.115  0.1276 -0.1847 -0.9229
13793TIP3    H162870   2.786   2.950  14.054 -2.3376  2.8416 -0.8644
13793TIP3    H262871   2.790   2.880  14.188  2.7242 -2.5551 -3.3839
13794TIP3   OH262872   4.340   1.283  15.857  0.5072  0.0082 -0.0738
13794TIP3    H162873   4.250   1.309  15.838  0.6836 -0.0717 -1.0827
13794TIP3    H262874   4.335   1.190  15.879  0.2538  0.1823  0.6276
13795TIP3   OH262875   3.593   6.740  12.533  0.4737 -0.0464  0.3117
13795TIP3    H162876   3.543   6.806  12.582  0.7188  0.6903 -0.4069
13795TIP3    H262877   3.654   6.791  12.480  0.2608 -0.8281 -0.7213
13796TIP3   OH262878   6.692   4.658  11.873  0.3046  0.2174  0.0649
13796TIP3    H162879   6.665   4.595  11.806  1.1491 -0.5994  0.4711
13796TIP3    H262880   6.652   4.741  11.846 -0.6418 -0.4365 -0.6013
13797TIP3   OH262881   3.526   1.439  16.487 -0.0421  0.0073  0.1753
13797TIP3    H162882   3.434   1.444  16.512 -0.1600  0.3430 -0.3183
13797TIP3    H262883   3.543   1.521  16.441 -0.0033 -0.8392 -1.3726
13798TIP3   OH262884   4.073   2.866   0.277 -0.1583 -0.4510 -0.2702
13798TIP3    H162885   4.164   2.858   0.248 -0.3853 -1.6398 -0.6961
13798TIP3    H262886   4.022   2.868   0.196 -0.4864  0.7977 -0.0509
13799TIP3   OH262887   5.835   6.481  13.308  0.1181  0.2139 -0.0887
13799TIP3    H162888   5.854   6.547  13.375  1.7023  0.3508 -0.6161
13799TIP3    H262889   5.746   6.452  13.327 -0.2921  1.8667  0.6953
13800TIP3   OH262890   3.904   2.665   2.784  1.1219  0.3904 -0.3567
13800TIP3    H162891   3.848   2.589   2.798  0.4626  1.0642  0.7834
13800TIP3    H262892   3.956   2.642   2.707 -0.0629 -0.6278 -0.8893
13801TIP3   OH262893   6.212   4.742  15.107  0.2302  0.3002 -0.2618
13801TIP3    H162894   6.261   4.669  15.144 -0.0917  0.4027  0.3801
13801TIP3    H262895   6.250   4.754  15.020  1.5729  0.5796  0.3317
13802TIP3   OH262896   2.651   2.840  12.077 -0.2107  0.1297  0.1443
13802TIP3    H162897   2.697   2.832  12.160  1.8405  0.8140 -0.8627
13802TIP3    H262898   2.636   2.934  12.067  0.0503  0.1099 -0.4970
13803TIP3   OH262899   4.410   6.450  13.551  0.1661 -0.1326 -0.7797
13803TIP3    H162900   4.397   6.356  13.561  0.0661 -0.1182 -0.7757
13803TIP3    H262901   4.368   6.472  13.468 -1.0657  0.1516 -0.1152
13804TIP3   OH262902   4.799   4.001  11.419  0.0894 -0.3567 -0.7897
13804TIP3    H162903   4.811   3.912  11.453  1.9721 -0.3899 -1.4161
13804TIP3    H262904   4.788   3.989  11.325  1.9474  0.1191 -1.1105
13805TIP3   OH262905   5.771   5.217  11.555  0.4532 -0.2191 -0.0959
13805TIP3    H162906   5.719   5.148  11.595  0.8826 -0.9234 -0.7228
13805TIP3    H262907   5.782   5.189  11.464  1.8622 -0.0587  0.0022
13806TIP3   OH262908   0.460   5.901   2.260 -0.4848  0.0933  0.4091
13806TIP3    H162909   0.403   5.940   2.193  1.0229 -1.8079 -2.1583
13806TIP3    H262910   0.426   5.936   2.342 -1.1928  4.2822 -1.3541
13807TIP3   OH262911   1.763   4.695  14.065 -0.2942 -0.3065 -0.2186
13807TIP3    H162912   1.762   4.626  14.131 -0.3014 -0.6883 -0.6128
13807TIP3    H262913   1.852   4.694  14.030 -0.3933 -0.3580 -0.4726
13808TIP3   OH262914   3.143   2.177   5.985  0.2318 -0.1695 -0.1882
13808TIP3    H162915   3.102   2.261   6.010  0.3656 -0.7993  2.4187
13808TIP3    H262916   3.224   2.174   6.035  0.2005 -1.8909 -0.1916
13809TIP3   OH262917   3.203   1.500   1.627 -0.1009 -0.1195 -0.5788
13809TIP3    H162918   3.230   1.479   1.716 -0.1380  0.8221 -0.3328
13809TIP3    H262919   3.213   1.418   1.578  2.5948  0.0078 -0.3864
13810TIP3   OH262920   1.593   2.078   1.917  0.2107 -0.5402 -0.1413
13810TIP3    H162921   1.522   2.123   1.872  0.6705 -0.2178 -0.5561
13810TIP3    H262922   1.552   2.038   1.994 -0.3281  0.0286 -0.1288
13811TIP3   OH262923   5.320   3.077  11.837 -0.2990 -0.4664  0.3100
13811TIP3    H162924   5.326   3.022  11.758  1.4546  0.8731 -0.5595
13811TIP3    H262925   5.249   3.138  11.818 -0.3131 -0.5632  0.0387
13812TIP3   OH262926   1.839   6.610  12.169  0.1780 -0.5713 -0.7243
13812TIP3    H162927   1.879   6.618  12.082 -2.7252  1.5933 -2.0485
13812TIP3    H262928   1.764   6.553  12.156  1.4971 -2.9566  1.2401
13813TIP3   OH262929   0.516   5.394  12.637 -0.0907 -0.3142 -0.1247
13813TIP3    H162930   0.494   5.450  12.711 -0.4832  0.0063 -0.4794
13813TIP3    H262931   0.443   5.404  12.576 -0.6432 -1.9265  0.2060
13814TIP3   OH262932   2.144   5.176   0.473  0.0221  0.6420 -0.5444
13814TIP3    H162933   2.232   5.212   0.461  0.2662 -0.3020 -1.7272
13814TIP3    H262934   2.086   5.252   0.469  0.7477  1.2411 -0.0036
13815TIP3   OH262935   2.454   4.301   1.744 -0.1251 -0.2989 -0.2133
13815TIP3    H162936   2.502   4.351   1.678 -1.0414  0.4051 -0.3541
13815TIP3    H262937   2.476   4.210   1.725 -0.0730 -0.0793 -1.2458
13816TIP3   OH262938   4.643   5.027   0.794 -0.3262  0.2999 -0.0508
13816TIP3    H162939   4.724   4.997   0.752 -0.0925  1.0431 -0.1368
13816TIP3    H262940   4.671   5.069   0.875 -0.6035  0.7179 -0.1641
13817TIP3   OH262941   4.598   6.047  14.371  0.0907 -0.1012 -0.5133
13817TIP3    H162942   4.538   5.976  14.351  2.0144 -1.8267 -0.4542
13817TIP3    H262943   4.654   6.054  14.294  1.0124  0.1874  0.1711
13818TIP3   OH262944   0.882   4.069   4.005 -0.6793  0.1125 -0.2219
13818TIP3    H162945   0.861   4.027   3.922  1.9649 -2.8541  0.4295
13818TIP3    H262946   0.965   4.114   3.989 -2.0857  2.9377 -0.1321
13819TIP3   OH262947   3.290   3.137  13.817  0.2753  0.3386  0.2582
13819TIP3    H162948   3.316   3.087  13.894  0.4188  1.2817  0.8326
13819TIP3    H262949   3.234   3.206  13.851 -0.3611  0.2603 -0.5905
13820TIP3   OH262950   5.980   6.871  14.272 -0.1941 -0.9222 -0.2479
13820TIP3    H162951   6.040   6.802  14.300  1.3734 -0.4977 -2.2708
13820TIP3    H262952   5.933   6.834  14.198  0.0149 -0.1677 -0.7798
13821TIP3   OH262953   6.557   3.400   2.784  0.0141  0.3027 -0.2688
13821TIP3    H162954   6.601   3.480   2.815  1.1978 -0.8786  1.2117
13821TIP3    H262955   6.485   3.433   2.730  2.3638  2.3737 -2.4938
13822TIP3   OH262956   4.082   0.815   0.541 -0.4367 -0.3801  0.3086
13822TIP3    H162957   4.038   0.793   0.622 -0.3076 -0.7511  0.2812
13822TIP3    H262958   4.060   0.743   0.481  1.5652 -1.4763  0.8069
13823TIP3   OH262959   5.969   6.368   2.033 -0.4106  0.3292  0.3843
13823TIP3    H162960   5.960   6.310   1.957 -0.7299 -0.6142  1.1216
13823TIP3    H262961   6.057   6.405   2.025 -0.0385 -0.5843  0.1182
13824TIP3   OH262962   5.068   0.848  13.224  0.1527 -0.1874  0.5471
13824TIP3    H162963   5.068   0.920  13.287 -0.0656 -0.8089  1.2747
13824TIP3    H262964   5.156   0.848  13.186 -0.0505  0.8844  0.0318
13825TIP3   OH262965   0.161   1.931  10.470 -0.0547  0.0096  0.5565
13825TIP3    H162966   0.153   2.021  10.439 -1.3821  0.5250  2.2552
13825TIP3    H262967   0.084   1.886  10.435 -1.3542  0.4991  2.6624
13826TIP3   OH262968   1.427   6.080   1.851 -0.4205 -0.7994  0.5711
13826TIP3    H162969   1.406   6.172   1.833 -0.2764 -0.7386  0.7150
13826TIP3    H262970   1.348   6.032   1.826 -1.4721 -0.3856  2.8508
13827TIP3   OH262971   5.828   5.090  13.196 -0.3722  0.4342 -0.5598
13827TIP3    H162972   5.898   5.026  13.180 -0.3438  0.3864 -0.2590
13827TIP3    H262973   5.757   5.038  13.233 -0.0383  0.7011  0.4926
13828TIP3   OH262974   1.211   0.422  10.399 -0.1380  0.0813 -0.4359
13828TIP3    H162975   1.147   0.388  10.336  2.1835 -1.0652 -2.3230
13828TIP3    H262976   1.242   0.344  10.446  0.1302  0.5792  0.2360
13829TIP3   OH262977   6.643   2.121   2.472 -0.4436 -0.4085  0.0391
13829TIP3    H162978   6.737   2.116   2.455 -0.7074 -2.1603 -1.1745
13829TIP3    H262979   6.604   2.060   2.409 -2.5486  1.5078 -0.6430
13830TIP3   OH262980   1.229   5.854  15.629  1.0395 -0.2475 -0.1038
13830TIP3    H162981   1.172   5.795  15.579  0.4365  0.6504 -0.4998
13830TIP3    H262982   1.299   5.877  15.568 -0.5055  2.0581 -1.1326
13831TIP3   OH262983   3.185   6.458  15.412  0.7665  0.4365 -0.4511
13831TIP3    H162984   3.206   6.536  15.463 -2.9061  0.5718  1.1416
13831TIP3    H262985   3.171   6.491  15.323  0.6698  1.3792 -0.1041
13832TIP3   OH262986   5.095   3.682  14.691 -0.2702  0.5901 -0.8049
13832TIP3    H162987   5.003   3.678  14.717  0.0882  0.0664  0.4921
13832TIP3    H262988   5.135   3.607  14.735  0.7087  0.5948 -1.6606
13833TIP3   OH262989   2.741   6.712   0.369 -0.4323 -0.2884 -0.4647
13833TIP3    H162990   2.762   6.802   0.345  1.5628 -0.9739 -1.5429
13833TIP3    H262991   2.693   6.677   0.294 -1.2335 -0.1426 -0.0345
13834TIP3   OH262992   6.173   2.226   2.189 -0.1832  0.1133 -0.2347
13834TIP3    H162993   6.235   2.245   2.260 -0.4022 -0.3087  0.0736
13834TIP3    H262994   6.219   2.253   2.109  0.8144 -1.0988 -0.1100
13835TIP3   OH262995   2.143   0.018   5.608 -0.2225  0.0022  0.9747
13835TIP3    H162996   2.208   0.050   5.671 -0.6674  1.0534  0.9211
13835TIP3    H262997   2.103   0.097   5.572 -0.3184 -0.5911 -0.2840
13836TIP3   OH262998   2.213   5.750  15.981 -0.2113  0.3942  0.0598
13836TIP3    H162999   2.182   5.663  16.003 -3.8988  1.0331 -1.7612
13836TIP3    H263000   2.246   5.742  15.891 -1.9158  1.0683 -0.6620
13837TIP3   OH263001   4.875   3.548  14.781 -0.6333 -0.3162  0.0692
13837TIP3    H163002   4.810   3.535  14.850 -0.3214  2.6544  1.0635
13837TIP3    H263003   4.928   3.468  14.782 -2.2826 -1.4530  1.4079
13838TIP3   OH263004   1.973   4.560   5.621  0.4509  0.2036  0.5157
13838TIP3    H163005   1.965   4.648   5.660  1.2312 -0.0498  1.2874
13838TIP3    H263006   2.067   4.552   5.601  0.7974 -1.2907  2.5070
13839TIP3   OH263007   2.591   6.014   3.760 -0.1229 -0.3726  0.3895
13839TIP3    H163008   2.664   6.074   3.744 -0.2980 -0.5873 -1.3872
13839TIP3    H263009   2.630   5.927   3.750 -0.2265 -0.5354  1.3322
13840TIP3   OH263010   6.706   4.487   5.833 -0.4324 -0.1996 -0.4681
13840TIP3    H163011   6.738   4.400   5.859 -0.0612  0.0344 -0.1446
13840TIP3    H263012   6.623   4.497   5.880  0.1461  0.1488  0.5036
13841TIP3   OH263013   0.113   6.831   3.897 -0.1389 -0.1059  0.1546
13841TIP3    H163014   0.050   6.763   3.873 -0.8832  0.6494 -0.0982
13841TIP3    H263015   0.085   6.859   3.984 -2.1482  2.3806 -1.1462
13842TIP3   OH263016   2.096   5.277   2.471  0.2259 -0.0816 -0.2545
13842TIP3    H163017   2.007   5.272   2.436 -0.4139  1.4965  1.0404
13842TIP3    H263018   2.142   5.337   2.413 -0.1903  0.7903  0.3065
13843TIP3   OH263019   6.276   5.966  16.051 -0.0967  0.2133  0.2260
13843TIP3    H163020   6.263   6.056  16.080  1.8959  1.2447 -1.8013
13843TIP3    H263021   6.210   5.953  15.983  0.9894  0.9673 -1.0223
13844TIP3   OH263022   4.899   5.838   1.606  0.4520  0.5628  0.1966
13844TIP3    H163023   4.915   5.786   1.685 -0.1382  2.3480  1.5786
13844TIP3    H263024   4.985   5.857   1.570  0.6542 -2.0154 -0.8513
13845TIP3   OH263025   3.339   2.700  13.175 -0.3613 -0.1021  0.6550
13845TIP3    H163026   3.304   2.645  13.105  0.1630  1.4631 -0.9036
13845TIP3    H263027   3.419   2.738  13.138 -1.4842  2.9149  1.0348
13846TIP3   OH263028   1.904   6.506  11.252  0.3083  0.1287  0.0801
13846TIP3    H163029   1.851   6.581  11.279  0.5557 -0.3654  2.1114
13846TIP3    H263030   1.943   6.532  11.169 -0.6859  1.7105  0.0805
13847TIP3   OH263031   4.654   2.788   2.469  0.0098  0.0415  0.2844
13847TIP3    H163032   4.582   2.770   2.530 -0.6369 -1.6786 -0.9027
13847TIP3    H263033   4.733   2.763   2.517 -0.2691  0.8198  1.1799
13848TIP3   OH263034   3.600   1.730  12.738 -0.3268 -0.0803 -0.4472
13848TIP3    H163035   3.616   1.648  12.783 -0.9782  1.2685  2.4962
13848TIP3    H263036   3.681   1.747  12.689  0.1938 -1.9246 -0.3000
13849TIP3   OH263037   2.618   2.770   4.901  0.0071  0.1144  0.6293
13849TIP3    H163038   2.674   2.843   4.929  0.0805  0.3460 -0.1072
13849TIP3    H263039   2.588   2.795   4.814 -1.2090 -0.0390  0.9941
13850TIP3   OH263040   0.600   0.865   5.440 -0.5254  0.1100  0.4350
13850TIP3    H163041   0.613   0.806   5.366  0.3402 -0.1583  0.7850
13850TIP3    H263042   0.689   0.890   5.467 -0.8609  1.7405  0.1663
13851TIP3   OH263043   4.473   4.793  11.692 -0.1888  0.2365 -0.3326
13851TIP3    H163044   4.456   4.707  11.729  1.8736  0.1206  0.4686
13851TIP3    H263045   4.492   4.776  11.599 -0.5859 -0.0734 -0.3562
13852TIP3   OH263046   4.587   2.486  14.155 -0.3480 -0.5972 -0.0124
13852TIP3    H163047   4.569   2.523  14.242 -0.2452 -1.1611  0.2581
13852TIP3    H263048   4.531   2.536  14.096  0.2364  0.3915  0.2423
13853TIP3   OH263049   0.170   2.796  12.295  0.0633 -0.4288  0.5722
13853TIP3    H163050   0.093   2.852  12.304 -0.1685 -0.7000  0.2957
13853TIP3    H263051   0.135   2.708  12.281  0.3929 -0.3783 -0.7558
13854TIP3   OH263052   6.548   6.657   4.327 -0.1624 -0.5463  0.3905
13854TIP3    H163053   6.517   6.738   4.366 -0.2408 -1.1623  1.6365
13854TIP3    H263054   6.499   6.588   4.372  0.5017 -1.3350 -0.0622
13855TIP3   OH263055   2.916   5.899  13.276  0.0670  0.5956 -0.1755
13855TIP3    H163056   2.930   5.930  13.186  0.1204 -0.3663 -0.5086
13855TIP3    H263057   2.843   5.837  13.269  0.1936  0.3720  0.4097
13856TIP3   OH263058   3.745   1.210   5.572  0.0731 -0.7760 -0.2084
13856TIP3    H163059   3.811   1.270   5.607 -0.3623  1.1031 -2.3817
13856TIP3    H263060   3.771   1.197   5.481 -1.3080 -1.8275 -0.4844
13857TIP3   OH263061   2.339   4.549  13.976  0.5005 -0.0722 -0.1126
13857TIP3    H163062   2.296   4.615  14.031 -2.1876 -1.0043 -0.9228
13857TIP3    H263063   2.345   4.471  14.032  2.7000  0.4681  0.4983
13858TIP3   OH263064   5.230   1.531   2.074  0.4527 -0.0057 -0.3871
13858TIP3    H163065   5.189   1.560   1.993 -3.8343 -0.7902  1.1951
13858TIP3    H263066   5.194   1.589   2.141  0.5094 -1.9325  1.4181
13859TIP3   OH263067   2.776   1.564   2.024 -0.2832  0.2686 -0.2835
13859TIP3    H163068   2.783   1.499   2.094 -0.1091  0.6871  0.0937
13859TIP3    H263069   2.833   1.635   2.052  0.2822  0.1669 -1.1627
13860TIP3   OH263070   4.765   2.986   4.494 -0.0177 -0.0788 -0.0798
13860TIP3    H163071   4.674   3.011   4.510 -0.3277 -0.3156 -1.3479
13860TIP3    H263072   4.760   2.894   4.468  0.5580 -0.0212 -0.4061
13861TIP3   OH263073   2.367   6.046   1.994 -0.4517 -0.0812 -0.0454
13861TIP3    H163074   2.439   6.086   2.043 -0.1618  0.6300 -1.0103
13861TIP3    H263075   2.382   5.952   2.002  0.2596  0.0497  0.2438
13862TIP3   OH263076   2.451   4.013   2.648  0.4519  0.1242 -0.0991
13862TIP3    H163077   2.435   4.002   2.554  1.7541 -1.2709 -0.2043
13862TIP3    H263078   2.367   3.994   2.690  0.1428 -0.3755 -0.9290
13863TIP3   OH263079   0.270   1.958  15.324 -0.7525  0.3189 -0.1272
13863TIP3    H163080   0.207   1.885  15.326 -0.6337  0.0926 -1.9763
13863TIP3    H263081   0.350   1.922  15.363 -1.5040  0.3394  1.4657
13864TIP3   OH263082   5.596   1.106  13.235  0.0598  0.5099  0.5721
13864TIP3    H163083   5.577   1.190  13.276  2.2580 -0.5160  4.1072
13864TIP3    H263084   5.513   1.078  13.197 -0.9515  3.7824  0.0456
13865TIP3   OH263085   2.670   4.865   1.642 -1.1109  0.3413  0.1151
13865TIP3    H163086   2.658   4.810   1.719  0.0593 -0.9022 -0.5346
13865TIP3    H263087   2.695   4.804   1.573  0.9159  1.7164 -0.4825
13866TIP3   OH263088   5.481   4.300   3.498 -0.3629  0.3805 -0.2462
13866TIP3    H163089   5.449   4.387   3.473 -1.0735  0.1555 -0.1459
13866TIP3    H263090   5.513   4.263   3.416 -1.0328  0.3388 -0.5034
13867TIP3   OH263091   4.828   6.274   5.616  0.0260  0.8407 -0.2200
13867TIP3    H163092   4.846   6.181   5.631 -0.3511  0.9246  0.8228
13867TIP3    H263093   4.914   6.313   5.600  0.3023  0.4969  0.4211
13868TIP3   OH263094   2.339   2.422   0.319 -0.1770  0.2667  0.3187
13868TIP3    H163095   2.297   2.377   0.246  0.9610 -0.7754  0.2765
13868TIP3    H263096   2.333   2.361   0.393  0.0130  0.6810  0.6870
13869TIP3   OH263097   0.468   3.092  10.819  0.1000  0.7038 -0.2664
13869TIP3    H163098   0.437   3.167  10.870 -2.4837 -0.1483 -0.4136
13869TIP3    H263099   0.474   3.126  10.729  0.4777  1.1227 -0.0870
13870TIP3   OH263100   4.527   6.746   0.714 -0.3140 -0.2875 -0.1591
13870TIP3    H163101   4.560   6.712   0.797  0.2724 -1.2030 -0.7487
13870TIP3    H263102   4.492   6.669   0.669  0.5209 -0.0330 -1.2906
13871TIP3   OH263103   3.507   4.828   2.251  0.3291  0.0017  0.2225
13871TIP3    H163104   3.538   4.826   2.161  0.3609  1.0748  0.2011
13871TIP3    H263105   3.576   4.873   2.300  1.5524 -2.8352  1.3083
13872TIP3   OH263106   4.629   3.116   2.098 -0.4908  0.4410 -0.4801
13872TIP3    H163107   4.591   3.093   2.183  1.9633  0.6371  0.7690
13872TIP3    H263108   4.688   3.044   2.077 -0.9727  0.4455 -1.9993
13873TIP3   OH263109   1.227   3.234   6.068  0.0020  0.2017  0.3671
13873TIP3    H163110   1.321   3.253   6.064  0.6040 -2.6581 -1.0452
13873TIP3    H263111   1.221   3.139   6.077 -2.7376 -0.0292 -2.2742
13874TIP3   OH263112   0.003   6.608   0.427 -0.2157  0.7605  0.4657
13874TIP3    H163113   0.035   6.581   0.513  0.5377  1.8235  0.5397
13874TIP3    H263114  -0.043   6.532   0.393  0.3905 -0.0262  1.3671
13875TIP3   OH263115   6.298   2.961   0.768  0.1393 -0.2561 -0.0884
13875TIP3    H163116   6.227   3.025   0.764 -0.8406 -1.3516 -1.0285
13875TIP3    H263117   6.277   2.898   0.700  0.7317 -1.9231  1.2084
13876TIP3   OH263118   1.694   4.406  12.433 -0.2788  0.6172  0.2639
13876TIP3    H163119   1.600   4.409  12.447 -0.5651 -2.1697 -0.4736
13876TIP3    H263120   1.726   4.345  12.499  1.0839  1.6557  0.6191
13877TIP3   OH263121   3.152   0.070   2.705  0.4293 -0.0197 -0.7622
13877TIP3    H163122   3.239   0.074   2.665  1.1855  3.2597  0.8684
13877TIP3    H263123   3.098   0.127   2.650 -0.0608 -0.1735 -0.4394
13878TIP3   OH263124   4.300   2.241  14.204  0.3313  0.4219  0.3623
13878TIP3    H163125   4.322   2.232  14.297 -0.9915  0.4519  0.6954
13878TIP3    H263126   4.375   2.204  14.158  0.2937 -1.1687  1.4823
13879TIP3   OH263127   4.403   4.969  16.354 -0.2073 -0.0479 -0.6033
13879TIP3    H163128   4.389   4.877  16.373 -0.1526  0.3425  1.6037
13879TIP3    H263129   4.319   5.010  16.374 -0.2986  0.3819 -1.7762
13880TIP3   OH263130   5.179   0.540   3.285 -0.0330  0.4573 -0.1525
13880TIP3    H163131   5.093   0.532   3.243 -0.3868 -1.3539  0.8165
13880TIP3    H263132   5.233   0.475   3.242  1.2102  2.2658 -1.4470
13881TIP3   OH263133   4.678   1.024  16.451 -0.3440 -0.1357 -0.8195
13881TIP3    H163134   4.642   0.982  16.529 -0.7363  0.3101 -0.7555
13881TIP3    H263135   4.644   1.114  16.454  0.6321  0.2530 -0.8446
13882TIP3   OH263136   5.283   3.834   1.481 -0.2920 -0.4988  0.1306
13882TIP3    H163137   5.257   3.758   1.534 -1.3708  0.9175  1.7246
13882TIP3    H263138   5.323   3.894   1.544  0.9779  0.0948 -1.1946
13883TIP3   OH263139   4.392   2.453   2.481  0.3857 -0.2687  0.6141
13883TIP3    H163140   4.432   2.442   2.395 -0.4394  1.3121 -0.0084
13883TIP3    H263141   4.464   2.480   2.537  0.9819 -1.5519  0.5194
13884TIP3   OH263142   1.102   0.181  11.394 -0.8790  0.0948  0.2141
13884TIP3    H163143   1.134   0.135  11.472 -0.6484 -0.5001 -0.2233
13884TIP3    H263144   1.020   0.221  11.422  1.0134  3.2209  1.9420
13885TIP3   OH263145   0.945   5.926   0.149 -0.1950  0.1373 -0.1261
13885TIP3    H163146   0.889   5.964   0.083 -1.3273  0.0595  0.7610
13885TIP3    H263147   0.981   5.847   0.108  0.3719  0.9223 -1.1748
13886TIP3   OH263148   1.024   5.412   2.478  0.4592  0.1036 -0.1170
13886TIP3    H163149   0.987   5.500   2.482 -0.5865 -0.3533  1.1726
13886TIP3    H263150   0.997   5.371   2.560  1.8571 -1.0672 -0.2053
13887TIP3   OH263151   6.348   3.319  15.834  0.2032  0.1530 -0.0153
13887TIP3    H163152   6.436   3.299  15.801 -0.4946 -1.2478 -1.1297
13887TIP3    H263153   6.301   3.355  15.759 -0.7773 -1.0440  0.0006
13888TIP3   OH263154   5.665   5.811   4.667 -0.2672 -0.4047 -0.3183
13888TIP3    H163155   5.665   5.881   4.732  1.8419 -0.2782 -0.3720
13888TIP3    H263156   5.755   5.808   4.636 -1.0035 -1.0776 -2.5861
13889TIP3   OH263157   4.002   0.801   6.197  0.0137  0.0150 -0.5655
13889TIP3    H163158   3.911   0.773   6.185 -0.6228  1.6072  0.2801
13889TIP3    H263159   4.050   0.758   6.126 -0.6751 -3.8178  1.0277
13890TIP3   OH263160   4.555   1.299  13.051  0.3397  0.0898 -0.0145
13890TIP3    H163161   4.476   1.346  13.026  0.5249  0.3487 -0.1217
13890TIP3    H263162   4.588   1.263  12.969  0.1567 -0.2900  0.0791
13891TIP3   OH263163   6.236   3.764  11.678 -0.1079 -0.7635 -0.2421
13891TIP3    H163164   6.204   3.710  11.750  0.6046 -0.2632  0.4631
13891TIP3    H263165   6.195   3.726  11.600  0.1622 -2.1351  0.2587
13892TIP3   OH263166   3.400   3.763  15.827 -0.5209  0.1681  0.1133
13892TIP3    H163167   3.304   3.768  15.827 -0.5261  0.3091 -0.9801
13892TIP3    H263168   3.419   3.675  15.859 -0.9963  0.3677  0.9659
13893TIP3   OH263169   5.721   1.347  10.450  0.5613 -0.2523 -0.2096
13893TIP3    H163170   5.686   1.262  10.423 -0.0714 -0.3739  0.8998
13893TIP3    H263171   5.756   1.386  10.370 -3.0758  0.3252 -1.7248
13894TIP3   OH263172   6.175   6.155  11.320 -0.2370 -0.3052  0.1775
13894TIP3    H163173   6.222   6.192  11.394 -0.4420 -3.0388  1.8341
13894TIP3    H263174   6.144   6.070  11.351 -1.1164 -1.2155 -2.7832
13895TIP3   OH263175   5.254   6.085   4.405  0.0159 -0.0533  0.3013
13895TIP3    H163176   5.221   6.101   4.494  1.9392 -0.8555  1.2124
13895TIP3    H263177   5.298   6.166   4.381 -0.2832  0.0722  0.1648
13896TIP3   OH263178   0.898   0.684  16.687  0.2972  0.1512 -0.1173
13896TIP3    H163179   0.842   0.665  16.612  0.9269  0.7639 -0.7562
13896TIP3    H263180   0.978   0.632  16.672  0.8772  1.1147 -0.4475
13897TIP3   OH263181   1.214   5.321   2.690  0.3967 -0.1146  0.3225
13897TIP3    H163182   1.227   5.256   2.620 -0.3769  0.2110 -0.1391
13897TIP3    H263183   1.221   5.271   2.771  0.9224 -0.5691  0.0053
13898TIP3   OH263184   2.625   0.854  16.964 -0.3590 -0.1709 -0.1829
13898TIP3    H163185   2.546   0.808  16.991  0.0174 -0.0931  1.0956
13898TIP3    H263186   2.644   0.915  17.035  0.8174 -0.1513 -0.4845
13899TIP3   OH263187   6.014   6.344  11.174  0.0598  0.3895 -0.1918
13899TIP3    H163188   6.067   6.288  11.230 -0.2655  1.0832  0.8332
13899TIP3    H263189   5.961   6.396  11.235 -2.7573 -1.1262 -1.1240
13900TIP3   OH263190   4.327   3.566   2.495  0.2612  0.1314  0.1109
13900TIP3    H163191   4.339   3.529   2.582  1.6842  0.0441 -0.0898
13900TIP3    H263192   4.289   3.653   2.510  1.1757  0.4148  0.8819
13901TIP3   OH263193   5.414   4.817   0.632 -0.1035 -0.1752  0.1733
13901TIP3    H163194   5.412   4.724   0.613  1.6836 -0.3114  0.5362
13901TIP3    H263195   5.480   4.827   0.701  0.9161  1.5294 -0.9704
13902TIP3   OH263196   0.418   0.503   1.284  0.3121  0.4516 -0.2051
13902TIP3    H163197   0.377   0.583   1.251  0.1119  0.4626  0.0668
13902TIP3    H263198   0.425   0.517   1.378 -1.8170 -0.7555  0.2067
13903TIP3   OH263199   4.743   2.098  15.046 -0.1050  0.0750  0.6873
13903TIP3    H163200   4.665   2.093  14.992  0.7276 -0.2107 -0.5255
13903TIP3    H263201   4.739   2.185  15.087 -0.9409  0.1355  0.4891
13904TIP3   OH263202   1.204   2.917   0.662 -0.2863  0.1742  0.3162
13904TIP3    H163203   1.174   2.925   0.572 -0.0396 -2.4161 -0.0648
13904TIP3    H263204   1.281   2.974   0.667  0.4518 -0.5802 -1.5122
13905TIP3   OH263205   4.681   1.701   2.339 -0.3661 -0.3260  0.7409
13905TIP3    H163206   4.664   1.735   2.427 -2.5293  0.8629 -0.0511
13905TIP3    H263207   4.633   1.760   2.281  0.9804 -1.0959 -1.2621
13906TIP3   OH263208   6.032   6.833   3.900  0.4149  0.1231  0.0913
13906TIP3    H163209   6.040   6.739   3.884 -1.8268 -0.4596  1.9208
13906TIP3    H263210   6.086   6.849   3.977  0.1164  0.1517  0.2967
13907TIP3   OH263211   1.842   1.846  11.494 -0.0048  0.0179  0.1118
13907TIP3    H163212   1.780   1.917  11.512 -0.1010  0.3824 -1.4706
13907TIP3    H263213   1.918   1.890  11.454  1.9680 -0.2316  3.2348
13908TIP3   OH263214   3.605   0.471   0.844  0.0297 -0.4533  0.3089
13908TIP3    H163215   3.545   0.412   0.889  2.5636 -1.2714  2.9294
13908TIP3    H263216   3.645   0.418   0.776  0.2174 -0.8952  0.7629
13909TIP3   OH263217   6.282   3.940   5.135 -0.2884 -0.7469  0.3082
13909TIP3    H163218   6.275   3.865   5.075  0.2513  0.6909 -1.6592
13909TIP3    H263219   6.372   3.970   5.125 -1.0959  1.5792 -0.8210
13910TIP3   OH263220   1.304   5.349  15.470  0.6245 -0.2086  0.9510
13910TIP3    H163221   1.355   5.328  15.391 -0.5993 -0.3431  0.1642
13910TIP3    H263222   1.316   5.443  15.481  1.3395 -0.2975  1.0007
13911TIP3   OH263223   3.037   1.562   4.087  0.1731  0.1554 -0.2369
13911TIP3    H163224   3.111   1.618   4.110  0.7879 -0.2372 -1.1972
13911TIP3    H263225   3.050   1.482   4.138 -0.6799  0.8395  1.0982
13912TIP3   OH263226   5.887   4.577  11.720 -0.3580  0.5347  0.0816
13912TIP3    H163227   5.890   4.537  11.633 -1.1881 -1.8211  1.0443
13912TIP3    H263228   5.948   4.650  11.715 -1.3392  1.2981 -2.8449
13913TIP3   OH263229   0.899   4.933   2.158  0.6094 -0.5632  0.6501
13913TIP3    H163230   0.900   5.009   2.100 -0.0031 -0.9631  0.1037
13913TIP3    H263231   0.806   4.914   2.170  0.6543 -3.3580 -2.1057
13914TIP3   OH263232   3.638   2.510   4.367  0.3930  0.5163 -0.3902
13914TIP3    H163233   3.563   2.568   4.380 -2.4914 -2.3381 -2.7665
13914TIP3    H263234   3.632   2.447   4.438  1.5387  1.1213  0.2757
13915TIP3   OH263235   2.242   4.631  14.203  0.2416 -0.3567 -0.9098
13915TIP3    H163236   2.184   4.572  14.251  0.7215  0.3678  0.6287
13915TIP3    H263237   2.291   4.678  14.272  0.8089  0.8731 -2.1045
13916TIP3   OH263238   3.236   3.699  10.899 -0.4928 -0.0855  0.0180
13916TIP3    H163239   3.256   3.612  10.865  0.7386  0.1715  0.0286
13916TIP3    H263240   3.297   3.710  10.973 -0.5760  0.8053 -0.0318
13917TIP3   OH263241   5.762   4.097   5.556  0.1580  0.3271  0.3227
13917TIP3    H163242   5.685   4.149   5.579 -2.0678 -3.0695  1.2388
13917TIP3    H263243   5.820   4.106   5.631 -1.0863 -0.0661  1.3570
13918TIP3   OH263244   5.069   3.262  13.094 -0.6865  0.4246 -0.0592
13918TIP3    H163245   5.055   3.179  13.049 -1.1318  0.6195 -0.2935
13918TIP3    H263246   5.095   3.323  13.025 -0.4113  0.4894  0.1025
13919TIP3   OH263247   3.332   6.482   3.197 -0.3579  0.4235 -0.1889
13919TIP3    H163248   3.309   6.568   3.231  0.2462  0.2778  0.6154
13919TIP3    H263249   3.311   6.421   3.268  1.2921  0.1591  0.1250
13920TIP3   OH263250   4.408   5.333   1.277 -0.0681 -0.0211  0.1439
13920TIP3    H163251   4.465   5.392   1.326  0.5167 -1.4182  1.2061
13920TIP3    H263252   4.410   5.250   1.326  1.0867 -1.7269 -2.5573
13921TIP3   OH263253   2.752   1.443  12.774  0.3518 -0.0180  0.4075
13921TIP3    H163254   2.696   1.418  12.848 -0.3437  0.8361  0.1848
13921TIP3    H263255   2.840   1.417  12.801  0.2064  0.8448  1.8096
13922TIP3   OH263256   3.136   1.803   1.573  0.5168  0.2565 -0.3381
13922TIP3    H163257   3.048   1.772   1.550  0.3044  0.7224 -0.1576
13922TIP3    H263258   3.194   1.757   1.512  0.2228 -0.6058  0.0107
13923TIP3   OH263259   5.632   3.964   2.965 -0.3116  0.5984 -0.9930
13923TIP3    H163260   5.557   3.905   2.960 -0.5624  0.9711 -1.9947
13923TIP3    H263261   5.637   3.991   3.056 -1.6966  0.9542 -1.0094
13924TIP3   OH263262   1.735   4.572   0.405 -0.0976  0.7972 -0.3433
13924TIP3    H163263   1.648   4.569   0.444 -0.0087  0.7475 -0.1502
13924TIP3    H263264   1.722   4.542   0.315 -0.2772  0.7777 -0.3108
13925TIP3   OH263265   4.541   3.017   2.346 -0.3486 -0.3500 -0.1980
13925TIP3    H163266   4.573   2.944   2.399  0.3236  1.5790  2.2321
13925TIP3    H263267   4.446   3.009   2.351 -0.2927 -0.6013  0.7449
13926TIP3   OH263268   6.753   6.040  14.071  0.0183  0.1618 -0.2300
13926TIP3    H163269   6.741   6.133  14.089 -1.0036  0.3845 -1.8845
13926TIP3    H263270   6.665   6.003  14.079  0.6970 -1.1386  2.5675
13927TIP3   OH263271   4.086   2.585   4.937 -0.5716  0.2485 -0.2225
13927TIP3    H163272   4.095   2.560   5.029  1.0275  3.3484  0.5657
13927TIP3    H263273   4.173   2.572   4.899 -1.3443 -1.5588 -1.5446
13928TIP3   OH263274   0.339   2.543  14.537  0.3445 -0.6407 -0.0580
13928TIP3    H163275   0.337   2.456  14.578 -0.5707 -0.9675 -0.7580
13928TIP3    H263276   0.331   2.526  14.443 -0.6657  0.2180 -0.1594
13929TIP3   OH263277   6.047   6.337  12.420  0.0955  0.3659  0.1402
13929TIP3    H163278   5.965   6.383  12.404 -0.1044  0.1385  0.4919
13929TIP3    H263279   6.058   6.339  12.515 -0.2298 -0.8250  0.2205
13930TIP3   OH263280   2.837   3.231  14.138 -0.1772  0.1655  0.1374
13930TIP3    H163281   2.896   3.291  14.183 -0.2254  0.6881 -0.4864
13930TIP3    H263282   2.894   3.178  14.082  0.0872 -1.5521  1.8965
13931TIP3   OH263283   1.065   4.689   1.232 -0.6006  0.5235 -0.6450
13931TIP3    H163284   1.122   4.641   1.292  1.8308 -0.8981 -3.7511
13931TIP3    H263285   0.993   4.628   1.213 -0.5665  0.3700 -0.2865
13932TIP3   OH263286   3.171   2.954  15.918  0.1882 -0.2580 -0.1354
13932TIP3    H163287   3.225   2.911  15.984 -0.3419 -1.0606 -0.2060
13932TIP3    H263288   3.164   3.045  15.947  1.8235 -0.0535 -0.2917
13933TIP3   OH263289   1.730   4.014  12.881 -0.7028  0.1939 -0.1657
13933TIP3    H163290   1.767   3.942  12.931 -1.6656 -0.6250 -0.5829
13933TIP3    H263291   1.727   4.088  12.942 -1.1775 -0.5726  0.7694
13934TIP3   OH263292   0.729   6.800  16.584  0.8141  0.2985 -0.0020
13934TIP3    H163293   0.685   6.884  16.592 -0.3082 -0.2509 -0.2668
13934TIP3    H263294   0.818   6.822  16.555  0.8121  1.4333  0.7937
13935TIP3   OH263295   6.310   1.676   1.893 -0.0356  0.2303 -0.1455
13935TIP3    H163296   6.372   1.748   1.899 -0.7493  0.7399  1.4855
13935TIP3    H263297   6.310   1.635   1.979 -1.9939  0.2876 -0.0625
13936TIP3   OH263298   0.004   6.195  13.518  0.1851  0.1332  0.8630
13936TIP3    H163299  -0.001   6.265  13.454 -0.9597 -0.5534  0.1522
13936TIP3    H263300   0.097   6.174  13.525  0.3782  0.6379 -0.1077
13937TIP3   OH263301   2.635   4.198  13.474  0.0184  0.0582 -0.1719
13937TIP3    H163302   2.685   4.218  13.395 -0.4245  0.6095 -0.3164
13937TIP3    H263303   2.633   4.281  13.522 -1.0801  0.1435 -0.3500
13938TIP3   OH263304   4.957   3.845   1.180 -0.1650 -0.4023  0.5706
13938TIP3    H163305   5.053   3.844   1.185 -0.0248 -4.2496  0.5612
13938TIP3    H263306   4.929   3.817   1.268 -1.2433  0.0379  0.3704
13939TIP3   OH263307   1.212   2.131   3.361 -0.4156  0.2329 -0.1631
13939TIP3    H163308   1.283   2.137   3.298  0.8866 -0.8799  1.1287
13939TIP3    H263309   1.253   2.148   3.446 -1.9745  0.9763  0.4941
13940TIP3   OH263310   0.643   6.171  16.512  0.0759 -0.2366 -0.4435
13940TIP3    H163311   0.555   6.207  16.522  0.2660  1.0697 -2.6882
13940TIP3    H263312   0.662   6.180  16.418  2.0020 -1.9501 -0.2954
13941TIP3   OH263313   0.950   0.820   0.515 -0.1783  0.6774 -0.0470
13941TIP3    H163314   0.884   0.827   0.446  0.8776  2.0029 -0.9819
13941TIP3    H263315   1.010   0.752   0.483 -0.9901 -0.4549  0.7550
13942TIP3   OH263316   4.241   5.463  11.074  0.5736 -0.0446 -0.2354
13942TIP3    H163317   4.153   5.452  11.037  0.2115 -0.1210  0.6433
13942TIP3    H263318   4.245   5.555  11.100  0.9757  0.1095 -0.8078
13943TIP3   OH263319   2.761   1.491   0.993 -0.0253  0.3938 -0.1762
13943TIP3    H163320   2.819   1.510   1.067 -1.3246  0.7771  0.7606
13943TIP3    H263321   2.683   1.543   1.009 -0.0206  1.0977 -2.2522
13944TIP3   OH263322   5.560   6.563  12.628 -0.1925  0.3991  0.4626
13944TIP3    H163323   5.640   6.553  12.576 -0.1316  2.1138  0.1728
13944TIP3    H263324   5.567   6.497  12.696  0.5856 -0.7046 -0.6424
13945TIP3   OH263325   2.591   4.411   2.908 -0.2347  0.1533 -0.0267
13945TIP3    H163326   2.560   4.460   2.984  0.8690  1.0341 -0.1202
13945TIP3    H263327   2.656   4.350   2.944  1.1211  1.3369 -0.3591
13946TIP3   OH263328   4.389   0.836  14.694  0.1946  0.0264  0.2880
13946TIP3    H163329   4.418   0.888  14.619 -4.1483  0.9754 -1.0029
13946TIP3    H263330   4.366   0.751  14.657  0.9629 -0.5822  1.1702
13947TIP3   OH263331   2.843   2.028   1.419  0.6657 -0.6030  0.4682
13947TIP3    H163332   2.878   2.047   1.332  1.4075 -1.0667  0.6533
13947TIP3    H263333   2.869   2.103   1.472  1.2930 -0.8777  0.5695
13948TIP3   OH263334   6.626   0.532  14.835 -0.0348  0.2991  0.4593
13948TIP3    H163335   6.604   0.443  14.806 -0.8217  1.0879 -1.6136
13948TIP3    H263336   6.709   0.551  14.791 -0.1609  0.7908  0.4325
13949TIP3   OH263337   3.553   2.707  14.630  0.6310 -0.3303  0.0903
13949TIP3    H163338   3.474   2.704  14.577  1.2424 -0.4061 -0.8486
13949TIP3    H263339   3.606   2.776  14.590 -0.0887  1.6718  2.3766
13950TIP3   OH263340   4.100   3.931  11.972 -0.4936 -0.0397  1.1880
13950TIP3    H163341   4.146   3.943  12.055  2.1410 -1.4431  0.0800
13950TIP3    H263342   4.065   3.842  11.976  0.9011 -0.6708  0.3337
13951TIP3   OH263343   2.909   0.322   1.886  0.1019  0.2375 -0.2947
13951TIP3    H163344   2.941   0.399   1.932 -1.4000  1.5646 -1.3693
13951TIP3    H263345   2.819   0.310   1.918 -0.5758  0.5116 -1.9837
13952TIP3   OH263346   2.637   6.497   4.037 -0.6343  0.5994  0.2218
13952TIP3    H163347   2.631   6.431   3.969  1.8479 -0.2122  0.7012
13952TIP3    H263348   2.593   6.574   4.000 -2.4202 -0.8711 -0.8475
13953TIP3   OH263349   3.570   6.795  10.452 -0.3336 -0.9596 -0.3166
13953TIP3    H163350   3.621   6.870  10.422  0.6614 -1.5846 -0.2389
13953TIP3    H263351   3.564   6.738  10.375 -0.9880 -0.8664 -0.3451
13954TIP3   OH263352   6.370   4.172  12.780 -0.5865 -0.0031 -0.4120
13954TIP3    H163353   6.450   4.171  12.727 -0.4682  1.6544 -0.3174
13954TIP3    H263354   6.308   4.117  12.731 -0.0067  0.2800 -1.4968
13955TIP3   OH263355   0.757   3.818   4.738 -0.0235  0.4731  0.3856
13955TIP3    H163356   0.673   3.797   4.698  0.0267 -1.5528  1.2658
13955TIP3    H263357   0.758   3.914   4.742 -1.1707  0.6484 -1.9603
13956TIP3   OH263358   0.788   4.287   2.903 -0.1025 -0.5379 -0.2558
13956TIP3    H163359   0.743   4.246   2.830  0.5677 -1.5349 -0.1223
13956TIP3    H263360   0.840   4.357   2.863 -2.4503  1.2965 -0.3089
13957TIP3   OH263361   5.534   4.056  13.303 -0.1432 -0.4355 -0.0668
13957TIP3    H163362   5.542   3.991  13.234 -0.5764  0.9325 -1.4511
13957TIP3    H263363   5.459   4.109  13.278 -0.1828  0.2348  1.3493
13958TIP3   OH263364   3.686   4.460   0.369 -0.3955 -0.2061 -0.0473
13958TIP3    H163365   3.704   4.534   0.426 -0.7961  1.1517 -1.6042
13958TIP3    H263366   3.746   4.471   0.295 -0.8320 -1.1345 -0.5685
13959TIP3   OH263367   1.824   3.602   4.485  0.4636  0.0627 -0.4550
13959TIP3    H163368   1.860   3.657   4.555 -2.2096  2.1199 -0.5597
13959TIP3    H263369   1.776   3.533   4.531  3.6022 -2.3112 -0.3308
13960TIP3   OH263370   1.519   5.215  16.090 -0.0458 -0.1633 -0.0036
13960TIP3    H163371   1.572   5.290  16.063 -0.6000  0.1775 -0.1614
13960TIP3    H263372   1.468   5.248  16.164  0.2296 -0.5985  0.3824
13961TIP3   OH263373   6.075   0.573  11.046  0.2937  0.6284  0.8647
13961TIP3    H163374   5.992   0.555  11.000  0.2557 -1.7695  1.7076
13961TIP3    H263375   6.134   0.604  10.978 -0.4073 -0.7212 -0.4303
13962TIP3   OH263376   5.570   1.529   1.708 -0.1326 -0.8206 -0.1920
13962TIP3    H163377   5.665   1.525   1.700  0.0965  2.6008 -0.5575
13962TIP3    H263378   5.554   1.552   1.800 -0.2836  2.4352 -0.9307
13963TIP3   OH263379   6.088   6.067   2.845 -0.2069 -0.2249 -0.4759
13963TIP3    H163380   6.116   6.021   2.765 -0.5946 -1.5217  0.1000
13963TIP3    H263381   6.136   6.150   2.842  2.2866 -1.5553 -0.4830
13964TIP3   OH263382   5.097   6.394  16.043 -0.9262 -0.1109 -0.0231
13964TIP3    H163383   5.168   6.458  16.039 -1.3625  0.4454  0.7711
13964TIP3    H263384   5.074   6.377  15.951 -0.3341  0.3422 -0.2577
13965TIP3   OH263385   1.463   5.316   5.661  0.1752 -0.3569 -0.4508
13965TIP3    H163386   1.457   5.326   5.756 -0.9981 -0.1486 -0.5406
13965TIP3    H263387   1.439   5.402   5.626  2.1055  0.0540 -0.9263
13966TIP3   OH263388   0.846   0.952   1.103  0.3732 -0.0469 -0.0615
13966TIP3    H163389   0.806   0.896   1.170 -1.9358  0.3738 -0.9750
13966TIP3    H263390   0.893   1.019   1.153  1.9793 -1.8932  1.0504
13967TIP3   OH263391   0.026   5.980  15.945 -0.2754  0.6226 -0.4058
13967TIP3    H163392  -0.028   5.943  16.015  0.5648  1.1018  0.5331
13967TIP3    H263393  -0.027   5.971  15.866 -1.1124 -0.2540  0.2293
13968TIP3   OH263394   3.576   3.453   0.785  0.0730  0.2513  0.0129
13968TIP3    H163395   3.498   3.408   0.753  0.1859  0.3836 -0.4477
13968TIP3    H263396   3.546   3.542   0.805 -0.4263 -0.3214  2.0355
13969TIP3   OH263397   4.148   0.493  12.304 -0.2107  0.2750  0.1747
13969TIP3    H163398   4.242   0.512  12.296 -0.3490  1.2629  0.6975
13969TIP3    H263399   4.110   0.530  12.224 -0.3357  1.2677  0.6740
13970TIP3   OH263400   5.834   2.726   2.627 -0.7053  0.0440  0.8463
13970TIP3    H163401   5.904   2.789   2.609  0.4004 -1.7069 -1.6027
13970TIP3    H263402   5.779   2.729   2.548 -0.5873 -2.0090  0.6241
13971TIP3   OH263403   4.311   6.786   0.332  0.2448  0.0729 -0.0265
13971TIP3    H163404   4.227   6.800   0.290  0.4727  0.5009 -0.3419
13971TIP3    H263405   4.315   6.852   0.402  0.4847  0.3121 -0.2644
13972TIP3   OH263406   4.290   3.690   0.226 -0.2925  0.2655  0.4197
13972TIP3    H163407   4.267   3.657   0.140  0.8224 -0.5744  0.4239
13972TIP3    H263408   4.226   3.650   0.285  0.7143 -1.5377  0.3526
13973TIP3   OH263409   0.387   4.906  14.316 -0.0396  0.5744  0.2883
13973TIP3    H163410   0.339   4.835  14.360  0.7767  1.4627  2.7241
13973TIP3    H263411   0.320   4.970  14.293 -0.2343  1.2270  2.5281
13974TIP3   OH263412   0.053   3.967  14.119  0.0891 -0.1575  0.6229
13974TIP3    H163413   0.094   3.916  14.049 -1.9044  0.3412 -1.0181
13974TIP3    H263414   0.126   3.999  14.172  1.6423 -1.0622 -0.8739
13975TIP3   OH263415   4.452   2.129   0.756  0.1548 -0.0492  0.1099
13975TIP3    H163416   4.382   2.132   0.821  0.5402 -1.2333  0.5929
13975TIP3    H263417   4.485   2.219   0.753 -0.6214  0.2709  0.7035
13976TIP3   OH263418   1.361   2.570   1.573  0.2649  0.0187 -0.2191
13976TIP3    H163419   1.398   2.658   1.561  0.2474 -0.2131 -2.3148
13976TIP3    H263420   1.437   2.514   1.588  0.3307  0.2761  0.4417
13977TIP3   OH263421   4.684   2.343   1.635 -0.1478  0.5008 -0.6443
13977TIP3    H163422   4.634   2.296   1.702  1.8119 -0.1048  0.4912
13977TIP3    H263423   4.759   2.287   1.617  2.1326  2.9373  0.5253
13978TIP3   OH263424   4.166   2.661  11.073  0.3247 -0.0521  0.2541
13978TIP3    H163425   4.162   2.643  11.166 -1.6580 -2.6850 -0.2247
13978TIP3    H263426   4.247   2.618  11.044  0.6738  0.3260  0.6537
13979TIP3   OH263427   2.204   5.928  12.446 -0.3145 -0.5596  0.7280
13979TIP3    H163428   2.180   6.020  12.450  0.5828 -0.3619  2.7854
13979TIP3    H263429   2.145   5.890  12.381 -1.6023  1.1895  0.8272
13980TIP3   OH263430   5.479   1.704  11.082  0.0181  0.1614 -0.3316
13980TIP3    H163431   5.565   1.742  11.068  0.6154 -0.9759  0.1565
13980TIP3    H263432   5.419   1.778  11.073  0.8868  0.7156 -2.1822
13981TIP3   OH263433   6.787   1.575   1.845  0.9281  0.2414 -0.4407
13981TIP3    H163434   6.788   1.669   1.861 -0.6151  0.3443 -0.8137
13981TIP3    H263435   6.875   1.555   1.812  0.9575  1.7311 -1.3319
13982TIP3   OH263436   2.994   0.790   3.170  0.9197  0.2895 -0.0202
13982TIP3    H163437   2.950   0.800   3.086 -0.0507  0.0040  0.4454
13982TIP3    H263438   2.969   0.704   3.201 -1.0129  1.4260  1.8258
13983TIP3   OH263439   0.325   1.665   5.432 -0.0897 -0.7024 -0.9589
13983TIP3    H163440   0.278   1.730   5.484 -2.1708 -1.2070 -2.0770
13983TIP3    H263441   0.416   1.694   5.432 -0.2495  0.0362  1.7807
13984TIP3   OH263442   6.375   4.636  12.739 -0.4290 -0.1045  0.3865
13984TIP3    H163443   6.388   4.730  12.744  0.2271 -0.2271  1.0909
13984TIP3    H263444   6.463   4.599  12.730 -0.5813 -0.7182  1.2876
13985TIP3   OH263445   0.419   1.529   1.397 -0.0487  0.0441 -0.3095
13985TIP3    H163446   0.455   1.594   1.337 -0.4770 -1.3527 -2.1847
13985TIP3    H263447   0.491   1.507   1.456  1.4039 -0.7544 -2.2709
13986TIP3   OH263448   1.318   3.895  11.617  0.2486 -0.2845 -0.8927
13986TIP3    H163449   1.360   3.881  11.532 -0.3103 -0.4227 -1.1491
13986TIP3    H263450   1.229   3.863  11.606  0.6802 -2.0267  0.3029
13987TIP3   OH263451   3.857   6.773  16.159 -0.2736 -0.7761  0.4590
13987TIP3    H163452   3.811   6.766  16.242 -0.3054 -1.1597  0.4113
13987TIP3    H263453   3.892   6.862  16.158  0.6274 -1.1009  1.3535
13988TIP3   OH263454   6.089   4.295  12.329 -0.2049  0.4955  0.0748
13988TIP3    H163455   6.082   4.200  12.325 -3.1946  0.3844  3.0304
13988TIP3    H263456   6.159   4.312  12.391 -0.8851  0.1115  0.9683
13989TIP3   OH263457   4.855   6.779   5.458 -0.1172  0.6074  0.5072
13989TIP3    H163458   4.833   6.815   5.372 -0.6043  0.6162  0.6348
13989TIP3    H263459   4.931   6.722   5.441 -1.9629 -1.7515 -0.4819
13990TIP3   OH263460   1.063   4.969  16.761  0.4735  0.3125 -0.1488
13990TIP3    H163461   1.102   4.910  16.696 -2.4842 -0.2252 -1.6189
13990TIP3    H263462   1.024   5.039  16.709 -3.3163 -0.9091  0.7135
13991TIP3   OH263463   3.444   4.466  12.203  0.0555 -0.3801  0.5906
13991TIP3    H163464   3.480   4.470  12.292 -0.4228  1.6599  0.7545
13991TIP3    H263465   3.450   4.374  12.178 -1.1046 -1.2581  3.2605
13992TIP3   OH263466   0.144   3.967   1.664 -0.0872  0.6210  0.6136
13992TIP3    H163467   0.168   3.894   1.606 -1.6762  1.3080 -1.0013
13992TIP3    H263468   0.221   4.024   1.663  0.6056 -0.2899  0.6979
13993TIP3   OH263469   6.626   2.238  13.392 -0.1781 -0.4432  0.3984
13993TIP3    H163470   6.692   2.207  13.330  0.8579  0.1165  1.1832
13993TIP3    H263471   6.554   2.269  13.338  0.9637  0.6265 -0.5608
13994TIP3   OH263472   3.687   3.980   6.007 -0.0940 -0.0809  0.0877
13994TIP3    H163473   3.678   3.909   6.071  0.0752  0.2853  0.5298
13994TIP3    H263474   3.694   3.936   5.923  0.3980 -0.6061  0.3950
13995TIP3   OH263475   4.139   1.004  13.829 -0.2377 -0.1772  0.5997
13995TIP3    H163476   4.153   1.099  13.832 -1.3512 -0.0022  1.3255
13995TIP3    H263477   4.213   0.969  13.780 -1.2408  1.3561 -2.2421
13996TIP3   OH263478   4.953   4.284   2.024  0.1370  0.0743  0.1986
13996TIP3    H163479   4.915   4.329   2.099 -0.4293  0.0694 -0.0787
13996TIP3    H263480   5.032   4.241   2.058  0.0325  0.2973  0.7221
13997TIP3   OH263481   3.334   0.700   2.955 -0.0195 -0.2023 -0.1809
13997TIP3    H163482   3.283   0.637   2.904 -0.4425 -1.2175  1.4114
13997TIP3    H263483   3.280   0.718   3.032  1.4649 -0.3382  0.9400
13998TIP3   OH263484   4.952   2.788   4.889 -0.5070 -0.1168 -0.1159
13998TIP3    H163485   4.965   2.864   4.832  1.4483  0.3119  0.8071
13998TIP3    H263486   4.954   2.713   4.830  0.4689  0.3722 -0.7261
13999TIP3   OH263487   1.107   5.943  14.184 -0.0960 -0.0352 -0.3911
13999TIP3    H163488   1.138   5.864  14.139 -0.7611 -0.9416  0.7097
13999TIP3    H263489   1.137   6.015  14.128 -1.7256 -1.1257 -2.8401
14000TIP3   OH263490   2.141   1.529   1.148  0.0567  0.1019 -0.5450
14000TIP3    H163491   2.099   1.604   1.191 -1.1409 -0.0744 -1.3526
14000TIP3    H263492   2.185   1.482   1.219  0.8497  1.5672 -0.0221
14001TIP3   OH263493   2.954   0.748  14.797  0.6583 -0.0634  0.0510
14001TIP3    H163494   2.880   0.721  14.851 -0.8265 -0.5279 -2.0721
14001TIP3    H263495   2.920   0.746  14.708  3.3633 -0.7320 -1.0626
14002TIP3   OH263496   5.324   6.113  13.744  0.3304 -0.3740 -0.3322
14002TIP3    H163497   5.301   6.050  13.676  1.5954  0.1237 -1.2494
14002TIP3    H263498   5.414   6.140  13.724  0.0122  1.3488  0.3171
14003TIP3   OH263499   5.010   1.848   3.258  0.0782 -0.1347 -0.1550
14003TIP3    H163500   4.993   1.754   3.264 -0.5957  0.0263  0.7653
14003TIP3    H263501   5.051   1.871   3.341 -0.4424  0.5106 -0.0609
14004TIP3   OH263502   1.563   5.247  13.046 -0.2830 -0.0866 -0.5174
14004TIP3    H163503   1.516   5.165  13.060 -1.4938  0.5547 -0.6196
14004TIP3    H263504   1.494   5.312  13.032  0.6523  0.8858 -0.8041
14005TIP3   OH263505   3.320   2.683   3.821 -0.5247  0.6013  0.8870
14005TIP3    H163506   3.280   2.742   3.884 -0.7784  0.7237  0.6145
14005TIP3    H263507   3.415   2.693   3.835 -0.5938 -0.0459  1.8587
14006TIP3   OH263508   5.468   3.935  16.672  0.1099 -0.5818  0.1724
14006TIP3    H163509   5.507   3.948  16.586  1.7467  2.1721  1.2104
14006TIP3    H263510   5.524   3.870  16.715  0.6955 -0.2278 -0.0475
14007TIP3   OH263511   5.206   1.081  16.693 -0.3568  1.3789 -0.0636
14007TIP3    H163512   5.256   1.144  16.745 -0.0055  1.7202 -0.7888
14007TIP3    H263513   5.273   1.029  16.648 -0.6337  0.0010  1.0733
14008TIP3   OH263514   2.114   5.429   1.310  0.4675 -0.2062 -0.3435
14008TIP3    H163515   2.206   5.444   1.286  1.2816 -0.9804  1.9720
14008TIP3    H263516   2.106   5.468   1.397 -1.5653  0.2538 -0.6970
14009TIP3   OH263517   3.291   1.117  12.889  0.2054 -0.1706 -0.0764
14009TIP3    H163518   3.330   1.203  12.874  1.2172 -0.3914  1.1583
14009TIP3    H263519   3.254   1.093  12.804  0.9610  0.9488 -0.7523
14010TIP3   OH263520   1.122   3.056   1.016  0.1414 -0.2501  0.2872
14010TIP3    H163521   1.135   2.966   1.045 -0.8948 -0.1840  1.0303
14010TIP3    H263522   1.043   3.052   0.963 -0.3871  0.3492  1.0126
14011TIP3   OH263523   4.314   2.996   1.690 -0.1604 -0.2682  0.3307
14011TIP3    H163524   4.260   2.948   1.627  0.7381  0.7859 -1.2805
14011TIP3    H263525   4.310   2.942   1.769 -2.5759 -0.8493 -0.0815
14012TIP3   OH263526   6.488   4.444   0.081 -0.3382 -0.1027 -0.1422
14012TIP3    H163527   6.475   4.365   0.028  0.9880  0.4594 -1.3891
14012TIP3    H263528   6.515   4.511   0.018  1.0549  0.6676  1.1947
14013TIP3   OH263529   4.282   4.383  14.378 -0.0302 -0.0128 -0.2570
14013TIP3    H163530   4.210   4.435  14.411 -0.4849 -0.3268 -0.7347
14013TIP3    H263531   4.280   4.396  14.283  1.2322  0.8514 -0.1919
14014TIP3   OH263532   6.444   0.233   4.829 -0.0344 -0.1619  0.3547
14014TIP3    H163533   6.515   0.224   4.893 -0.0448 -0.9373  0.2652
14014TIP3    H263534   6.477   0.297   4.766  0.1788  0.2311  0.8598
14015TIP3   OH263535   0.335   4.141  11.299  0.5754 -0.0858  0.5307
14015TIP3    H163536   0.285   4.170  11.376 -0.9749  0.6466 -0.6861
14015TIP3    H263537   0.280   4.167  11.225  1.8665 -1.0881 -0.8136
14016TIP3   OH263538   2.753   5.519   4.498  0.1409 -0.3601 -0.6593
14016TIP3    H163539   2.839   5.562   4.498 -0.2315  0.4068 -1.0454
14016TIP3    H263540   2.708   5.556   4.423 -0.1139 -1.6246 -1.1450
14017TIP3   OH263541   5.643   3.302  15.654  0.4699  0.3499 -0.3457
14017TIP3    H163542   5.678   3.298  15.565 -0.4783  1.9257 -0.8285
14017TIP3    H263543   5.706   3.355  15.703  0.4481  0.3788 -0.3492
14018TIP3   OH263544   2.600   2.250  12.831 -0.5228  0.2996 -0.1394
14018TIP3    H163545   2.685   2.255  12.786  0.2984  1.7462  1.4570
14018TIP3    H263546   2.585   2.338  12.865 -0.5597 -0.8434  3.2367
14019TIP3   OH263547   2.718   2.758  15.078  0.4398 -0.2728  0.4127
14019TIP3    H163548   2.766   2.826  15.031  0.0735  1.3042  2.2101
14019TIP3    H263549   2.632   2.796  15.094  0.2395 -1.1418  1.4977
14020TIP3   OH263550   6.457   0.135  14.146 -0.1573  0.1425  0.4444
14020TIP3    H163551   6.513   0.185  14.087 -0.3819 -2.9298 -2.7219
14020TIP3    H263552   6.374   0.183  14.148  0.5918  1.4661  0.0733
14021TIP3   OH263553   1.142   4.846  12.370 -0.1631 -0.3393 -0.6864
14021TIP3    H163554   1.174   4.793  12.442  0.0391  1.5159  0.6696
14021TIP3    H263555   1.061   4.804  12.342  0.2248 -1.5779  0.0246
14022TIP3   OH263556   6.834   0.725   0.749  0.2460 -0.0728 -0.2810
14022TIP3    H163557   6.881   0.780   0.686 -1.1923  0.2508 -1.1064
14022TIP3    H263558   6.872   0.637   0.737  2.6523  0.6649  1.1454
14023TIP3   OH263559   6.069   1.207   2.955  0.0098 -0.0264 -0.0125
14023TIP3    H163560   6.087   1.184   3.046 -1.1734  0.0587  0.2704
14023TIP3    H263561   6.062   1.124   2.909  0.8988 -0.0621 -0.0954
14024TIP3   OH263562   2.129   3.094  12.189  0.5167  0.4768 -0.0244
14024TIP3    H163563   2.174   3.108  12.105  0.9319 -0.6999 -0.0196
14024TIP3    H263564   2.105   3.181  12.218  0.9994  0.9630 -1.0329
14025TIP3   OH263565   5.959   1.915  12.549 -0.1891 -0.4147  0.2863
14025TIP3    H163566   5.903   1.987  12.518  0.7092 -1.2141 -3.7290
14025TIP3    H263567   5.901   1.863  12.605 -2.4209  0.6724 -0.8509
14026TIP3   OH263568   6.111   6.090   3.148 -0.2337 -0.0327  0.1066
14026TIP3    H163569   6.084   6.062   3.060 -0.2720 -0.7889  0.3477
14026TIP3    H263570   6.107   6.185   3.145  0.3057 -0.0214 -0.8868
14027TIP3   OH263571   6.671   0.961   4.214  0.5507 -0.6332 -0.4315
14027TIP3    H163572   6.593   0.910   4.192 -0.1347  0.3742 -0.4147
14027TIP3    H263573   6.744   0.909   4.181 -0.0965 -1.7930 -0.0773
14028TIP3   OH263574   6.236   2.858   1.008 -0.3806  0.2418  0.5567
14028TIP3    H163575   6.283   2.889   0.931  2.3015 -2.9789  0.6467
14028TIP3    H263576   6.220   2.936   1.061 -0.2908  2.2293 -2.1855
14029TIP3   OH263577   5.428   5.105  10.464  0.3785 -0.1969 -0.3656
14029TIP3    H163578   5.506   5.060  10.496  0.3386 -0.7811 -1.0544
14029TIP3    H263579   5.359   5.038  10.465  0.1950 -0.0233 -0.9197
14030TIP3   OH263580   3.400   6.315   1.549  0.3104  0.6170 -0.3384
14030TIP3    H163581   3.492   6.319   1.572  0.1633  1.1876  0.1725
14030TIP3    H263582   3.363   6.397   1.581 -0.3480  0.4595 -0.6614
14031TIP3   OH263583   2.519   0.278  12.039 -0.2243 -0.4407 -0.2778
14031TIP3    H163584   2.495   0.284  11.946 -1.2665 -0.3709 -0.0123
14031TIP3    H263585   2.612   0.302  12.041 -0.1190 -0.7173 -1.3340
14032TIP3   OH263586   0.537   3.791   2.160 -0.0068  0.0401  0.4702
14032TIP3    H163587   0.582   3.723   2.109  2.8146 -0.5814  3.4360
14032TIP3    H263588   0.470   3.743   2.209  0.1799 -0.1475  0.5469
14033TIP3   OH263589   4.261   1.839  11.853 -0.0532 -0.0953 -0.1825
14033TIP3    H163590   4.292   1.923  11.821  0.3104 -0.0849  0.1996
14033TIP3    H263591   4.170   1.834  11.822  0.2190  0.0054 -1.0342
14034TIP3   OH263592   5.847   6.455   2.701  0.5346  0.1411 -0.0066
14034TIP3    H163593   5.819   6.536   2.744  2.4951  0.2756  1.1644
14034TIP3    H263594   5.931   6.478   2.660  0.9640 -1.2000  0.0719
14035TIP3   OH263595   4.947   1.966   4.007  1.0867 -0.9166  0.0239
14035TIP3    H163596   5.036   1.967   4.041  1.1811 -1.5236 -0.2032
14035TIP3    H263597   4.939   1.882   3.961  0.7511 -0.4011 -0.8958
14036TIP3   OH263598   3.976   5.727   5.655 -0.1090 -0.0554  1.1349
14036TIP3    H163599   3.895   5.706   5.701 -0.3667 -1.6823  0.0198
14036TIP3    H263600   3.974   5.672   5.576  1.2628  1.1492  0.2057
14037TIP3   OH263601   1.233   6.366   4.555  0.2936  0.4850 -0.1866
14037TIP3    H163602   1.190   6.440   4.512 -0.1064  0.9918  1.0496
14037TIP3    H263603   1.309   6.405   4.599  1.2414 -0.1760 -1.1798
14038TIP3   OH263604   4.104   3.646  14.130  0.3821 -0.1127  0.0970
14038TIP3    H163605   4.140   3.558  14.123  0.4683  0.0198 -1.4250
14038TIP3    H263606   4.171   3.695  14.178  0.5609 -0.7389  0.5049
14039TIP3   OH263607   5.020   6.038  16.867 -0.1680  0.1159 -0.2380
14039TIP3    H163608   5.082   6.110  16.873 -1.9483  1.6740  0.4618
14039TIP3    H263609   5.014   6.004  16.956 -0.8535  0.4708 -0.1414
14040TIP3   OH263610   2.815   4.324   1.778  0.6433 -0.2295  0.7786
14040TIP3    H163611   2.863   4.249   1.746  0.7590  0.5030 -0.8541
14040TIP3    H263612   2.748   4.340   1.712  1.3528  1.7834  0.4723
14041TIP3   OH263613   3.237   3.790  16.257  0.4450 -0.4307 -0.5149
14041TIP3    H163614   3.216   3.883  16.247  1.4060 -0.2853 -1.2987
14041TIP3    H263615   3.213   3.770  16.347  0.1571  0.5571 -0.3577
14042TIP3   OH263616   3.111   5.186  12.044 -0.3068  0.7301  0.3601
14042TIP3    H163617   3.160   5.221  11.969 -0.5383 -0.3365 -0.3057
14042TIP3    H263618   3.168   5.202  12.119  0.5886  0.4812 -0.2512
14043TIP3   OH263619   3.352   6.624   4.278  0.1139  0.5014  0.1820
14043TIP3    H163620   3.264   6.619   4.315 -0.3037 -0.1655 -0.8807
14043TIP3    H263621   3.375   6.717   4.282 -1.0584  0.8329 -0.4931
14044TIP3   OH263622   6.463   4.140  16.295  0.1097  0.2396  0.0811
14044TIP3    H163623   6.552   4.104  16.300  0.3340  0.8420  0.6030
14044TIP3    H263624   6.407   4.063  16.281  0.4648 -0.5089  2.2264
14045TIP3   OH263625   0.926   0.441   0.279  0.3624  0.0305  0.4070
14045TIP3    H163626   0.901   0.378   0.347  0.4201 -0.9918 -0.5120
14045TIP3    H263627   0.982   0.504   0.325  0.2681 -0.5543  1.3437
14046TIP3   OH263628   4.120   0.275  13.334  0.0906  0.0221  0.0616
14046TIP3    H163629   4.063   0.269  13.258  0.3369 -1.6948 -0.0312
14046TIP3    H263630   4.197   0.322  13.302  0.0120 -0.3092 -0.6333
14047TIP3   OH263631   6.279   4.545  12.060  0.5031  0.4131 -0.3580
14047TIP3    H163632   6.252   4.511  12.145  0.9305 -1.2022 -0.8303
14047TIP3    H263633   6.244   4.634  12.057 -1.9361 -0.4357  0.3755
14048TIP3   OH263634   2.220   3.268  15.417  0.4403  0.1526  0.4014
14048TIP3    H163635   2.248   3.337  15.477 -1.4971 -0.9997  2.8163
14048TIP3    H263636   2.142   3.303  15.374 -1.7731 -0.9706  3.0857
14049TIP3   OH263637   0.507   1.446  13.288  0.5104 -0.5392  0.0490
14049TIP3    H163638   0.600   1.423  13.292  1.1775  0.5502 -4.1552
14049TIP3    H263639   0.507   1.542  13.295 -0.0957 -0.4321 -1.1623
14050TIP3   OH263640   1.198   1.644  12.899 -0.0488 -0.1917  0.2146
14050TIP3    H163641   1.220   1.644  12.806  1.5733 -0.5013  0.5775
14050TIP3    H263642   1.274   1.606  12.942 -0.9275 -0.4146  1.6485
14051TIP3   OH263643   3.381   1.247   2.196 -0.3496 -0.3122 -0.5173
14051TIP3    H163644   3.444   1.177   2.215  0.1006  0.3470  0.4952
14051TIP3    H263645   3.389   1.261   2.101  0.9410 -0.3409 -0.4419
14052TIP3   OH263646   0.929   6.740   4.196 -0.3301 -0.1840  0.2806
14052TIP3    H163647   1.019   6.742   4.163  0.1734 -0.9187  1.5471
14052TIP3    H263648   0.883   6.805   4.142  1.4243  1.7020  0.9319
14053TIP3   OH263649   3.605   2.911   2.970  0.0586 -0.9876  0.2897
14053TIP3    H163650   3.683   2.873   3.010  0.5127 -1.7421 -1.2014
14053TIP3    H263651   3.546   2.836   2.955 -0.4570 -0.6016  0.3558
14054TIP3   OH263652   0.866   1.610   0.702 -0.8632  0.6717 -0.6011
14054TIP3    H163653   0.787   1.601   0.648  0.3167 -1.2894 -2.1444
14054TIP3    H263654   0.934   1.637   0.640  0.3722 -0.8874 -0.0104
14055TIP3   OH263655   5.746   5.985  15.243  0.3488  0.1702  0.1593
14055TIP3    H163656   5.777   5.936  15.167 -1.0717  1.8397 -1.6345
14055TIP3    H263657   5.722   5.918  15.307  1.6854 -1.3077 -0.8149
14056TIP3   OH263658   1.833   2.774  11.636  0.3750  0.1512 -0.1724
14056TIP3    H163659   1.831   2.762  11.731  1.6605  1.1913  0.0184
14056TIP3    H263660   1.757   2.829  11.617  0.0888 -0.0950  0.2374
14057TIP3   OH263661   4.011   4.305  16.402  0.4624 -0.1571 -0.0482
14057TIP3    H163662   4.070   4.273  16.334  1.5815 -0.0550  0.8491
14057TIP3    H263663   4.069   4.335  16.473 -0.6289  1.0357  0.3841
14058TIP3   OH263664   4.040   4.113  13.947 -0.3688 -0.1920  0.1941
14058TIP3    H163665   4.119   4.140  13.901 -0.6013  1.2784  0.5950
14058TIP3    H263666   4.071   4.076  14.029 -0.0946  0.4806  0.3981
14059TIP3   OH263667   1.108   0.408  15.326  0.7006  0.3841  0.4494
14059TIP3    H163668   1.202   0.393  15.313  0.1552 -1.4647 -2.3445
14059TIP3    H263669   1.086   0.478  15.265  0.1678  0.3920  0.6414
14060TIP3   OH263670   1.274   0.288   1.852 -0.4402  0.0726  0.1739
14060TIP3    H163671   1.346   0.308   1.911  0.0627  0.6124 -0.5977
14060TIP3    H263672   1.316   0.250   1.774 -1.2054 -2.1527  0.7621
14061TIP3   OH263673   1.799   1.617   1.656  0.1146  0.0707 -0.6835
14061TIP3    H163674   1.798   1.707   1.625  0.0865  0.7176  1.1097
14061TIP3    H263675   1.716   1.580   1.625  0.4086  0.4545 -1.9646
14062TIP3   OH263676   5.423   0.249  14.944 -0.3771 -0.1657 -0.1098
14062TIP3    H163677   5.394   0.297  15.022  0.3485  0.8562 -0.4483
14062TIP3    H263678   5.369   0.170  14.943 -0.9358  0.1817  0.9974
14063TIP3   OH263679   2.950   1.598   2.481 -0.1580  0.0545  0.4580
14063TIP3    H163680   2.939   1.513   2.523 -1.1177 -0.0245  0.0811
14063TIP3    H263681   3.045   1.610   2.476  0.1316 -2.2391 -1.9122
14064TIP3   OH263682   0.442   2.795  12.352  0.3660 -0.0468  0.1654
14064TIP3    H163683   0.467   2.715  12.304  0.6528  0.3667 -0.3816
14064TIP3    H263684   0.347   2.793  12.353  0.3715 -0.9839  1.1553
14065TIP3   OH263685   2.453   4.371  14.965  0.1239  0.3769  0.2740
14065TIP3    H163686   2.456   4.322  15.048  1.8911  0.8208  0.5197
14065TIP3    H263687   2.492   4.311  14.901  0.8290  0.8493  0.2484
14066TIP3   OH263688   0.660   3.345  12.246  0.1285 -0.8587  0.0504
14066TIP3    H163689   0.715   3.391  12.183 -1.6313  1.4538  0.0948
14066TIP3    H263690   0.581   3.321  12.197 -0.2976 -1.0750  0.8195
14067TIP3   OH263691   4.467   1.784   3.408 -0.6979 -0.0370  0.2324
14067TIP3    H163692   4.442   1.874   3.386  1.2966  0.7129  0.8533
14067TIP3    H263693   4.437   1.732   3.334 -0.7994  1.3175 -0.7215
14068TIP3   OH263694   1.937   1.827  14.133  0.0973  0.2911  0.1964
14068TIP3    H163695   1.984   1.901  14.170  1.6923 -1.4367  1.7946
14068TIP3    H263696   1.869   1.807  14.197 -0.7247  0.7006 -0.5220
14069TIP3   OH263697   2.199   1.359   4.394  0.5554 -0.4094  0.1336
14069TIP3    H163698   2.260   1.326   4.327  2.2026  0.6941  1.0077
14069TIP3    H263699   2.239   1.441   4.423 -1.3093  0.2650  0.8881
14070TIP3   OH263700   1.066   0.350   1.679 -0.2703 -0.2985 -0.4652
14070TIP3    H163701   1.075   0.445   1.683 -1.7649 -0.1566  1.8044
14070TIP3    H263702   1.140   0.317   1.730 -1.1317 -0.1720  0.9239
14071TIP3   OH263703   6.005   2.993  11.345  0.0044  0.2707 -0.0809
14071TIP3    H163704   5.993   3.084  11.370  2.2409  0.3404  0.9809
14071TIP3    H263705   6.052   2.953  11.418 -0.9228 -1.7641 -0.4986
14072TIP3   OH263706   6.273   2.612   1.604  0.6847 -0.0112  0.2319
14072TIP3    H163707   6.366   2.594   1.618  0.8411 -0.0407 -0.7504
14072TIP3    H263708   6.252   2.679   1.668  0.7209 -1.8000  2.2391
14073TIP3   OH263709   3.655   4.430  15.656 -0.4086 -0.8735  0.6110
14073TIP3    H163710   3.737   4.443  15.704 -0.7023 -0.3219  0.9754
14073TIP3    H263711   3.641   4.336  15.658 -0.8044 -0.8157  2.2854
14074TIP3   OH263712   2.583   2.524   1.034  0.3331 -0.3376  0.1422
14074TIP3    H163713   2.575   2.431   1.052  1.1252 -0.1072  1.8918
14074TIP3    H263714   2.553   2.567   1.114  0.8774  0.8841 -0.2721
14075TIP3   OH263715   2.745   1.213  13.379 -0.0859 -0.0888 -0.6411
14075TIP3    H163716   2.696   1.228  13.298 -1.6179  0.0648  0.2657
14075TIP3    H263717   2.792   1.131  13.364  0.4223  0.4299 -2.0209
14076TIP3   OH263718   0.398   4.051   1.288  0.4631  0.1442 -0.1917
14076TIP3    H163719   0.404   4.041   1.194 -0.2138 -1.2346 -0.1106
14076TIP3    H263720   0.486   4.076   1.315  1.1225 -1.1745 -1.0094
14077TIP3   OH263721   3.645   6.202  12.473  0.4632 -0.0120  0.0256
14077TIP3    H163722   3.602   6.186  12.557 -1.4665 -0.0106 -0.9087
14077TIP3    H263723   3.580   6.251  12.422  1.7510  0.3432 -1.3233
14078TIP3   OH263724   1.347   3.567   1.488  0.6304 -0.4040  0.2987
14078TIP3    H163725   1.263   3.527   1.465  1.1917 -1.5317  0.1326
14078TIP3    H263726   1.337   3.593   1.579 -0.7007  1.6534 -0.3714
14079TIP3   OH263727   6.823   1.891   5.056 -0.2066  0.1813  0.5265
14079TIP3    H163728   6.804   1.985   5.054 -0.6925  0.0836  0.3079
14079TIP3    H263729   6.918   1.886   5.068 -0.0592  0.7134 -0.2988
14080TIP3   OH263730   6.690   4.372  14.980  0.3207  0.2167 -0.0199
14080TIP3    H163731   6.736   4.379  15.063 -0.3247 -0.3299  0.3906
14080TIP3    H263732   6.614   4.317  14.999  0.1984  0.0373 -0.9836
14081TIP3   OH263733   4.297   4.774   5.274 -0.5973 -0.2222  0.2251
14081TIP3    H163734   4.262   4.686   5.286  0.9736 -1.1729 -1.5509
14081TIP3    H263735   4.255   4.826   5.342 -2.0616 -2.1897  0.9282
14082TIP3   OH263736   4.930   3.708   1.679 -0.5145  0.5418  0.1328
14082TIP3    H163737   4.836   3.714   1.695 -0.6948 -0.6845 -0.3387
14082TIP3    H263738   4.959   3.635   1.734  0.1015  0.7017  0.0284
14083TIP3   OH263739   4.372   3.222   6.383 -0.5077 -0.6165 -0.2260
14083TIP3    H163740   4.400   3.310   6.358 -1.4470 -0.0632  0.6098
14083TIP3    H263741   4.343   3.181   6.301 -0.0861 -0.1402 -0.6120
14084TIP3   OH263742   5.784   4.782   2.893 -0.1819  0.0694 -0.4885
14084TIP3    H163743   5.748   4.847   2.832  0.7455  0.8432 -0.2232
14084TIP3    H263744   5.850   4.735   2.842 -0.1107  0.0446 -0.3738
14085TIP3   OH263745   2.132   0.886  15.731  0.0076 -0.2568 -0.7024
14085TIP3    H163746   2.085   0.969  15.736  1.3961  0.5132  0.5839
14085TIP3    H263747   2.173   0.877  15.817  1.9059 -1.0394 -1.6212
14086TIP3   OH263748   0.485   2.698  16.384  0.1024 -0.2032  0.1577
14086TIP3    H163749   0.561   2.653  16.421 -0.2306 -1.6747 -0.8533
14086TIP3    H263750   0.515   2.729  16.298  0.1248  0.9359  0.5686
14087TIP3   OH263751   4.781   2.315  14.250 -0.7556  0.2151 -0.0640
14087TIP3    H163752   4.713   2.360  14.200 -1.0814  0.3184  0.4653
14087TIP3    H263753   4.863   2.356  14.221 -0.9922  0.6860 -0.0804
14088TIP3   OH263754   5.298   3.397   2.750 -0.3060  0.3745 -0.7663
14088TIP3    H163755   5.285   3.303   2.742 -0.8169  0.3606  0.1231
14088TIP3    H263756   5.370   3.406   2.813 -1.9547  0.6018  1.1604
14089TIP3   OH263757   2.229   0.608   3.955 -0.9649 -0.2159 -0.7571
14089TIP3    H163758   2.303   0.558   3.987 -2.5179 -1.1131  1.7752
14089TIP3    H263759   2.222   0.682   4.016 -2.2676 -0.2858 -0.7926
14090TIP3   OH263760   1.871   4.611  11.663 -0.0956  0.0487  0.0736
14090TIP3    H163761   1.852   4.670  11.735 -1.7523 -0.5338  0.1757
14090TIP3    H263762   1.964   4.592  11.670  0.1385  1.4343  0.9447
14091TIP3   OH263763   4.511   0.945  10.941 -0.2061  0.6397 -0.2982
14091TIP3    H163764   4.466   0.929  10.858 -0.2998  3.0429 -0.7766
14091TIP3    H263765   4.440   0.959  11.004 -0.1682  1.9480 -0.5210
14092TIP3   OH263766   3.374   2.728  13.443  0.2681 -0.1443  0.4341
14092TIP3    H163767   3.355   2.725  13.349 -0.4956  1.0616  0.5237
14092TIP3    H263768   3.469   2.732  13.448  0.2721  2.1081 -0.4137
14093TIP3   OH263769   6.629   6.299  13.885 -0.0264 -0.4509  0.1345
14093TIP3    H163770   6.710   6.272  13.842  0.0463  1.1597 -0.8230
14093TIP3    H263771   6.595   6.219  13.925  0.2699 -1.8923 -2.3152
14094TIP3   OH263772   2.764   2.229  11.289  0.3242  0.2118 -0.6450
14094TIP3    H163773   2.842   2.283  11.300  0.2616  0.1442  0.2169
14094TIP3    H263774   2.746   2.230  11.195 -0.5441  2.9490 -0.5282
14095TIP3   OH263775   3.745   2.560  14.752 -0.2108  0.1838  0.3482
14095TIP3    H163776   3.771   2.620  14.822  0.3350  0.7518 -0.3271
14095TIP3    H263777   3.660   2.592  14.723 -0.8096 -0.5311  1.2785
14096TIP3   OH263778   4.059   1.546  12.708  0.6758  0.2907 -0.2234
14096TIP3    H163779   4.017   1.607  12.648 -0.7213 -0.1050  0.2892
14096TIP3    H263780   3.986   1.494  12.743  1.8339 -1.9715 -0.9664
14097TIP3   OH263781   4.936   3.221  13.322 -0.5737  0.2795 -0.4133
14097TIP3    H163782   4.879   3.147  13.302  1.8052 -1.8524  0.2761
14097TIP3    H263783   4.973   3.246  13.238  0.3526 -0.8442 -0.3546
14098TIP3   OH263784   0.342   6.833  16.041 -0.4516  0.0252 -0.3014
14098TIP3    H163785   0.300   6.760  16.085  1.9339 -1.9707 -1.0595
14098TIP3    H263786   0.376   6.795  15.959  1.2780  1.8483 -0.5090
14099TIP3   OH263787   3.759   6.026   3.091 -0.3577  0.1785  0.1588
14099TIP3    H163788   3.669   6.015   3.060  0.6614 -0.8042 -2.8495
14099TIP3    H263789   3.759   5.986   3.177 -3.0925  1.5164  0.9124
14100TIP3   OH263790   5.488   1.700  14.846  0.2569  0.4034  0.4948
14100TIP3    H163791   5.399   1.670  14.827  0.3314  0.2224  0.4313
14100TIP3    H263792   5.477   1.766  14.914 -0.0127  1.0576 -0.1737
14101TIP3   OH263793   3.090   3.121  15.541 -0.2011 -0.1418  0.1159
14101TIP3    H163794   3.038   3.085  15.469 -0.8198 -0.7479  0.8491
14101TIP3    H263795   3.178   3.130  15.505 -0.5937 -0.0394 -0.8401
14102TIP3   OH263796   4.992   5.133  11.148  0.0752  0.1912  0.4609
14102TIP3    H163797   4.901   5.111  11.128 -1.2831  3.0904  2.7094
14102TIP3    H263798   5.043   5.089  11.080 -3.1720  0.3351 -2.3172
14103TIP3   OH263799   0.468   5.976   3.981 -0.1777 -0.2260 -0.3207
14103TIP3    H163800   0.513   6.020   4.053 -1.4665 -0.5474  0.7140
14103TIP3    H263801   0.405   6.040   3.948 -0.2433 -0.4060 -0.5500
14104TIP3   OH263802   3.990   0.387   1.287 -0.0933  0.4388 -0.0390
14104TIP3    H163803   3.907   0.359   1.248 -0.5982 -0.1077  1.3738
14104TIP3    H263804   4.051   0.390   1.213 -1.0838 -0.2599 -0.9153
14105TIP3   OH263805   4.415   4.095   1.883 -0.3622 -0.0035 -0.7125
14105TIP3    H163806   4.442   4.170   1.830 -0.1224  0.5519  0.1850
14105TIP3    H263807   4.498   4.057   1.915 -0.5307  0.2065 -0.0068
14106TIP3   OH263808   2.720   2.165   4.356 -0.1048 -0.0404 -0.3015
14106TIP3    H163809   2.691   2.151   4.266 -1.1720  2.6422 -0.4557
14106TIP3    H263810   2.751   2.256   4.357  0.7065 -0.2941  1.8526
14107TIP3   OH263811   0.773   6.415  15.935  0.4908  0.1060 -0.7562
14107TIP3    H163812   0.848   6.427  15.994  0.9867 -0.4601 -1.2594
14107TIP3    H263813   0.773   6.322  15.915  0.0195  0.2095 -1.2429
14108TIP3   OH263814   0.399   0.599   1.560 -0.4184  0.4557  0.6909
14108TIP3    H163815   0.471   0.647   1.600  0.6501  0.0195 -0.6334
14108TIP3    H263816   0.335   0.667   1.536 -0.4699  0.8443  1.8587
14109TIP3   OH263817   3.435   5.457   5.328 -0.6141  0.4439 -0.2746
14109TIP3    H163818   3.347   5.485   5.352 -0.4603 -0.4842  1.5214
14109TIP3    H263819   3.423   5.370   5.289 -0.4659  0.1501  0.3276
14110TIP3   OH263820   4.314   1.647   3.209  0.0489  0.8058  0.6142
14110TIP3    H163821   4.222   1.633   3.189  0.0010  0.1301  1.3153
14110TIP3    H263822   4.353   1.560   3.209  0.6244  1.0562  0.6763
14111TIP3   OH263823   3.640   2.374   4.611 -0.1707  0.0988 -0.0678
14111TIP3    H163824   3.676   2.294   4.650  0.3066 -0.1175 -0.9246
14111TIP3    H263825   3.714   2.435   4.610 -0.4500  0.4468  0.2891
14112TIP3   OH263826   4.493   4.222   4.684  0.0901  0.1700  0.3401
14112TIP3    H163827   4.397   4.226   4.686  0.0288 -0.3050  3.2292
14112TIP3    H263828   4.519   4.299   4.633 -1.7958 -0.2321 -1.3522
14113TIP3   OH263829   2.358   4.372   3.097 -0.1710 -0.5248 -0.2997
14113TIP3    H163830   2.382   4.323   3.176 -0.1131 -2.4102 -1.4154
14113TIP3    H263831   2.327   4.305   3.036 -1.6820  1.0552 -1.3573
14114TIP3   OH263832   5.250   4.419   2.469 -0.6209  0.7158  0.1126
14114TIP3    H163833   5.280   4.484   2.533  1.5938 -0.4277  0.3480
14114TIP3    H263834   5.175   4.378   2.510 -1.2594  2.2195  0.5169
14115TIP3   OH263835   6.644   3.102  12.894 -0.6210  0.0336  0.1571
14115TIP3    H163836   6.680   3.034  12.952  2.3146  1.7256  0.5422
14115TIP3    H263837   6.585   3.055  12.836  1.3126 -2.8982  0.3288
14116TIP3   OH263838   4.854   1.366  13.432  0.2054 -0.0679 -0.0055
14116TIP3    H163839   4.868   1.279  13.468  1.0009 -0.2489 -0.7164
14116TIP3    H263840   4.761   1.369  13.410 -0.1123 -0.2533  1.2325
14117TIP3   OH263841   1.349   0.400  14.255 -0.0436  0.5718  0.2088
14117TIP3    H163842   1.320   0.471  14.312 -0.9223 -0.2661  0.8331
14117TIP3    H263843   1.272   0.345  14.243  0.4549  0.0646 -0.7944
14118TIP3   OH263844   0.506   4.770   5.073 -0.1159 -0.2803  0.2846
14118TIP3    H163845   0.553   4.687   5.077  0.0797 -0.1787  0.1246
14118TIP3    H263846   0.415   4.746   5.052 -0.5267 -0.5979  2.2622
14119TIP3   OH263847   6.014   4.481   0.432  0.0673  0.6133 -0.3547
14119TIP3    H163848   5.972   4.563   0.456  0.1706  0.5496  0.0545
14119TIP3    H263849   5.944   4.416   0.439  0.1426  0.5643 -0.0263
14120TIP3   OH263850   0.463   2.278   1.759  0.4824  0.3341  0.1179
14120TIP3    H163851   0.406   2.353   1.739 -0.7232 -0.2444  1.2438
14120TIP3    H263852   0.535   2.316   1.810 -0.1169  0.7338  0.6808
14121TIP3   OH263853   3.203   3.920  15.016 -0.1811 -0.1860 -0.5217
14121TIP3    H163854   3.262   3.869  15.071 -0.4628  0.0016 -0.0362
14121TIP3    H263855   3.134   3.950  15.076 -0.5986 -0.1388 -1.0117
14122TIP3   OH263856   6.050   5.345   5.348 -0.1055 -0.4754  0.4758
14122TIP3    H163857   5.977   5.329   5.408 -1.9446  0.8122 -1.2481
14122TIP3    H263858   6.025   5.299   5.268 -0.8610  2.7152 -1.3110
14123TIP3   OH263859   5.593   0.090  13.560  0.0024 -0.0775 -0.3123
14123TIP3    H163860   5.534   0.092  13.485 -0.6806 -1.8317  0.1428
14123TIP3    H263861   5.674   0.051  13.527  0.4359  0.9860 -0.5769
14124TIP3   OH263862   6.605   6.411   5.587  0.1851  0.0517 -0.5492
14124TIP3    H163863   6.669   6.448   5.648 -1.1082  1.2870  0.1212
14124TIP3    H263864   6.594   6.479   5.520 -0.8615  0.1053 -0.3270
14125TIP3   OH263865   4.256   6.846  16.493 -0.0101 -0.0939 -0.0611
14125TIP3    H163866   4.205   6.767  16.476 -0.0594 -0.3572  1.2009
14125TIP3    H263867   4.254   6.856  16.588  2.7170 -0.4316  0.1261
14126TIP3   OH263868   3.365   1.619  12.975 -1.1826 -0.0923  0.2595
14126TIP3    H163869   3.403   1.541  12.934  1.6439  1.4298 -0.2770
14126TIP3    H263870   3.304   1.653  12.910  0.7442  0.4317 -1.3532
14127TIP3   OH263871   5.687   5.889  15.702 -0.0231 -0.5778  0.1855
14127TIP3    H163872   5.654   5.878  15.792 -0.6140 -0.4925 -0.0115
14127TIP3    H263873   5.776   5.921  15.713 -0.6283  0.9906  0.7545
14128TIP3   OH263874   1.656   5.595   3.266 -0.0397 -0.5894 -0.2285
14128TIP3    H163875   1.719   5.523   3.271 -1.4632 -1.8287  1.0022
14128TIP3    H263876   1.672   5.646   3.345  0.8895  0.4104 -1.0430
14129TIP3   OH263877   0.539   2.384   2.631  0.1386  0.2992 -0.8994
14129TIP3    H163878   0.611   2.446   2.638 -1.5598  2.3509 -0.5756
14129TIP3    H263879   0.564   2.311   2.689  1.9717  0.8614 -0.9245
14130TIP3   OH263880   4.396   3.035   0.440 -0.2313 -0.2795 -0.1726
14130TIP3    H163881   4.342   2.981   0.382 -0.4698 -1.4106  1.0631
14130TIP3    H263882   4.344   3.113   0.456 -1.9948 -1.7236  1.7065
14131TIP3   OH263883   1.704   6.609  12.420 -0.3937 -0.4120 -0.3427
14131TIP3    H163884   1.746   6.602  12.334 -1.2364 -0.1894 -0.7825
14131TIP3    H263885   1.611   6.597  12.402 -0.9335  2.4584  0.1269
14132TIP3   OH263886   3.817   6.498  15.574 -0.4683  0.2395 -0.4931
14132TIP3    H163887   3.824   6.539  15.488  0.4528  1.2629  0.0452
14132TIP3    H263888   3.734   6.530  15.609 -0.7301  0.0101 -0.8844
14133TIP3   OH263889   1.401   1.480  14.266 -0.8439  0.3657 -0.7256
14133TIP3    H163890   1.363   1.526  14.341 -1.3418 -1.4755  0.2290
14133TIP3    H263891   1.328   1.462  14.208 -0.5610  1.2292 -1.3665
14134TIP3   OH263892   0.432   1.059   5.612 -0.3348 -0.0223  0.1321
14134TIP3    H163893   0.443   0.966   5.594  0.7310  0.2585 -0.7942
14134TIP3    H263894   0.455   1.103   5.530 -2.0260  1.0188  0.1724
14135TIP3   OH263895   4.228   5.696  11.199  0.8770 -0.4586  0.3614
14135TIP3    H163896   4.150   5.660  11.242 -0.9709  0.1677 -2.2342
14135TIP3    H263897   4.246   5.777  11.247 -0.9197  0.0807  0.1918
14136TIP3   OH263898   3.685   0.303   1.815 -0.6022 -0.2796  0.4743
14136TIP3    H163899   3.743   0.297   1.891 -1.7462 -0.8956  1.3301
14136TIP3    H263900   3.714   0.233   1.757  0.8271  0.7207 -0.0822
14137TIP3   OH263901   3.390   0.489  10.200  0.6147 -0.9096 -0.3505
14137TIP3    H163902   3.316   0.487  10.140  0.7275 -2.0581 -0.4819
14137TIP3    H263903   3.377   0.568  10.252 -0.5296 -0.9299 -0.5825
14138TIP3   OH263904   5.041   6.167  16.591  0.1641 -0.1245  0.0418
14138TIP3    H163905   5.030   6.123  16.675  0.0262  1.6654  1.0195
14138TIP3    H263906   5.134   6.191  16.588  0.3673 -0.9576 -0.7439
14139TIP3   OH263907   6.309   4.864   1.328 -0.4097  0.6193  0.0050
14139TIP3    H163908   6.383   4.874   1.269 -0.2054 -0.4477  0.0479
14139TIP3    H263909   6.315   4.773   1.358  0.9541  1.7489  3.6102
14140TIP3   OH263910   0.442   4.793  13.505 -0.9747 -0.0600  0.0648
14140TIP3    H163911   0.370   4.786  13.442  0.0733  0.2284 -1.2305
14140TIP3    H263912   0.472   4.703  13.517  0.0455  0.0559 -1.3849
14141TIP3   OH263913   0.645   3.221  13.409 -0.2073  0.2517 -0.0342
14141TIP3    H163914   0.592   3.251  13.335 -0.3108 -0.0498 -0.0827
14141TIP3    H263915   0.730   3.264  13.396 -0.5699  1.0925  0.2833
14142TIP3   OH263916   1.265   1.169  13.407 -0.0896  0.5294 -0.2169
14142TIP3    H163917   1.342   1.225  13.420 -1.7543  2.6416  1.4334
14142TIP3    H263918   1.249   1.132  13.494 -2.3687  2.2265  0.1710
14143TIP3   OH263919   3.418   4.643  13.808 -0.0427  0.1728 -0.6467
14143TIP3    H163920   3.511   4.650  13.786  0.3394  1.3669  1.1198
14143TIP3    H263921   3.406   4.707  13.878 -1.8638 -1.0332  0.1975
14144TIP3   OH263922   1.564   2.391  13.719 -0.1251 -0.2492 -0.1313
14144TIP3    H163923   1.530   2.430  13.800  1.4406 -1.3101  1.0859
14144TIP3    H263924   1.642   2.442  13.699 -2.0718  2.0047 -2.7692
14145TIP3   OH263925   1.591   4.267   4.767 -0.2094  0.4493  0.6185
14145TIP3    H163926   1.598   4.190   4.823  2.4780 -0.1277 -0.3939
14145TIP3    H263927   1.620   4.340   4.823  0.5732  0.1780  0.5743
14146TIP3   OH263928   6.209   2.742  12.049 -0.0873 -0.0633  0.1933
14146TIP3    H163929   6.127   2.746  12.098  0.3800 -0.0849  0.9943
14146TIP3    H263930   6.228   2.648  12.043  1.0021 -0.0084  1.9699
14147TIP3   OH263931   2.070   1.103  11.654  0.2145  0.5495 -0.5543
14147TIP3    H163932   2.013   1.029  11.671  0.7678  0.0882 -0.6766
14147TIP3    H263933   2.021   1.179  11.686 -0.1933  0.0897 -0.0721
14148TIP3   OH263934   3.980   5.238   3.455 -0.3991 -0.1507  0.0336
14148TIP3    H163935   3.958   5.217   3.364  1.2739  0.2095 -0.4996
14148TIP3    H263936   3.993   5.333   3.455 -2.7759  0.2222  1.2349
14149TIP3   OH263937   3.396   6.027   3.447 -0.1886  0.6252  0.6076
14149TIP3    H163938   3.315   5.980   3.468  0.1751  0.4181  1.6110
14149TIP3    H263939   3.443   6.032   3.531  1.0587  0.3102 -0.0503
14150TIP3   OH263940   0.905   4.019  15.838  0.3937  0.3538  0.2884
14150TIP3    H163941   0.987   3.991  15.798  0.9255  0.4020  1.2902
14150TIP3    H263942   0.882   4.100  15.793  1.8628  1.3160  1.1525
14151TIP3   OH263943   3.529   3.558  13.340  0.4228 -0.8871 -0.8385
14151TIP3    H163944   3.443   3.589  13.311  0.9091 -0.0610 -1.4623
14151TIP3    H263945   3.510   3.496  13.410 -0.6420  0.7152  0.3956
14152TIP3   OH263946   0.252   4.981   0.681 -0.6486 -0.3882  0.4063
14152TIP3    H163947   0.163   5.013   0.700 -0.7584 -1.0154  0.9708
14152TIP3    H263948   0.240   4.918   0.610 -0.5356  0.1799 -0.1281
14153TIP3   OH263949   3.076   6.488  12.688  0.7430 -0.4877 -0.0111
14153TIP3    H163950   3.047   6.577  12.710 -0.8653 -0.5847 -1.5663
14153TIP3    H263951   3.130   6.499  12.610 -0.6266 -0.9906 -1.0562
14154TIP3   OH263952   3.215   5.382  14.601  0.0491  0.0267  0.6583
14154TIP3    H163953   3.284   5.444  14.625  0.9307 -0.3291 -0.7720
14154TIP3    H263954   3.161   5.429  14.538 -0.7851  0.1589  1.4584
14155TIP3   OH263955   0.140   0.997   1.753 -0.4221  0.8857 -0.0691
14155TIP3    H163956   0.126   1.037   1.667  1.2823  2.2662  0.2171
14155TIP3    H263957   0.233   0.974   1.754 -0.5509  0.3134  1.1815
14156TIP3   OH263958   2.597   6.644   5.430 -0.0265 -0.4052 -0.3437
14156TIP3    H163959   2.555   6.635   5.515 -0.7035 -0.4614 -0.6789
14156TIP3    H263960   2.620   6.554   5.405  0.9036 -0.3137  0.1323
14157TIP3   OH263961   4.049   5.829   0.502 -0.0274  0.1751  0.4343
14157TIP3    H163962   4.099   5.802   0.425  0.4256 -0.9194  1.0982
14157TIP3    H263963   3.967   5.780   0.495 -0.3637  0.7592  0.1899
14158TIP3   OH263964   5.900   1.574   1.660  0.8719  0.0570  0.6478
14158TIP3    H163965   5.988   1.595   1.691  1.3223  0.4279 -0.7811
14158TIP3    H263966   5.895   1.618   1.574  0.2393 -2.0868 -0.4679
14159TIP3   OH263967   5.572   4.290  13.001  0.7081  0.2548 -0.2613
14159TIP3    H163968   5.566   4.362  13.065  1.4188  1.1787 -1.1892
14159TIP3    H263969   5.513   4.316  12.930 -0.1691 -0.8235  0.0450
14160TIP3   OH263970   2.770   0.724   2.142 -0.6809 -0.7904 -0.0711
14160TIP3    H163971   2.739   0.755   2.227 -0.8807 -0.5456 -0.2340
14160TIP3    H263972   2.729   0.638   2.132  0.0685 -1.2353  0.4900
14161TIP3   OH263973   2.575   4.824  16.801 -0.6107  0.2958  0.7549
14161TIP3    H163974   2.589   4.830  16.707 -3.0446  1.4131  0.3956
14161TIP3    H263975   2.574   4.730  16.819  0.0039  0.0725 -0.2903
14162TIP3   OH263976   6.813   1.692  15.091 -0.4235 -0.6266 -0.2082
14162TIP3    H163977   6.800   1.645  15.009 -0.0796 -0.0007 -0.6219
14162TIP3    H263978   6.833   1.782  15.065 -0.3325 -0.4192  0.5578
14163TIP3   OH263979   0.012   1.059   0.248  0.5278 -0.3250 -0.2958
14163TIP3    H163980   0.061   1.140   0.265  0.6523 -0.3974 -0.3041
14163TIP3    H263981   0.076   0.989   0.265  0.6454 -0.4016 -1.0140
14164TIP3   OH263982   6.572   3.214   0.316  0.3474  0.0143 -0.3838
14164TIP3    H163983   6.653   3.213   0.368 -1.6576  1.5921  3.1448
14164TIP3    H263984   6.524   3.138   0.346 -0.5360  0.5006 -0.5477
14165TIP3   OH263985   6.859   4.921   3.881 -0.0297  0.1376  0.3231
14165TIP3    H163986   6.859   5.004   3.833 -0.0482 -0.9510 -1.6637
14165TIP3    H263987   6.832   4.945   3.970  0.1340  2.2678 -0.1429
14166TIP3   OH263988   1.834   2.328  14.531  0.4555 -0.0145  0.4042
14166TIP3    H163989   1.921   2.349  14.563 -0.1155  0.2785  1.8178
14166TIP3    H263990   1.842   2.241  14.492  1.6432  0.5239 -0.6101
14167TIP3   OH263991   4.813   5.567   1.390 -0.1399 -0.2650  0.2031
14167TIP3    H163992   4.826   5.472   1.388 -0.5654 -0.3583  1.3019
14167TIP3    H263993   4.863   5.599   1.314 -1.2409 -1.4898 -1.0952
14168TIP3   OH263994   6.521   0.274   1.999 -0.3078  0.0865 -0.3000
14168TIP3    H163995   6.533   0.365   1.971  0.6324 -0.7364 -2.8699
14168TIP3    H263996   6.606   0.233   1.985 -0.9443 -1.3906 -0.0152
14169TIP3   OH263997   2.470   5.837  13.713  0.4803  0.3323  0.5775
14169TIP3    H163998   2.393   5.781  13.720 -0.0059  0.9736  0.3930
14169TIP3    H263999   2.542   5.776  13.697  0.1214 -0.3336  1.4029
14170TIP3   OH264000   3.550   3.200   3.279  0.5315 -0.0748 -0.0078
14170TIP3    H164001   3.584   3.187   3.191 -1.1112 -0.3205 -0.6403
14170TIP3    H264002   3.470   3.147   3.282  0.9684 -0.6985  1.8911
14171TIP3   OH264003   0.484   1.614  14.886 -0.4986 -0.6810  0.3298
14171TIP3    H164004   0.445   1.650  14.965 -0.6828  0.3662 -0.2184
14171TIP3    H264005   0.578   1.628  14.897 -0.6660  1.6275 -0.6170
14172TIP3   OH264006   2.801   3.359  11.287 -0.2037 -0.3581 -0.0075
14172TIP3    H164007   2.707   3.344  11.296  0.2287 -3.0984  0.7431
14172TIP3    H264008   2.829   3.296  11.220  1.3244 -0.6938  0.9098
14173TIP3   OH264009   0.158   2.698   0.736  0.0974 -0.4581  0.2872
14173TIP3    H164010   0.209   2.680   0.815 -0.9768 -2.0814  0.6618
14173TIP3    H264011   0.073   2.729   0.767 -0.5060 -1.5803 -0.1848
14174TIP3   OH264012   3.289   4.773   4.991 -0.5750  0.2206  0.4178
14174TIP3    H164013   3.265   4.866   4.992 -2.0728 -0.1100 -0.9497
14174TIP3    H264014   3.213   4.728   5.028  0.1096 -0.4865  1.0063
14175TIP3   OH264015   1.753   2.028  12.461  0.1888 -0.6104 -0.3462
14175TIP3    H164016   1.714   2.005  12.377  1.8370 -1.5845 -0.8975
14175TIP3    H264017   1.680   2.027  12.523 -0.8667 -0.9618 -1.5552
14176TIP3   OH264018   3.410   2.054  11.624 -0.1011 -0.1452 -0.7872
14176TIP3    H164019   3.475   2.106  11.578 -0.8570  1.2562 -0.3116
14176TIP3    H264020   3.440   2.054  11.715 -0.3815 -0.0945 -0.6942
14177TIP3   OH264021   1.383   1.190   0.528  0.3760 -0.6195 -0.5717
14177TIP3    H164022   1.467   1.154   0.557 -0.7243 -1.6153  1.5628
14177TIP3    H264023   1.323   1.116   0.532 -1.0917  0.5716  0.1130
14178TIP3   OH264024   3.460   3.018   0.061 -0.0540 -0.3975 -0.2288
14178TIP3    H164025   3.393   2.950   0.049 -1.6087  0.9505  0.3466
14178TIP3    H264026   3.441   3.083  -0.007  1.9078 -0.8765 -1.2823
14179TIP3   OH264027   2.734   6.663   1.269  0.1720  0.0986  0.6949
14179TIP3    H164028   2.702   6.688   1.355  2.6670 -1.0067  2.0483
14179TIP3    H264029   2.733   6.567   1.270 -0.4978  0.0558 -0.8369
14180TIP3   OH264030   0.798   6.531  14.710 -0.3140  0.4515 -0.4768
14180TIP3    H164031   0.813   6.443  14.677  1.1863 -0.4001  2.2031
14180TIP3    H264032   0.814   6.588  14.634 -0.1003 -1.4870 -1.9629
14181TIP3   OH264033   4.577   0.596  10.715  0.1726  0.6746 -0.2871
14181TIP3    H164034   4.659   0.645  10.711  0.7481 -0.1364  1.0142
14181TIP3    H264035   4.559   0.572  10.624  2.3712 -0.7121 -0.4172
14182TIP3   OH264036   5.120   0.389  15.029 -0.0989  0.0418 -0.2932
14182TIP3    H164037   5.117   0.372  15.123  0.8221  1.3584  0.0143
14182TIP3    H264038   5.036   0.358  14.996 -0.7793  0.3067  1.1118
14183TIP3   OH264039   4.476   3.701   4.795  0.1082 -0.1500 -0.2496
14183TIP3    H164040   4.386   3.670   4.781 -0.2888  0.5232  0.6967
14183TIP3    H264041   4.513   3.640   4.858 -0.1440  0.3578  0.3971
14184TIP3   OH264042   2.629   0.139   5.415 -0.2710 -0.4750  0.4528
14184TIP3    H164043   2.657   0.213   5.469 -0.0450  1.5289 -2.1642
14184TIP3    H264044   2.547   0.110   5.454 -1.3967  2.4634  0.5302
14185TIP3   OH264045   3.433   3.897  16.921 -0.7888 -0.1056  0.1340
14185TIP3    H164046   3.436   3.830  16.853  2.1037 -0.1260  0.1290
14185TIP3    H264047   3.443   3.980  16.874  1.3339 -0.1256  0.4344
14186TIP3   OH264048   2.197   3.762   6.622 -0.1425  0.1203  0.3798
14186TIP3    H164049   2.214   3.835   6.563 -0.9976  1.0680  1.2700
14186TIP3    H264050   2.281   3.718   6.630  0.2318  0.5941 -0.6955
14187TIP3   OH264051   6.243   1.990  12.258  0.1556  0.6754  0.1980
14187TIP3    H164052   6.294   2.032  12.328  0.6316  3.2437 -1.5440
14187TIP3    H264053   6.153   2.020  12.273  0.5252  2.6122 -1.1506
14188TIP3   OH264054   4.255   1.204   3.636  0.6407 -0.4673 -0.3071
14188TIP3    H164055   4.318   1.192   3.707 -1.0543 -0.7104  1.2310
14188TIP3    H264056   4.307   1.193   3.556  2.5677 -0.4499  0.8670
14189TIP3   OH264057   4.211   4.156  11.349  0.2737  0.3270 -0.1910
14189TIP3    H164058   4.188   4.096  11.279  0.8466  0.0117 -0.1158
14189TIP3    H264059   4.183   4.112  11.429 -0.1481  0.5739 -0.1984
14190TIP3   OH264060   6.701   1.785   3.900  0.3025  0.5503 -0.0822
14190TIP3    H164061   6.777   1.729   3.918  0.7504  0.6995 -1.3962
14190TIP3    H264062   6.689   1.779   3.806 -1.0028  0.9631  0.0398
14191TIP3   OH264063   1.731   6.136   3.986  0.1893 -0.3054  0.5534
14191TIP3    H164064   1.742   6.225   3.951  1.2296  0.1363  1.9120
14191TIP3    H264065   1.668   6.095   3.927 -0.4882  1.4044  0.0149
14192TIP3   OH264066   4.882   4.655   0.583  0.0382 -1.0407  0.4007
14192TIP3    H164067   4.928   4.590   0.530 -0.6807 -1.2267 -0.0238
14192TIP3    H264068   4.803   4.610   0.613 -0.6312 -0.2943 -0.1576
14193TIP3   OH264069   0.168   0.860  10.583 -0.1372  0.3121  0.0023
14193TIP3    H164070   0.135   0.817  10.504  2.3393  0.0333 -0.9956
14193TIP3    H264071   0.245   0.908  10.553 -0.6688  2.4149  1.8088
14194TIP3   OH264072   3.424   2.207  16.641 -0.5946 -0.7291 -0.2218
14194TIP3    H164073   3.399   2.232  16.552 -1.5418 -1.8428 -0.2758
14194TIP3    H264074   3.499   2.149  16.629  1.2487  1.4485 -0.1169
14195TIP3   OH264075   3.064   2.074   1.230 -0.3019 -0.0666 -0.2512
14195TIP3    H164076   3.110   2.158   1.238 -1.7677  0.9164 -1.4928
14195TIP3    H264077   3.127   2.009   1.262  1.0525  1.4429  0.3084
14196TIP3   OH264078   0.471   3.084   2.308 -0.4725 -0.3086  0.5893
14196TIP3    H164079   0.453   2.990   2.306  0.2348 -0.4408 -0.1776
14196TIP3    H264080   0.400   3.120   2.361 -2.0504 -1.0177 -0.9059
14197TIP3   OH264081   0.736   1.335   4.360 -0.0857  0.1303 -0.5730
14197TIP3    H164082   0.649   1.332   4.400  0.2277  5.2698  1.1528
14197TIP3    H264083   0.734   1.412   4.304  2.8431 -0.7942 -2.1855
14198TIP3   OH264084   4.594   5.072   1.473  0.1316 -0.2531 -0.5210
14198TIP3    H164085   4.505   5.106   1.479 -0.4327 -1.5791 -0.9510
14198TIP3    H264086   4.617   5.047   1.562  0.2288  0.4117 -0.3502
14199TIP3   OH264087   5.968   4.208   3.848 -0.1042 -0.2131  0.1280
14199TIP3    H164088   5.905   4.137   3.853 -1.1288  0.6813  0.3416
14199TIP3    H264089   5.961   4.252   3.933 -0.4537  0.9367 -0.4762
14200TIP3   OH264090   5.860   2.384  11.379 -0.4113 -0.2132 -0.2355
14200TIP3    H164091   5.912   2.327  11.323 -0.8331 -0.2708 -0.5861
14200TIP3    H264092   5.908   2.467  11.380  0.0533 -0.4810  0.0408
14201TIP3   OH264093   0.112   2.481   3.361  0.4383  0.3983 -0.2095
14201TIP3    H164094   0.192   2.527   3.386  1.4114 -0.0168 -2.3402
14201TIP3    H264095   0.099   2.502   3.269 -1.2846 -0.4870 -0.2190
14202TIP3   OH264096   2.539   1.846  15.060  0.0095 -0.3868 -0.1715
14202TIP3    H164097   2.478   1.919  15.051  2.2938  1.7477  0.8158
14202TIP3    H264098   2.589   1.846  14.979  1.6171  0.7437  0.7763
14203TIP3   OH264099   6.012   4.069   0.527  0.3111  0.1106 -0.3038
14203TIP3    H164100   5.954   4.006   0.570 -1.1360 -1.2529 -3.8961
14203TIP3    H264101   6.087   4.017   0.498  1.8273  1.2281  1.4042
14204TIP3   OH264102   1.741   3.106  14.428 -0.0843  0.1905 -0.1024
14204TIP3    H164103   1.828   3.136  14.456 -0.3637  1.1410 -0.2034
14204TIP3    H264104   1.738   3.126  14.334 -0.1542 -0.4859 -0.2459
14205TIP3   OH264105   5.209   6.381   3.305 -0.2203  0.1957 -0.2156
14205TIP3    H164106   5.244   6.354   3.390  1.0961  0.9422 -0.4822
14205TIP3    H264107   5.122   6.415   3.324 -0.4213 -0.7709  0.6475
14206TIP3   OH264108   2.268   4.480  16.544  0.2213 -0.1235  0.2775
14206TIP3    H164109   2.215   4.546  16.588  0.0652  1.3043 -1.9175
14206TIP3    H264110   2.358   4.509  16.556  0.1720  0.3303 -0.3979
14207TIP3   OH264111   3.071   2.631   3.366  0.9228 -0.2451 -0.1459
14207TIP3    H164112   3.087   2.658   3.457  0.1489 -0.7142  0.1386
14207TIP3    H264113   3.102   2.540   3.362  1.1555 -0.1546 -0.4104
14208TIP3   OH264114   1.164   2.757   3.374 -0.4559  0.3759 -0.2085
14208TIP3    H164115   1.150   2.794   3.461  0.6822 -0.0879  0.2026
14208TIP3    H264116   1.171   2.663   3.389  1.2903  0.4048 -0.5437
14209TIP3   OH264117   5.097   1.368  13.311  0.1821 -0.3453  0.0935
14209TIP3    H164118   5.009   1.380  13.346 -0.6674  3.0563 -2.6463
14209TIP3    H264119   5.154   1.414  13.372 -0.4073  0.2493  0.2076
14210TIP3   OH264120   4.784   1.509  14.636  0.1104  0.0550  0.2770
14210TIP3    H164121   4.818   1.590  14.674  2.6912  0.0296 -1.7337
14210TIP3    H264122   4.748   1.535  14.551  0.2283 -0.7744 -0.0428
14211TIP3   OH264123   5.894   5.838   3.799  0.0565 -0.6920 -0.0524
14211TIP3    H164124   5.989   5.844   3.792 -0.0152  2.2917  0.3449
14211TIP3    H264125   5.878   5.820   3.892  0.2300  0.6762  0.2589
14212TIP3   OH264126   5.011   3.980   3.942 -0.2161 -0.5793  0.9966
14212TIP3    H164127   5.096   4.019   3.963  0.4284 -1.7402  0.6542
14212TIP3    H264128   5.017   3.958   3.849 -0.9848 -0.4485  0.9120
14213TIP3   OH264129   4.378   5.278  16.653 -0.0756  0.5789  0.3996
14213TIP3    H164130   4.303   5.297  16.709 -0.6094 -0.1211 -0.0767
14213TIP3    H264131   4.348   5.300  16.565  0.5287  0.9934  0.2904
14214TIP3   OH264132   6.785   4.037   4.472  0.3533  0.0339  0.1740
14214TIP3    H164133   6.705   3.998   4.508  0.9379 -1.1178  0.2462
14214TIP3    H264134   6.800   4.115   4.526 -1.0650  0.6477 -0.2475
14215TIP3   OH264135   1.244   3.608   2.727  0.5044  0.0728  0.3616
14215TIP3    H164136   1.228   3.658   2.646  2.0198  2.4960  1.4288
14215TIP3    H264137   1.308   3.542   2.703  1.6929  1.3985 -0.2860
14216TIP3   OH264138   5.237   3.970   6.204  0.0664  0.4157 -0.3650
14216TIP3    H164139   5.305   3.939   6.264 -0.0969  0.7104 -0.0241
14216TIP3    H264140   5.264   3.938   6.118  0.2457 -0.1002 -0.1186
14217TIP3   OH264141   5.004   2.627  12.786 -0.3065 -0.6844 -0.3718
14217TIP3    H164142   5.037   2.541  12.813 -0.7559 -1.3083 -1.7414
14217TIP3    H264143   5.033   2.636  12.695 -1.8989 -0.2452 -0.8694
14218TIP3   OH264144   6.705   4.008  16.442  0.2342 -0.0293 -0.2262
14218TIP3    H164145   6.771   4.044  16.382 -0.6118  0.1312 -1.0923
14218TIP3    H264146   6.746   4.011  16.528  0.8784  1.2863 -0.5541
14219TIP3   OH264147   5.604   6.596   2.316  0.0421 -0.5469 -0.1868
14219TIP3    H164148   5.516   6.569   2.290 -0.2961  0.1085  0.2684
14219TIP3    H264149   5.660   6.566   2.244 -0.6748 -0.1717 -0.9253
14220TIP3   OH264150   6.673   1.973   2.918  0.1665 -0.5032 -0.3914
14220TIP3    H164151   6.678   2.049   2.860 -0.0519 -0.2769 -0.1174
14220TIP3    H264152   6.692   1.898   2.862  1.4794 -0.1524 -0.4470
14221TIP3   OH264153   1.029   2.953   4.592  0.5351 -0.3836 -0.7402
14221TIP3    H164154   0.994   3.042   4.585  0.0408 -0.6801 -2.5867
14221TIP3    H264155   0.976   2.902   4.531  0.7517 -1.9841  0.3545
14222TIP3   OH264156   2.728   0.014   1.897  0.2741 -0.1905 -0.1713
14222TIP3    H164157   2.673  -0.064   1.891  0.7300 -0.4297 -1.6311
14222TIP3    H264158   2.818  -0.019   1.893  0.5974  0.1981  2.1714
14223TIP3   OH264159   0.538   1.028  13.372 -0.5508  0.2460  0.0176
14223TIP3    H164160   0.543   1.026  13.467  0.6280 -2.2549 -0.0197
14223TIP3    H264161   0.445   1.028  13.353 -0.8242  1.8639  1.1158
14224TIP3   OH264162   0.960   0.793   3.709 -0.7378  0.1397  0.4606
14224TIP3    H164163   0.869   0.769   3.690 -0.3199 -1.3460  0.2619
14224TIP3    H264164   1.009   0.764   3.632  0.0301  0.1355  0.9418
14225TIP3   OH264165   4.369   3.703  12.049 -0.1614 -0.2657  0.2496
14225TIP3    H164166   4.437   3.771  12.044 -1.1752  0.6984 -0.8042
14225TIP3    H264167   4.401   3.643  12.117 -0.3085  2.4455  2.8934
14226TIP3   OH264168   2.190   3.768  14.723  0.1327 -0.0570 -0.4703
14226TIP3    H164169   2.210   3.795  14.813 -0.8830 -3.2119  0.8299
14226TIP3    H264170   2.268   3.722  14.694 -0.5076 -1.4246 -0.1123
14227TIP3   OH264171   6.090   5.841  12.536 -0.0929 -0.1302 -0.4689
14227TIP3    H164172   6.112   5.751  12.559  2.1434  0.3798 -0.3952
14227TIP3    H264173   6.079   5.839  12.441  0.3800 -0.4177 -0.5206
14228TIP3   OH264174   5.565   3.506   2.006 -0.2695 -0.2656  0.1823
14228TIP3    H164175   5.585   3.593   2.042 -1.4523 -0.7632  2.2035
14228TIP3    H264176   5.647   3.457   2.016  0.6501  0.7599 -1.6739
14229TIP3   OH264177   2.653   0.469   1.633  0.1370 -0.5662  0.2425
14229TIP3    H164178   2.727   0.522   1.662  0.3309 -1.8726  2.3915
14229TIP3    H264179   2.593   0.468   1.708 -1.8629  0.0214 -1.2447
14230TIP3   OH264180   6.047   5.508   1.006  0.9087 -0.5851 -0.1637
14230TIP3    H164181   6.006   5.580   0.958  1.7401  0.3620  0.4958
14230TIP3    H264182   6.061   5.440   0.940  1.3801  0.4040 -1.1123
14231TIP3   OH264183   1.494   0.681   1.771  0.3805 -0.1351  0.1741
14231TIP3    H164184   1.416   0.724   1.805 -1.2652 -1.5313 -1.6349
14231TIP3    H264185   1.527   0.739   1.703  1.4562  0.8289  1.4513
14232TIP3   OH264186   3.792   6.064  12.979 -0.5149  0.5287  0.3662
14232TIP3    H164187   3.849   6.004  13.026 -0.6013  0.6926  0.6856
14232TIP3    H264188   3.734   6.007  12.928  0.1598  0.3664 -0.2428
14233TIP3   OH264189   4.211   5.514  11.911 -0.1673 -0.5404 -0.3638
14233TIP3    H164190   4.165   5.449  11.858 -2.1984 -1.1256  1.9206
14233TIP3    H264191   4.147   5.584  11.922  1.0416  0.6323 -0.5313
14234TIP3   OH264192   3.887   6.381  15.871 -0.3494 -0.8323  0.6036
14234TIP3    H164193   3.896   6.409  15.780  1.5948 -0.3947  0.8893
14234TIP3    H264194   3.794   6.388  15.889 -0.7377 -0.6558 -1.2608
14235TIP3   OH264195   1.019   4.808  14.003 -0.0121 -0.0903 -0.2491
14235TIP3    H164196   0.967   4.747  14.056  0.7290 -0.1108  0.4798
14235TIP3    H264197   1.082   4.753  13.957  1.0138  0.1425  0.8241
14236TIP3   OH264198   1.288   4.832  15.010  0.0323 -0.3627  0.0565
14236TIP3    H164199   1.323   4.752  15.050 -0.0166 -0.4566 -0.0867
14236TIP3    H264200   1.303   4.821  14.916  0.4379  0.0047  0.0774
14237TIP3   OH264201   2.767   2.714   5.939  0.7247  0.0733 -0.1837
14237TIP3    H164202   2.743   2.758   5.858 -1.4360 -0.8167 -0.0849
14237TIP3    H264203   2.739   2.623   5.927  0.8543 -0.2087  1.3511
14238TIP3   OH264204   3.051   2.745  13.282 -0.8369  0.6830 -0.3652
14238TIP3    H164205   3.081   2.835  13.294  0.5022  0.1798  0.2647
14238TIP3    H264206   3.091   2.697  13.354 -2.5751 -0.2035  0.0741
14239TIP3   OH264207   6.668   1.182  12.118 -0.1689  0.2698  0.2642
14239TIP3    H164208   6.639   1.117  12.053  1.7626 -0.6055  0.1870
14239TIP3    H264209   6.621   1.262  12.095 -2.5723 -1.0511  0.3159
14240TIP3   OH264210   3.995   0.913  15.256 -0.5743 -0.0026 -0.0800
14240TIP3    H164211   3.995   0.953  15.169  0.9186  0.2771  0.0242
14240TIP3    H264212   4.049   0.835  15.247 -1.3191 -0.5758  0.3443
14241TIP3   OH264213   3.296   2.061   1.629 -0.3511  0.1388  0.4672
14241TIP3    H164214   3.253   1.979   1.603 -0.2942  0.1774  0.2427
14241TIP3    H264215   3.313   2.106   1.546 -1.8230  1.1169  0.6684
14242TIP3   OH264216   2.954   5.917   5.458 -0.3889  0.3316 -0.0701
14242TIP3    H164217   2.920   5.936   5.370 -0.1127 -1.0668 -0.5061
14242TIP3    H264218   2.915   5.984   5.514 -1.7855  0.3346 -1.0012
14243TIP3   OH264219   3.842   3.939   3.129  0.6880  0.2863  0.2824
14243TIP3    H164220   3.892   3.858   3.135  0.0378 -0.0702  0.9618
14243TIP3    H264221   3.754   3.916   3.157 -0.1675  0.6618 -1.9158
14244TIP3   OH264222   3.539   3.696   2.743  0.3887  0.0320  0.5001
14244TIP3    H164223   3.566   3.624   2.800 -0.1885  0.8596  1.8469
14244TIP3    H264224   3.577   3.774   2.782 -0.5598  0.6975  0.1293
14245TIP3   OH264225   1.159   4.147   2.715  0.4753  1.3676 -0.0101
14245TIP3    H164226   1.202   4.182   2.637 -0.5652  0.8475 -0.8441
14245TIP3    H264227   1.067   4.138   2.690  0.3990 -0.3264  0.7341
14246TIP3   OH264228   0.262   6.382   3.057 -0.1388  0.2847  0.2160
14246TIP3    H164229   0.184   6.390   3.002 -1.2606 -0.2928  1.6644
14246TIP3    H264230   0.246   6.305   3.111  0.7680  1.0200  1.6002
14247TIP3   OH264231   3.294   1.911   3.697  0.1927 -0.2423 -0.3865
14247TIP3    H164232   3.367   1.849   3.698 -0.5160 -1.1296 -1.4085
14247TIP3    H264233   3.216   1.857   3.687 -0.5266  0.7633 -0.3916
14248TIP3   OH264234   0.789   2.452  16.175  0.9014  0.3007 -0.4264
14248TIP3    H164235   0.795   2.534  16.126  0.8078  0.8319  0.4279
14248TIP3    H264236   0.831   2.471  16.259  2.0018 -0.9057 -0.6700
14249TIP3   OH264237   2.368   1.341   0.886 -0.7265  0.6339 -0.0246
14249TIP3    H164238   2.398   1.256   0.853 -0.7410  0.1893  1.0403
14249TIP3    H264239   2.332   1.321   0.973 -1.5617  1.5944 -0.1298
14250TIP3   OH264240   0.470   1.919   5.722 -0.3942 -0.3013 -0.0795
14250TIP3    H164241   0.523   1.924   5.643 -1.0054  1.6144 -0.4342
14250TIP3    H264242   0.501   1.992   5.776 -0.6142 -1.0136  1.0342
14251TIP3   OH264243   3.222   1.860   4.771  0.1728 -0.0236 -0.3677
14251TIP3    H164244   3.130   1.834   4.779  0.1396 -0.2415 -1.4107
14251TIP3    H264245   3.256   1.852   4.861 -0.6976 -0.3945 -0.0549
14252TIP3   OH264246   2.767   1.631  11.831 -0.5656  0.2793  0.2231
14252TIP3    H164247   2.858   1.640  11.859 -0.3641  0.1706 -0.4002
14252TIP3    H264248   2.718   1.621  11.913  0.1668 -1.2579  0.5078
14253TIP3   OH264249   3.889   1.463  15.334 -0.4239 -0.5555  0.2138
14253TIP3    H164250   3.966   1.416  15.304 -0.1865  0.1154 -0.2196
14253TIP3    H264251   3.839   1.397  15.383  0.0912 -1.1583 -0.0648
14254TIP3   OH264252   1.324   5.321  10.321  0.4536  0.7167  0.8134
14254TIP3    H164253   1.375   5.399  10.297  2.2177 -0.8360 -0.7796
14254TIP3    H264254   1.384   5.248  10.307 -0.7967 -0.9209  3.2286
14255TIP3   OH264255   0.360   1.582  13.628  0.0949  0.2065  0.3858
14255TIP3    H164256   0.274   1.541  13.635  0.6944 -1.0130  0.7640
14255TIP3    H264257   0.365   1.610  13.536  0.9356 -3.5751 -0.8993
14256TIP3   OH264258   2.196   4.273   0.609  0.5353  0.5233  1.2336
14256TIP3    H164259   2.271   4.247   0.555  0.5852 -1.3498  2.1293
14256TIP3    H264260   2.146   4.192   0.621 -1.1388  1.5554  1.4285
14257TIP3   OH264261   5.807   3.205  11.448 -0.7486 -0.8641 -0.4874
14257TIP3    H164262   5.778   3.287  11.407 -2.5474 -0.7463  0.8648
14257TIP3    H264263   5.792   3.219  11.542  2.4520 -1.4065  0.2051
14258TIP3   OH264264   5.444   2.258   0.133 -0.1431 -0.9904 -0.1009
14258TIP3    H164265   5.505   2.210   0.077  1.5163  0.9300 -0.0386
14258TIP3    H264266   5.484   2.255   0.220  1.0858  2.0303 -0.4381
14259TIP3   OH264267   2.595   3.026  11.769 -0.1144 -0.3289  0.5510
14259TIP3    H164268   2.544   2.945  11.775 -1.5837  0.6383  1.6711
14259TIP3    H264269   2.539   3.086  11.720  1.8657 -0.5845 -2.2520
14260TIP3   OH264270   4.825   5.557   0.026  0.2382  0.1020 -0.8326
14260TIP3    H164271   4.850   5.593  -0.060  0.2674  0.4599 -0.6761
14260TIP3    H264272   4.729   5.558   0.024  0.1769  2.1941 -0.0279
14261TIP3   OH264273   4.306   6.415  16.209 -0.6304  0.0692 -0.4114
14261TIP3    H164274   4.214   6.423  16.235 -0.1696 -0.1253  1.4376
14261TIP3    H264275   4.333   6.330  16.244  0.1792  0.0068 -1.1689
14262TIP3   OH264276   2.598   4.615  14.252 -0.5221  0.2142  0.0126
14262TIP3    H164277   2.564   4.704  14.243  0.0985  0.3188 -1.5852
14262TIP3    H264278   2.686   4.619  14.215  0.1530 -0.7178  1.4051
14263TIP3   OH264279   0.844   6.178   3.008  0.1905 -0.3432  0.5892
14263TIP3    H164280   0.933   6.177   3.043  0.7984  1.5634 -0.7097
14263TIP3    H264281   0.856   6.186   2.913 -1.3808 -0.6256  0.3388
14264TIP3   OH264282   6.089   2.224  15.173  0.4889  0.0041 -0.4694
14264TIP3    H164283   6.025   2.236  15.103  0.8310 -0.6560 -0.9165
14264TIP3    H264284   6.097   2.129  15.182  0.5190  0.0835  0.4096
14265TIP3   OH264285   5.955   2.115   5.646 -0.0129 -0.2525 -0.6797
14265TIP3    H164286   5.869   2.087   5.613 -0.0909  1.0375 -1.6356
14265TIP3    H264287   5.948   2.106   5.741 -0.3096 -2.5960 -0.8713
14266TIP3   OH264288   0.077   5.049  16.830  0.7200  0.1600 -0.4239
14266TIP3    H164289   0.162   5.007  16.815  0.6965 -0.1582  0.2969
14266TIP3    H264290   0.075   5.066  16.925  0.2379  0.7276 -0.5284
14267TIP3   OH264291   6.836   3.278  12.112 -0.1502 -0.1803  0.6871
14267TIP3    H164292   6.786   3.198  12.095  1.0068 -0.6192 -0.9026
14267TIP3    H264293   6.917   3.248  12.154  0.3002  0.1391  0.0662
14268TIP3   OH264294   1.884   4.723   3.816 -0.0323  0.0561 -0.8127
14268TIP3    H164295   1.950   4.785   3.844 -0.2258 -0.0235 -0.1673
14268TIP3    H264296   1.848   4.687   3.897  2.1194 -3.1181 -1.0866
14269TIP3   OH264297   6.046   4.010  14.365  0.1575 -0.2173  0.0459
14269TIP3    H164298   6.013   4.093  14.398  1.5472  0.0309  0.9166
14269TIP3    H264299   6.142   4.021  14.366  0.3322 -1.4797 -0.7537
14270TIP3   OH264300   2.042   4.664   1.815  0.0992 -0.3877  0.4294
14270TIP3    H164301   2.063   4.583   1.769 -0.4063  0.0384 -0.5844
14270TIP3    H264302   1.954   4.650   1.850 -1.2534  0.6894 -2.2026
14271TIP3   OH264303   2.878   2.676  11.697 -0.0156  0.0880  0.2736
14271TIP3    H164304   2.931   2.606  11.659 -0.7858 -0.1400 -0.4115
14271TIP3    H264305   2.804   2.632  11.737 -0.2962  0.4839  0.1970
14272TIP3   OH264306   0.738   0.932   1.370  0.2978 -0.1597 -0.4123
14272TIP3    H164307   0.798   0.881   1.424  0.8796  0.3016 -0.6188
14272TIP3    H264308   0.704   1.000   1.428  0.0686 -0.3415 -0.3308
14273TIP3   OH264309   2.988   3.553   1.753  0.3134 -0.2270 -0.0274
14273TIP3    H164310   3.026   3.625   1.703 -1.3912 -0.2631 -1.4788
14273TIP3    H264311   2.898   3.545   1.719 -0.6336 -0.8659  2.4161
14274TIP3   OH264312   0.253   2.246   1.263 -1.0269 -0.4616 -0.6329
14274TIP3    H164313   0.234   2.153   1.249 -0.5815 -0.5393 -0.7285
14274TIP3    H264314   0.174   2.280   1.305 -0.6294 -1.2105  0.8005
14275TIP3   OH264315   2.523   5.493   2.233  0.1257 -0.0607  0.3777
14275TIP3    H164316   2.516   5.417   2.292  0.1780 -1.1003 -0.9085
14275TIP3    H264317   2.617   5.508   2.225  0.2193 -1.1564 -0.9223
14276TIP3   OH264318   6.379   1.147  10.589  0.5165  0.6820  0.6440
14276TIP3    H164319   6.297   1.188  10.561 -0.0642 -1.5883 -1.4484
14276TIP3    H264320   6.447   1.209  10.565 -0.3565  0.8508 -1.7327
14277TIP3   OH264321   4.129   6.053   1.656  0.2716  0.0414  0.2570
14277TIP3    H164322   4.166   6.013   1.735  1.5815  0.6090 -0.0520
14277TIP3    H264323   4.054   5.997   1.634 -0.2359 -0.0224  1.9898
14278TIP3   OH264324   4.128   3.220  13.554  0.4104  0.0540  0.6331
14278TIP3    H164325   4.097   3.309  13.540 -1.1084 -0.4091  0.8578
14278TIP3    H264326   4.081   3.189  13.631 -0.7729 -1.6619 -0.6894
14279TIP3   OH264327   6.845   6.112   4.923  0.1991 -0.2596 -0.1840
14279TIP3    H164328   6.823   6.020   4.933 -0.4830  0.0656  1.6928
14279TIP3    H264329   6.809   6.137   4.837  1.1546 -1.9100 -1.1038
14280TIP3   OH264330   5.681   4.753   3.466 -0.0929 -0.0697 -0.2201
14280TIP3    H164331   5.758   4.711   3.427 -0.2811  0.3311 -1.0549
14280TIP3    H264332   5.607   4.700   3.436 -0.2875  0.5463 -0.8610
14281TIP3   OH264333   1.979   0.914   2.570  0.5764 -0.2085  0.4631
14281TIP3    H164334   1.941   0.999   2.591 -0.0085 -0.9466  2.6023
14281TIP3    H264335   2.055   0.935   2.515 -0.5132  1.5518 -0.4419
14282TIP3   OH264336   1.385   5.155   1.094 -0.2477  0.4556 -0.1018
14282TIP3    H164337   1.439   5.225   1.058 -1.1277  1.1041 -0.1812
14282TIP3    H264338   1.364   5.099   1.019  1.7375 -0.8065  0.2093
14283TIP3   OH264339   6.110   4.478   2.710  0.8693 -0.4644  0.0944
14283TIP3    H164340   6.102   4.570   2.733 -1.7923 -0.5149 -0.3096
14283TIP3    H264341   6.123   4.478   2.615  0.6720 -0.4909  0.0659
14284TIP3   OH264342   5.309   4.165   0.266  0.3832 -0.5103 -0.1334
14284TIP3    H164343   5.228   4.154   0.317  0.6326 -0.8855  0.1939
14284TIP3    H264344   5.279   4.184   0.177 -0.0819 -1.4232 -0.1888
14285TIP3   OH264345   1.249   5.537  15.730 -0.0303  0.1753 -0.5162
14285TIP3    H164346   1.200   5.574  15.803 -0.0145  0.6096 -0.7295
14285TIP3    H264347   1.228   5.591  15.655  2.2432  1.6025 -0.2322
14286TIP3   OH264348   2.050   1.977  12.749 -0.3719 -0.2337 -0.6540
14286TIP3    H164349   1.975   1.925  12.775 -0.6006  1.2832  2.1483
14286TIP3    H264350   2.121   1.948  12.807  0.4830  0.1737 -1.4564
14287TIP3   OH264351   5.606   5.304   0.812  0.3688  0.6017  0.1002
14287TIP3    H164352   5.631   5.356   0.888  2.2298 -2.7954  2.0252
14287TIP3    H264353   5.526   5.259   0.839  0.6846 -0.1296 -0.1562
14288TIP3   OH264354   4.143   4.482  15.221 -0.1300  0.0633  0.5420
14288TIP3    H164355   4.236   4.503  15.227 -0.1196  0.2555 -0.2872
14288TIP3    H264356   4.123   4.440  15.305  0.1193  2.2867  1.7771
14289TIP3   OH264357   0.470   4.204  14.092  0.2946  0.6904  0.1349
14289TIP3    H164358   0.545   4.202  14.152  1.1205  1.6041 -0.8361
14289TIP3    H264359   0.465   4.115  14.056  0.5948  0.4906  0.5744
14290TIP3   OH264360   0.150   4.444   5.587 -0.2376 -0.2164 -0.1161
14290TIP3    H164361   0.094   4.508   5.631 -0.1387  0.8076 -1.4172
14290TIP3    H264362   0.232   4.445   5.637 -1.2340 -1.5633  1.6601
14291TIP3   OH264363   6.643   1.316  11.441  0.0046 -0.1077  0.4586
14291TIP3    H164364   6.561   1.294  11.485  1.4017 -1.9168  2.3508
14291TIP3    H264365   6.668   1.236  11.395  0.6678  0.4738 -0.2213
14292TIP3   OH264366   1.128   0.986   3.230  0.3922 -0.7429  0.1252
14292TIP3    H164367   1.181   1.027   3.162 -0.3617 -0.2166 -0.1545
14292TIP3    H264368   1.076   0.921   3.184 -0.3754 -0.1424  0.1314
14293TIP3   OH264369   1.354   3.489   1.784 -0.3109  0.1474  0.5745
14293TIP3    H164370   1.363   3.531   1.869 -0.7843  1.1237  0.1642
14293TIP3    H264371   1.409   3.411   1.789 -3.8987 -2.6099  3.4983
14294TIP3   OH264372   6.525   3.593  15.650 -0.2379 -0.2404  0.1720
14294TIP3    H164373   6.614   3.564  15.667 -0.2638 -0.1054  0.5531
14294TIP3    H264374   6.490   3.530  15.587 -0.1158 -0.7126  0.5722
14295TIP3   OH264375   4.136   5.574   5.389 -0.7171 -0.2183  0.2588
14295TIP3    H164376   4.041   5.566   5.394 -0.6663 -0.8137  0.3434
14295TIP3    H264377   4.151   5.647   5.329 -1.2258 -0.0040  0.3844
14296TIP3   OH264378   3.456   0.438  12.114  0.3642  0.5213 -0.0231
14296TIP3    H164379   3.542   0.444  12.158  1.2021  1.4077 -1.7043
14296TIP3    H264380   3.477   0.410  12.025 -1.0595  1.3207 -0.6268
14297TIP3   OH264381   2.865   5.651  10.652  0.4630  0.6869 -0.3803
14297TIP3    H164382   2.918   5.726  10.680 -1.3264  1.5879  0.7604
14297TIP3    H264383   2.814   5.684  10.577 -2.1019  1.4911  1.5657
14298TIP3   OH264384   3.124   1.665   1.848 -0.3054  0.2499 -0.1842
14298TIP3    H164385   3.081   1.620   1.775 -1.6695  1.4371 -0.1584
14298TIP3    H264386   3.158   1.745   1.809 -0.4867  0.5939  0.3567
14299TIP3   OH264387   0.579   0.088   1.090  0.0603 -0.6146 -0.5841
14299TIP3    H164388   0.605   0.177   1.112  0.8109 -1.0139  0.2305
14299TIP3    H264389   0.488   0.081   1.116 -0.2011  0.1066 -1.2779
14300TIP3   OH264390   2.125   1.294   3.256 -0.6120  0.7110 -0.2898
14300TIP3    H164391   2.185   1.220   3.262 -0.4801  0.6192 -2.1790
14300TIP3    H264392   2.137   1.328   3.168 -4.5134 -0.3734 -1.4546
14301TIP3   OH264393   2.818   1.271   4.434 -0.3712  0.3404 -0.2613
14301TIP3    H164394   2.841   1.359   4.406  1.8960 -0.4543 -1.1003
14301TIP3    H264395   2.819   1.275   4.529  0.6580  1.0082 -0.2906
14302TIP3   OH264396   2.083   6.085   2.415  0.4765 -0.2029 -0.4116
14302TIP3    H164397   2.003   6.125   2.449  1.3387  2.7999 -1.5331
14302TIP3    H264398   2.091   6.002   2.461 -0.5806  1.6704  3.5634
14303TIP3   OH264399   4.685   2.297  11.412  0.7323 -0.1928 -0.0131
14303TIP3    H164400   4.633   2.319  11.489 -0.2292 -0.2174 -0.6486
14303TIP3    H264401   4.673   2.371  11.353  0.8432 -0.5257 -0.4558
14304TIP3   OH264402   3.582   3.526  15.831  0.4198 -0.1806 -0.1344
14304TIP3    H164403   3.590   3.475  15.912 -0.6379 -0.9043 -0.4617
14304TIP3    H264404   3.660   3.504  15.781  0.6212 -0.4523  0.2878
14305TIP3   OH264405   5.822   0.845   4.712  0.4345 -0.2641  0.3697
14305TIP3    H164406   5.846   0.853   4.804  1.6590  1.4077 -0.0580
14305TIP3    H264407   5.727   0.858   4.711  0.4643  0.0852  1.3557
14306TIP3   OH264408   0.220   4.699  15.999 -0.2643  0.4555 -0.4301
14306TIP3    H164409   0.285   4.738  15.941  0.3228 -0.5186 -0.4460
14306TIP3    H264410   0.160   4.653  15.941 -0.8242  1.1420 -0.3980
14307TIP3   OH264411   3.820   0.405  13.952 -0.5459  0.2760  0.0047
14307TIP3    H164412   3.860   0.423  14.037  0.1830 -0.8004 -0.0852
14307TIP3    H264413   3.816   0.490  13.908 -0.7255  0.8053  1.0216
14308TIP3   OH264414   0.607   1.729  15.859  0.3741  0.0213 -0.2395
14308TIP3    H164415   0.648   1.693  15.780  2.4170  1.5145  0.0528
14308TIP3    H264416   0.599   1.823  15.841  1.8226  0.5581  1.6580
14309TIP3   OH264417   5.610   1.883  12.895 -0.6644  0.1283  0.0880
14309TIP3    H164418   5.516   1.902  12.897 -0.6624  0.2540 -0.6847
14309TIP3    H264419   5.647   1.949  12.835 -0.1300 -0.1010  0.1557
14310TIP3   OH264420   2.821   6.606   3.724 -0.3296 -0.5383 -0.8376
14310TIP3    H164421   2.821   6.645   3.637  0.9176 -0.0644 -0.6491
14310TIP3    H264422   2.824   6.680   3.784 -1.3522 -0.8573 -0.3719
14311TIP3   OH264423   3.704   0.254  12.565 -0.2059 -0.2746 -0.6518
14311TIP3    H164424   3.737   0.236  12.653  0.3617  1.5957 -0.4438
14311TIP3    H264425   3.746   0.187  12.510  0.1497 -0.8945  0.3402
14312TIP3   OH264426   1.278   0.718  15.503 -0.0833 -0.3635 -0.2333
14312TIP3    H164427   1.334   0.795  15.492  1.8722 -1.5693  0.8146
14312TIP3    H264428   1.290   0.692  15.594  0.1706 -2.5364 -0.8355
14313TIP3   OH264429   0.603   5.702  14.792 -0.2481  0.4891  0.6847
14313TIP3    H164430   0.687   5.696  14.747 -0.9842  0.4821 -0.7357
14313TIP3    H264431   0.609   5.781  14.845  0.6736  0.4371  0.6672
14314TIP3   OH264432   0.905   4.165   4.362  0.1506  0.4229 -0.2098
14314TIP3    H164433   0.966   4.192   4.293  0.3579 -1.7274 -0.9542
14314TIP3    H264434   0.958   4.114   4.422 -0.5661 -0.0346  0.0503
14315TIP3   OH264435   5.435   2.798   5.037 -0.8649 -0.0433  0.0956
14315TIP3    H164436   5.451   2.776   4.946 -0.9734 -1.3916  0.3797
14315TIP3    H264437   5.477   2.883   5.049 -2.0644  0.8290 -1.5496
14316TIP3   OH264438   0.239   4.783   0.488 -0.0803 -0.5036 -0.2616
14316TIP3    H164439   0.155   4.759   0.449 -0.2714  0.4965 -0.4994
14316TIP3    H264440   0.277   4.700   0.516 -1.0681 -0.9908 -0.3082
14317TIP3   OH264441   0.327   1.671  12.701 -0.2424 -0.0804  0.4087
14317TIP3    H164442   0.395   1.605  12.689 -0.0205  0.1104  0.5905
14317TIP3    H264443   0.261   1.628  12.756  0.4216  0.1969  1.4579
14318TIP3   OH264444   4.275   3.270   1.634  0.0696 -0.2986  0.3503
14318TIP3    H164445   4.265   3.192   1.688 -1.7562 -0.8311 -0.6752
14318TIP3    H264446   4.322   3.240   1.556  2.0136  0.3040  1.2310
14319TIP3   OH264447   0.747   0.398  12.282  0.4984  0.0207 -0.0382
14319TIP3    H164448   0.686   0.347  12.229  1.2269  0.7447 -1.6322
14319TIP3    H264449   0.831   0.354  12.271  0.8578  0.7553 -0.3312
14320TIP3   OH264450   0.935   4.478   2.807  0.0945  0.4763  0.0163
14320TIP3    H164451   0.891   4.496   2.724 -0.3911  1.0898  0.3932
14320TIP3    H264452   1.017   4.527   2.802  2.0052 -2.6297 -1.7162
14321TIP3   OH264453   5.821   6.032   3.301 -0.3307 -0.3150 -0.4568
14321TIP3    H164454   5.797   5.983   3.380 -0.5624  0.4213 -0.0597
14321TIP3    H264455   5.883   5.975   3.256  0.2230 -0.5274  0.5330
14322TIP3   OH264456   0.347   4.652  10.672 -0.3778 -0.5282  0.6185
14322TIP3    H164457   0.262   4.669  10.631 -0.5624 -0.1419  1.1405
14322TIP3    H264458   0.403   4.723  10.643 -0.2580 -0.7293  0.3529
14323TIP3   OH264459   3.581   4.271   5.541 -0.7110 -0.2471 -0.5389
14323TIP3    H164460   3.519   4.205   5.510  0.4629 -1.3348 -0.6176
14323TIP3    H264461   3.664   4.247   5.501  0.1963  0.0571  1.0812
14324TIP3   OH264462   6.248   5.618   2.871  0.2091 -0.6565  0.4573
14324TIP3    H164463   6.209   5.538   2.836  0.4149 -0.7186  0.3681
14324TIP3    H264464   6.293   5.657   2.796 -0.6015 -0.0159  0.2927
14325TIP3   OH264465   4.248   1.652  16.165  0.2184 -0.3522 -0.1695
14325TIP3    H164466   4.218   1.645  16.255 -0.3305 -0.8238 -0.3816
14325TIP3    H264467   4.194   1.589  16.117 -1.1733  1.5757 -1.2636
14326TIP3   OH264468   6.302   3.973   0.653 -0.1228  0.1880 -0.1721
14326TIP3    H164469   6.225   3.915   0.653  0.2234 -0.2964 -1.4635
14326TIP3    H264470   6.369   3.924   0.607  0.4529  1.2817 -0.5295
14327TIP3   OH264471   2.317   0.094  15.533 -0.0958 -0.3613 -0.4935
14327TIP3    H164472   2.368   0.139  15.600  0.9169  0.0056 -1.4726
14327TIP3    H264473   2.373   0.022  15.504 -0.0938  0.0739 -1.6262
14328TIP3   OH264474   4.241   0.292   4.175  0.0468  0.0413 -0.4177
14328TIP3    H164475   4.311   0.357   4.176 -0.6146  0.9257 -2.9148
14328TIP3    H264476   4.183   0.318   4.247  1.0594  0.7010  0.1873
14329TIP3   OH264477   2.368   6.632   3.188  0.3940 -0.7825 -0.2490
14329TIP3    H164478   2.313   6.625   3.110  1.8724  0.2359 -1.4531
14329TIP3    H264479   2.311   6.610   3.260 -1.8371  0.9526 -1.3522
14330TIP3   OH264480   0.582   6.689   5.404  0.7556  0.1416  0.4804
14330TIP3    H164481   0.642   6.671   5.476 -0.0369  1.5649  1.5725
14330TIP3    H264482   0.636   6.729   5.336  1.4005 -0.5939  0.5597
14331TIP3   OH264483   4.488   5.255  16.957 -0.0706 -0.2682 -0.5624
14331TIP3    H164484   4.500   5.323  17.023  0.7476 -1.0795  0.1610
14331TIP3    H264485   4.507   5.298  16.874  2.5200 -0.0497  0.0431
14332TIP3   OH264486   3.051   0.441   1.630  0.1753  0.6050 -0.6060
14332TIP3    H164487   3.029   0.377   1.698  3.1304 -0.8403 -0.8580
14332TIP3    H264488   3.065   0.523   1.678  0.6060 -0.0039  0.3384
14333TIP3   OH264489   5.783   4.118  15.628  0.4864 -0.0601 -0.6475
14333TIP3    H164490   5.858   4.111  15.687  0.1006  1.8666  0.1240
14333TIP3    H264491   5.707   4.100  15.683  0.2126  0.5003 -0.8340
14334TIP3   OH264492   2.549   6.594   0.235 -0.1181 -0.4995  0.4735
14334TIP3    H164493   2.539   6.575   0.142 -3.2784 -1.0876  0.8338
14334TIP3    H264494   2.573   6.510   0.274  2.2553 -0.0434  0.1577
14335TIP3   OH264495   5.367   2.414   2.004 -0.1804 -0.1323 -0.0687
14335TIP3    H164496   5.389   2.507   2.009  0.5569 -0.2581 -0.8463
14335TIP3    H264497   5.385   2.390   1.913  0.0736 -1.1433  0.2421
14336TIP3   OH264498   0.752   2.113  14.720  0.1163 -0.5384 -0.1159
14336TIP3    H164499   0.662   2.081  14.713 -0.1374  0.0800  0.2523
14336TIP3    H264500   0.743   2.201  14.756  0.9808 -1.2404  1.9109
14337TIP3   OH264501   6.618   2.924  16.793 -0.2369 -0.0081  0.1059
14337TIP3    H164502   6.697   2.888  16.831  0.6077  0.3683 -1.1970
14337TIP3    H264503   6.556   2.852  16.792  0.2761 -0.4641  0.6264
14338TIP3   OH264504   1.373   3.095  14.373 -0.3380  0.1499  0.0821
14338TIP3    H164505   1.330   3.026  14.424  0.0313  0.6048  1.0443
14338TIP3    H264506   1.377   3.060  14.284 -2.2802 -0.0987  0.0403
14339TIP3   OH264507   3.626   1.034  16.255 -0.7252 -0.2109 -0.5227
14339TIP3    H164508   3.545   1.013  16.207 -0.2485  0.1228 -1.5028
14339TIP3    H264509   3.679   0.955  16.248 -0.2702  0.1588 -1.3805
14340TIP3   OH264510   2.477   6.670   1.052 -0.5302 -0.0838  0.6019
14340TIP3    H164511   2.415   6.616   1.001 -1.2096 -0.1794  1.5132
14340TIP3    H264512   2.520   6.724   0.986 -0.4080 -1.1682 -0.2482
14341TIP3   OH264513   2.253   3.448  11.531  0.8547 -0.2291  0.3983
14341TIP3    H164514   2.277   3.410  11.615  2.4872 -0.2222 -0.0289
14341TIP3    H264515   2.228   3.538  11.552 -2.4505 -1.2187  1.3305
14342TIP3   OH264516   6.100   1.775  12.169 -0.1526 -0.2006  0.6679
14342TIP3    H164517   6.165   1.844  12.183  0.6553 -0.6422 -0.6843
14342TIP3    H264518   6.038   1.811  12.107 -0.3992 -0.2856  0.8612
14343TIP3   OH264519   0.096   0.727  10.358  0.3418  0.3138  0.1544
14343TIP3    H164520   0.102   0.631  10.350  0.4832  0.3752 -0.5059
14343TIP3    H264521   0.146   0.760  10.284  1.4844  0.9175  1.1618
14344TIP3   OH264522   5.051   5.239  15.557 -0.3539  0.0705 -0.4754
14344TIP3    H164523   5.111   5.185  15.609 -0.7397 -1.7028 -1.7500
14344TIP3    H264524   4.965   5.198  15.570 -0.4404 -0.5790 -2.5589
14345TIP3   OH264525   5.428   6.601  14.292 -0.2371  0.2975  0.3472
14345TIP3    H164526   5.494   6.538  14.320 -1.1602 -1.0777 -0.4485
14345TIP3    H264527   5.419   6.587  14.198 -0.5399  1.5695  0.1549
14346TIP3   OH264528   1.955   6.606  16.871 -0.0880 -0.3071 -0.4889
14346TIP3    H164529   1.918   6.694  16.871  2.6752  0.9397  0.3424
14346TIP3    H264530   1.880   6.549  16.889 -1.8395  1.8979 -0.3930
14347TIP3   OH264531   1.332   3.358   0.089 -0.1091  0.5402 -0.0327
14347TIP3    H164532   1.350   3.414   0.164  1.6927  1.7257 -1.2827
14347TIP3    H264533   1.253   3.396   0.050 -2.9414 -1.8785  2.8214
14348TIP3   OH264534   1.734   3.476   6.176 -0.4089 -0.3423  0.2640
14348TIP3    H164535   1.829   3.469   6.175 -0.0705  2.6438  1.4672
14348TIP3    H264536   1.715   3.549   6.118 -1.8320 -0.0701  1.0240
14349TIP3   OH264537   1.963   3.683   1.444  0.1277 -0.0078  0.4600
14349TIP3    H164538   1.968   3.682   1.348 -0.2767 -2.4006  0.3974
14349TIP3    H264539   2.048   3.647   1.472 -0.6960 -1.7672  0.8492
14350TIP3   OH264540   1.347   5.135  11.939  0.0269 -0.1872 -0.1636
14350TIP3    H164541   1.394   5.182  11.871  1.9160 -0.3575  0.9412
14350TIP3    H264542   1.339   5.199  12.011 -2.5995  0.2360 -0.7518
14351TIP3   OH264543   4.463   0.810  17.024 -0.0449 -0.4030 -0.1195
14351TIP3    H164544   4.510   0.884  17.063  0.0430 -1.4730  1.9439
14351TIP3    H264545   4.525   0.775  16.959  0.5321  0.3793 -0.0158
14352TIP3   OH264546   1.256   6.861   1.142  0.5368  0.5099  0.1979
14352TIP3    H164547   1.311   6.940   1.147  1.8242 -0.4337  2.0337
14352TIP3    H264548   1.292   6.812   1.068  2.4076 -0.1701  1.4617
14353TIP3   OH264549   5.311   1.495   3.716  0.3615  0.0749 -0.5030
14353TIP3    H164550   5.344   1.573   3.671  0.0543 -0.5971 -1.9563
14353TIP3    H264551   5.224   1.480   3.679  0.4637 -1.0296 -0.3386
14354TIP3   OH264552   4.529   3.646   3.028 -0.5560  0.1404  0.2485
14354TIP3    H164553   4.546   3.594   3.107 -0.4607  0.9387  0.7650
14354TIP3    H264554   4.579   3.726   3.041 -0.0931  0.0459 -0.8911
14355TIP3   OH264555   5.334   4.876  15.798 -0.3552  0.3546 -0.0778
14355TIP3    H164556   5.258   4.840  15.752  0.0926 -0.2181 -0.3811
14355TIP3    H264557   5.405   4.815  15.778  0.2250  0.9733  0.0670
14356TIP3   OH264558   0.331   1.802   1.500 -0.1395  0.0851 -0.1331
14356TIP3    H164559   0.420   1.831   1.481 -0.3167  0.4582 -0.4049
14356TIP3    H264560   0.331   1.708   1.481  0.4701 -0.1269  0.8695
14357TIP3   OH264561   4.657   2.295  14.796 -0.1575 -1.0053  0.1556
14357TIP3    H164562   4.650   2.315  14.702 -2.4088 -1.2268  0.2110
14357TIP3    H264563   4.722   2.357  14.829 -0.1942 -0.1162 -1.3479
14358TIP3   OH264564   6.665   0.397  13.746  0.2000 -0.0736 -0.6413
14358TIP3    H164565   6.686   0.490  13.756  0.8376 -0.1807 -0.9622
14358TIP3    H264566   6.670   0.361  13.835 -0.9826  0.3810 -0.3678
14359TIP3   OH264567   2.565   2.820   6.488  0.3903  0.1667  0.3405
14359TIP3    H164568   2.512   2.808   6.567 -1.2464 -0.9427 -0.8455
14359TIP3    H264569   2.655   2.808   6.517 -0.1939 -0.6635  1.9415
14360TIP3   OH264570   6.211   1.955  11.226  0.0417 -0.1175  0.4144
14360TIP3    H164571   6.202   1.888  11.294  0.2306  0.4682  1.0293
14360TIP3    H264572   6.182   1.911  11.146  1.1035 -1.2501  0.6100
14361TIP3   OH264573   1.013   3.500  13.782  0.0375 -0.0883 -0.0063
14361TIP3    H164574   0.939   3.485  13.723  0.8126  1.4888 -1.5015
14361TIP3    H264575   1.085   3.524  13.723  1.5668 -0.9056  1.4480
14362TIP3   OH264576   6.767   3.930   3.129 -0.1842 -0.0462 -0.1074
14362TIP3    H164577   6.825   3.963   3.198  1.3027 -0.8086 -0.9597
14362TIP3    H264578   6.697   3.885   3.176  0.4754 -0.0154  0.9272
14363TIP3   OH264579   5.958   5.956  16.305  0.1190  0.3054 -0.1891
14363TIP3    H164580   5.994   5.895  16.370  0.5946  1.0048  0.2194
14363TIP3    H264581   5.870   5.976  16.337  0.6889  1.3750  0.7737
14364TIP3   OH264582   2.160   4.186   1.596 -0.7126  0.5772 -0.8159
14364TIP3    H164583   2.124   4.175   1.684 -1.8839 -1.2733 -1.4749
14364TIP3    H264584   2.114   4.121   1.542  1.7489 -0.0768 -2.2838
14365TIP3   OH264585   4.989   5.340  12.440 -0.0328  0.3086  0.4465
14365TIP3    H164586   5.039   5.291  12.376 -1.2069 -1.1232  0.5760
14365TIP3    H264587   4.913   5.285  12.460 -0.3614  1.2685  2.1262
14366TIP3   OH264588   6.417   3.633   5.374 -0.0484  0.9125  0.5737
14366TIP3    H164589   6.458   3.548   5.390 -0.9520  0.4334  0.4150
14366TIP3    H264590   6.481   3.681   5.322  0.8009  0.6242  1.3137
14367TIP3   OH264591   4.563   3.967  13.267 -0.0770 -0.6144  0.4515
14367TIP3    H164592   4.479   3.966  13.221 -0.9907 -0.8400  2.0437
14367TIP3    H264593   4.584   4.060  13.275 -0.6779 -0.5138  0.9102
14368TIP3   OH264594   2.904   4.597   0.311 -0.1228  0.1998 -1.4287
14368TIP3    H164595   2.916   4.648   0.391  1.3648 -0.5315 -1.1399
14368TIP3    H264596   2.836   4.643   0.262 -2.0050 -0.0572  0.8235
14369TIP3   OH264597   0.624   1.236   2.618 -0.6484 -0.6619  0.1057
14369TIP3    H164598   0.719   1.247   2.618 -0.7886  0.6848 -0.8118
14369TIP3    H264599   0.610   1.150   2.657  1.2157 -2.9769 -3.6996
14370TIP3   OH264600   3.287   5.340   4.627 -0.5362  0.3334 -0.0322
14370TIP3    H164601   3.360   5.330   4.689  0.6215  0.8045 -1.2887
14370TIP3    H264602   3.218   5.383   4.678  0.4983  0.9717  0.8555
14371TIP3   OH264603   6.150   5.427   0.319 -0.0465 -0.3102 -0.2864
14371TIP3    H164604   6.116   5.412   0.231 -1.6254  0.7545  0.0935
14371TIP3    H264605   6.072   5.445   0.372  0.9862  0.5173  1.0201
14372TIP3   OH264606   6.551   4.205  12.547 -0.0288  0.1343  0.2361
14372TIP3    H164607   6.622   4.224  12.608  1.0688  1.2750 -1.3315
14372TIP3    H264608   6.594   4.167  12.470 -0.8369  2.3602 -1.4278
14373TIP3   OH264609   3.169   0.907   2.632  0.6165  0.7361 -0.1782
14373TIP3    H164610   3.240   0.912   2.697  1.1429 -1.1648 -0.5518
14373TIP3    H264611   3.206   0.857   2.560 -0.6934  0.8966 -0.9912
14374TIP3   OH264612   1.002   2.638   0.334 -0.4688  0.1427 -0.2900
14374TIP3    H164613   1.056   2.581   0.280 -2.9275  0.2584 -3.1336
14374TIP3    H264614   0.920   2.591   0.345 -0.9053  1.1846  1.3587
14375TIP3   OH264615   4.526   6.274  16.909  0.1015  0.2056  0.2071
14375TIP3    H164616   4.564   6.361  16.913 -0.3848  0.7072 -3.2003
14375TIP3    H264617   4.567   6.226  16.981  0.9325  2.9884  1.7146
14376TIP3   OH264618   5.692   1.091  16.429  0.0806  0.4269  0.2267
14376TIP3    H164619   5.720   1.009  16.388  1.4214  0.5585  0.8239
14376TIP3    H264620   5.598   1.095  16.413  0.1886 -0.6569 -0.8081
14377TIP3   OH264621   5.574   6.768  14.830 -0.1096  0.0353  0.4871
14377TIP3    H164622   5.662   6.788  14.801  0.5324 -3.0486 -0.0525
14377TIP3    H264623   5.564   6.817  14.912  1.0454  2.4981 -0.7337
14378TIP3   OH264624   4.207   6.101   3.300 -0.2027  0.1784  0.0563
14378TIP3    H164625   4.252   6.036   3.247 -0.0763 -0.6248  1.1111
14378TIP3    H264626   4.275   6.162   3.327 -0.0206 -0.1921  0.4297
14379TIP3   OH264627   6.329   5.832   5.175 -0.2078  0.0245 -0.1945
14379TIP3    H164628   6.273   5.821   5.252 -1.6273  0.5484 -1.0962
14379TIP3    H264629   6.296   5.912   5.134  2.1619  1.1560 -0.0135
14380TIP3   OH264630   6.563   6.711   6.198 -0.4524  0.9203 -1.0979
14380TIP3    H164631   6.540   6.742   6.286  2.7932 -0.3835  0.3839
14380TIP3    H264632   6.588   6.791   6.151  2.7771  1.3163  0.9729
14381TIP3   OH264633   0.530   5.598   5.651 -0.4473  0.0584  0.0021
14381TIP3    H164634   0.484   5.523   5.613  1.2779  0.2662 -2.8034
14381TIP3    H264635   0.481   5.674   5.619  1.2882  0.2563 -2.5174
14382TIP3   OH264636   5.605   6.880   1.503 -0.2785  0.3497  0.0927
14382TIP3    H164637   5.544   6.873   1.429  0.4975 -1.4653 -0.4239
14382TIP3    H264638   5.549   6.873   1.581 -0.8433 -0.1977 -0.3597
14383TIP3   OH264639   5.629   3.322  13.104  0.6309 -0.7306 -0.2923
14383TIP3    H164640   5.679   3.403  13.113  1.0742 -1.1079  0.7166
14383TIP3    H264641   5.670   3.277  13.030  1.1901 -0.6089 -0.0621
14384TIP3   OH264642   1.586   1.345   0.042  0.3019 -0.5668  0.5353
14384TIP3    H164643   1.562   1.262   0.001  0.4734 -0.3425 -0.0303
14384TIP3    H264644   1.627   1.395  -0.028  0.1765  0.0069  0.8672
14385TIP3   OH264645   3.802   6.523  10.427 -0.6200 -0.2781 -0.1391
14385TIP3    H164646   3.846   6.604  10.400  0.0975 -0.8405 -0.6717
14385TIP3    H264647   3.733   6.510  10.362  0.4727 -1.0952 -1.1793
14386TIP3   OH264648   5.819   0.355  11.850  0.2106 -0.2082 -0.6578
14386TIP3    H164649   5.913   0.350  11.833  0.4160  1.2565 -0.1046
14386TIP3    H264650   5.789   0.432  11.800 -0.6462 -0.5143 -0.6373
14387TIP3   OH264651   6.549   0.855  14.403 -0.1468  0.1551 -0.1211
14387TIP3    H164652   6.496   0.852  14.323  0.2959  2.1585 -0.5578
14387TIP3    H264653   6.486   0.843  14.473 -0.8466  0.2415 -0.7193
14388TIP3   OH264654   2.998   0.626   4.732 -0.1398 -0.0710  0.3088
14388TIP3    H164655   3.036   0.608   4.646  0.1625 -0.1224  0.4503
14388TIP3    H264656   3.053   0.576   4.793  1.5034  2.2563  0.8527
14389TIP3   OH264657   6.658   5.293   1.183  0.4915  0.6050  1.2650
14389TIP3    H164658   6.730   5.353   1.203  0.4964  0.6311  1.1682
14389TIP3    H264659   6.690   5.207   1.210  0.2800  0.7248  1.9055
14390TIP3   OH264660   4.288   0.325  14.347 -0.0901 -0.2580  0.2663
14390TIP3    H164661   4.330   0.260  14.403 -0.3814 -1.5712 -0.9834
14390TIP3    H264662   4.352   0.340  14.277 -0.5605 -0.1625 -0.1431
14391TIP3   OH264663   3.958   4.922   3.100 -0.2866 -0.6303 -0.5435
14391TIP3    H164664   3.932   4.888   3.014 -0.5831  2.7086 -1.9309
14391TIP3    H264665   4.053   4.911   3.103 -0.4752 -2.4958 -0.4092
14392TIP3   OH264666   3.112   0.718  12.615  0.5472 -0.4916 -0.4310
14392TIP3    H164667   3.187   0.660  12.604  0.4242 -0.4797 -1.3512
14392TIP3    H264668   3.072   0.723  12.529 -1.2981 -1.5680  0.2956
14393TIP3   OH264669   2.722   1.740  11.432 -0.2164  0.1958 -0.4019
14393TIP3    H164670   2.777   1.817  11.449 -2.2977  1.2224  2.3081
14393TIP3    H264671   2.637   1.777  11.406 -0.8238 -1.2431 -0.5220
14394TIP3   OH264672   4.493   6.634   6.427 -0.1273  0.0398  0.2324
14394TIP3    H164673   4.583   6.664   6.426  0.3229 -1.0993  1.8642
14394TIP3    H264674   4.449   6.687   6.360  2.1089 -0.6127 -1.9150
14395TIP3   OH264675   0.036   2.477   3.758 -0.8480  0.1498 -0.1840
14395TIP3    H164676   0.069   2.551   3.809 -1.9803  0.9988 -0.6380
14395TIP3    H264677  -0.056   2.499   3.740 -1.1239 -1.2198 -0.6043
14396TIP3   OH264678   4.887   4.917  14.651  0.3197 -0.3739 -0.3859
14396TIP3    H164679   4.964   4.908  14.596  0.2372 -1.1581 -0.3808
14396TIP3    H264680   4.825   4.853  14.616 -0.2859  0.1620 -0.3137
14397TIP3   OH264681   5.471   5.663  11.728 -0.2266 -0.1154 -0.1546
14397TIP3    H164682   5.554   5.627  11.696 -0.9689 -0.3177 -2.0012
14397TIP3    H264683   5.440   5.600  11.793  0.0495 -1.1454 -1.0021
14398TIP3   OH264684   3.797   3.817   2.536 -0.2236  0.1952  0.1755
14398TIP3    H164685   3.855   3.892   2.526  0.3523 -0.3988 -1.1371
14398TIP3    H264686   3.769   3.820   2.627  2.9901 -0.3012  1.3024
14399TIP3   OH264687   0.777   5.114   2.940 -0.0598  0.9322 -0.4817
14399TIP3    H164688   0.848   5.144   2.996 -0.4818 -0.5946  0.9511
14399TIP3    H264689   0.809   5.033   2.901 -1.3464 -0.4436  1.1198
14400TIP3   OH264690   5.508   5.239   3.460  0.1422 -0.6000 -0.2289
14400TIP3    H164691   5.531   5.212   3.371  1.4713  0.5420 -0.2554
14400TIP3    H264692   5.413   5.253   3.456 -0.0041 -1.6583 -1.1472
14401TIP3   OH264693   5.947   5.646  15.296 -0.7487  0.3043 -0.4283
14401TIP3    H164694   6.005   5.639  15.220 -0.6558  0.5189 -0.3784
14401TIP3    H264695   6.003   5.683  15.364 -0.6696 -0.4502 -0.0784
14402TIP3   OH264696   4.504   5.847  16.660  0.5321  0.1408 -0.1710
14402TIP3    H164697   4.554   5.905  16.717  1.0100  1.6710 -2.0405
14402TIP3    H264698   4.413   5.876  16.671 -0.0164 -2.1230  2.6220
14403TIP3   OH264699   5.561   6.403   4.990 -0.4714 -0.1845  0.8705
14403TIP3    H164700   5.467   6.418   4.978 -0.1026  1.7664  0.1524
14403TIP3    H264701   5.567   6.356   5.073 -2.0622 -0.2571  0.9803
14404TIP3   OH264702   2.430   2.337   5.948 -0.6267  0.5483 -0.7409
14404TIP3    H164703   2.349   2.298   5.981  0.4403 -0.5158  0.7376
14404TIP3    H264704   2.411   2.431   5.943 -1.9197  0.3284 -0.3128
14405TIP3   OH264705   4.627   3.927   2.696  0.1733 -0.3192  0.3780
14405TIP3    H164706   4.679   3.852   2.669 -1.3168 -1.4782  0.5900
14405TIP3    H264707   4.642   3.935   2.791  0.2761 -0.3784  0.3665
14406TIP3   OH264708   2.908   6.242   3.057  0.4582  0.0786  0.3854
14406TIP3    H164709   2.951   6.171   3.008  0.2074  1.9082 -2.7639
14406TIP3    H264710   2.819   6.245   3.022 -0.4720  0.1303  2.5993
14407TIP3   OH264711   4.846   3.395   4.932  0.5175 -0.4850 -0.7517
14407TIP3    H164712   4.853   3.364   4.841  2.1418 -0.1714 -0.7611
14407TIP3    H264713   4.818   3.318   4.981 -1.7604 -0.3303 -1.6802
14408TIP3   OH264714   5.717   4.737  16.644 -0.4663 -0.4055  0.1434
14408TIP3    H164715   5.802   4.766  16.675 -0.0891 -0.0595 -1.1543
14408TIP3    H264716   5.680   4.687  16.717  1.1751 -1.2413  0.4468
14409TIP3   OH264717   3.850   1.618  13.730  0.0245  0.5473 -0.1174
14409TIP3    H164718   3.797   1.597  13.807 -2.1202 -0.4637 -1.7816
14409TIP3    H264719   3.828   1.709  13.710 -0.4381  0.3951 -0.3071
14410TIP3   OH264720   6.241   0.975  13.712 -0.6196 -0.2114 -0.5165
14410TIP3    H164721   6.187   1.028  13.653 -0.2832  0.0803 -0.5691
14410TIP3    H264722   6.314   0.947  13.658 -0.6364 -0.4729 -0.4024
14411TIP3   OH264723   1.470   2.081  16.971  0.1844 -0.2444  0.1551
14411TIP3    H164724   1.401   2.074  17.036 -0.5705 -0.6918 -0.6759
14411TIP3    H264725   1.502   1.992  16.958 -2.0437 -0.7939 -2.5516
14412TIP3   OH264726   6.234   5.431  13.788 -0.4905 -0.3459  0.3104
14412TIP3    H164727   6.328   5.417  13.800 -0.6633 -3.1819 -0.7905
14412TIP3    H264728   6.206   5.356  13.736 -3.3444  0.5708  0.3924
14413TIP3   OH264729   4.136   3.391  16.889  0.5722  0.1199  0.3062
14413TIP3    H164730   4.042   3.374  16.891  0.3658  0.4917 -2.4787
14413TIP3    H264731   4.173   3.322  16.944 -1.1820 -1.5272 -0.4343
14414TIP3   OH264732   4.402   4.927  12.577 -0.2161  0.1843  0.2115
14414TIP3    H164733   4.482   4.972  12.550  0.3253 -0.9073 -0.0142
14414TIP3    H264734   4.360   4.902  12.494  0.4332 -1.3759  0.3259
14415TIP3   OH264735   4.326   3.048   3.795  0.8478  0.3353 -0.3202
14415TIP3    H164736   4.360   3.030   3.883 -2.8935 -1.1344  1.0293
14415TIP3    H264737   4.315   2.962   3.756 -2.0262  0.5748 -0.2380
14416TIP3   OH264738   5.062   4.426   0.068  0.6493  0.2379 -0.3256
14416TIP3    H164739   5.137   4.473   0.106  0.1693  1.0193 -0.3279
14416TIP3    H264740   5.044   4.356   0.130  1.6259 -0.2046 -0.5192
14417TIP3   OH264741   0.331   3.825   2.538 -0.1347  0.0428  0.1576
14417TIP3    H164742   0.416   3.792   2.567  1.1388  2.1183 -0.9363
14417TIP3    H264743   0.286   3.850   2.619  0.9055  0.2862  0.6757
14418TIP3   OH264744   6.820   4.496  16.755  0.0921  0.0746 -0.2263
14418TIP3    H164745   6.736   4.450  16.755  0.1877 -0.1144 -1.0230
14418TIP3    H264746   6.827   4.533  16.667  0.2853  1.1274  0.2145
14419TIP3   OH264747   3.525   0.380  10.959 -0.0706  0.0388  0.2402
14419TIP3    H164748   3.508   0.318  11.029 -0.4733 -0.4952 -0.3181
14419TIP3    H264749   3.517   0.328  10.878  0.7078  0.5655 -0.1837
14420TIP3   OH264750   5.335   6.779  11.345 -0.2018  0.0783  0.0645
14420TIP3    H164751   5.272   6.848  11.366  0.4945  0.7707 -0.1090
14420TIP3    H264752   5.290   6.698  11.372 -1.1413  0.5571 -0.0022
14421TIP3   OH264753   5.000   4.710   3.824  0.8638  0.1435 -0.7196
14421TIP3    H164754   5.079   4.729   3.773 -0.1488  2.1829 -1.6483
14421TIP3    H264755   5.006   4.770   3.899  0.0252  0.6268 -1.0282
14422TIP3   OH264756   6.476   6.484  13.758 -0.3472  0.0973 -0.0000
14422TIP3    H164757   6.389   6.489  13.795 -1.7642 -2.2775 -2.5851
14422TIP3    H264758   6.512   6.401  13.792 -0.1335 -0.1786 -0.8706
14423TIP3   OH264759   5.360   4.659   4.301  0.3546 -0.0334 -0.7600
14423TIP3    H164760   5.332   4.745   4.270 -0.6720 -0.1273 -0.1571
14423TIP3    H264761   5.436   4.637   4.247  0.5689  1.1987 -0.9855
14424TIP3   OH264762   1.990   1.306   4.579  0.3707 -0.0981 -0.1545
14424TIP3    H164763   1.998   1.375   4.645  0.1166 -0.2044 -0.0139
14424TIP3    H264764   2.062   1.324   4.518 -0.4999  1.1040 -0.8684
14425TIP3   OH264765   3.873   6.196  11.650  0.5705  0.1562 -0.1627
14425TIP3    H164766   3.939   6.132  11.676  0.4606  0.0219 -0.2100
14425TIP3    H264767   3.848   6.239  11.732  0.7002  0.1910 -0.1420
14426TIP3   OH264768   4.241   6.270   5.341 -0.2750  0.1038  0.2439
14426TIP3    H164769   4.294   6.224   5.406  0.2027  0.4794  0.1281
14426TIP3    H264770   4.220   6.203   5.275 -0.9349 -0.3266  0.8834
14427TIP3   OH264771   4.934   0.588  16.390  0.3021 -0.3893  0.5261
14427TIP3    H164772   4.911   0.543  16.309 -1.1976 -2.3054  1.9128
14427TIP3    H264773   4.863   0.651  16.404  1.6279  1.4576 -0.6391
14428TIP3   OH264774   4.493   5.795   0.545  0.0477  0.0159  0.3755
14428TIP3    H164775   4.440   5.870   0.572 -1.2688 -1.0291  0.7748
14428TIP3    H264776   4.579   5.832   0.527 -0.3639  1.5033  1.3191
14429TIP3   OH264777   2.600   1.840   4.986  0.0274  0.1433  0.1811
14429TIP3    H164778   2.532   1.845   5.053 -0.0582 -1.7421  0.2969
14429TIP3    H264779   2.682   1.852   5.034 -0.1297  1.1824  0.2239
14430TIP3   OH264780   0.824   4.806  13.738 -0.2870 -0.3020 -0.7024
14430TIP3    H164781   0.743   4.756  13.730 -0.7696  0.2490  0.5403
14430TIP3    H264782   0.887   4.745  13.777 -0.2857 -0.5168 -1.0310
14431TIP3   OH264783   1.467   6.241  15.110 -0.3165  0.2033 -0.3942
14431TIP3    H164784   1.421   6.168  15.068 -1.3026  0.9118 -0.5958
14431TIP3    H264785   1.529   6.272  15.043  0.8514 -1.0837  0.0587
14432TIP3   OH264786   1.393   2.069   0.794  0.2918 -0.3181 -0.6920
14432TIP3    H164787   1.431   2.151   0.823 -0.6134  0.0379 -0.4670
14432TIP3    H264788   1.468   2.014   0.771  0.9184  0.4130 -0.4333
14433TIP3   OH264789   4.838   4.346   4.703 -0.0183 -0.0138  0.0390
14433TIP3    H164790   4.772   4.357   4.634 -2.1173 -1.3217  1.7018
14433TIP3    H264791   4.818   4.415   4.766  2.3097  1.6020 -0.8715
14434TIP3   OH264792   1.521   6.739  10.713  0.0179  0.2300 -0.3714
14434TIP3    H164793   1.481   6.671  10.659 -0.3032 -1.2857  1.6848
14434TIP3    H264794   1.484   6.726  10.800  2.2810  1.0638  0.7995
14435TIP3   OH264795   1.687   3.951   1.718 -0.4842 -0.1115  0.3750
14435TIP3    H164796   1.651   3.927   1.632 -0.6770 -0.6565  0.6026
14435TIP3    H264797   1.765   3.897   1.727  1.0020  1.7921 -0.5475
14436TIP3   OH264798   1.199   1.136   1.526  0.5401  0.0870  1.1053
14436TIP3    H164799   1.291   1.154   1.509  0.2791  0.3779 -0.0455
14436TIP3    H264800   1.198   1.104   1.617  1.7786 -0.0438  1.0948
14437TIP3   OH264801   2.731   3.097   1.976 -0.2034 -0.1363 -0.8128
14437TIP3    H164802   2.824   3.117   1.977 -0.2881  0.2804  0.4265
14437TIP3    H264803   2.713   3.069   1.886  1.2299 -0.7974 -0.9139
14438TIP3   OH264804   3.753   5.664   5.809  0.1350  0.0032  0.5925
14438TIP3    H164805   3.819   5.702   5.868  0.3863  1.0629 -0.3392
14438TIP3    H264806   3.680   5.726   5.813  0.2500  0.2036 -0.3839
14439TIP3   OH264807   3.306   1.811   3.357 -0.0318 -0.7091  0.0681
14439TIP3    H164808   3.274   1.825   3.268 -2.3282 -0.4568  0.8707
14439TIP3    H264809   3.304   1.898   3.398  0.7814 -0.8592  0.4633
14440TIP3   OH264810   1.915   6.449   3.218 -0.5254 -0.2952  0.7266
14440TIP3    H164811   1.823   6.473   3.209 -0.7780 -1.5524 -0.4881
14440TIP3    H264812   1.914   6.354   3.226  0.6447 -0.2825  1.1358
14441TIP3   OH264813   2.114   1.541  16.209 -0.3183  0.5005 -0.0099
14441TIP3    H164814   2.035   1.490  16.230 -1.2502  1.7102 -0.5033
14441TIP3    H264815   2.157   1.491  16.140 -0.9407  0.1112 -0.1231
14442TIP3   OH264816   3.838   5.979   6.503  0.1099 -0.7723 -0.5296
14442TIP3    H164817   3.758   6.009   6.459 -0.9372 -0.5109  1.4718
14442TIP3    H264818   3.840   5.885   6.486 -2.3208 -1.3822  1.8209
14443TIP3   OH264819   0.216   0.503  12.584  0.3537  0.1295 -0.3726
14443TIP3    H164820   0.200   0.542  12.670  0.5778  0.2510 -0.3861
14443TIP3    H264821   0.223   0.409  12.602 -0.1936  0.0950 -0.3441
14444TIP3   OH264822   0.301   5.205   3.272 -0.0189 -0.2003  0.5770
14444TIP3    H164823   0.384   5.174   3.235  0.4161  0.5003  0.9533
14444TIP3    H264824   0.244   5.128   3.271  0.3895 -0.5052 -0.3780
14445TIP3   OH264825   2.560   6.409   1.916  0.0696  0.1287  0.2775
14445TIP3    H164826   2.610   6.488   1.895 -0.5722  0.3127 -0.6225
14445TIP3    H264827   2.517   6.385   1.834 -2.8153  1.0367  1.3897
14446TIP3   OH264828   3.250   5.478  12.016  0.2844  0.1297 -0.0286
14446TIP3    H164829   3.284   5.417  11.951  1.8409 -0.2498  1.0848
14446TIP3    H264830   3.272   5.438  12.101 -1.4156  0.7469  0.7480
14447TIP3   OH264831   6.736   5.074  12.713 -0.4968  0.7127 -0.3594
14447TIP3    H164832   6.698   5.162  12.708 -0.7617  0.7350  1.3638
14447TIP3    H264833   6.728   5.050  12.806  1.2106 -0.4089 -0.4636
14448TIP3   OH264834   3.611   5.700  15.558 -0.1227 -0.2273 -0.2091
14448TIP3    H164835   3.615   5.646  15.479  0.4315 -0.2403 -0.1750
14448TIP3    H264836   3.518   5.718  15.570 -0.1028  1.2448 -1.8650
14449TIP3   OH264837   2.148   5.151   4.738 -0.4082 -0.2608 -0.1317
14449TIP3    H164838   2.181   5.241   4.750  1.1009 -0.7352 -0.5280
14449TIP3    H264839   2.092   5.136   4.815  0.2746  0.6053  0.5563
14450TIP3   OH264840   0.050   1.482   6.183  0.2669  0.1306  0.7339
14450TIP3    H164841   0.041   1.391   6.212  0.6965  0.6494  2.6017
14450TIP3    H264842   0.054   1.533   6.264  2.1822  1.6184 -0.2291
14451TIP3   OH264843   6.649   0.689   0.454 -0.0208 -0.1989 -0.5797
14451TIP3    H164844   6.732   0.671   0.498  0.7181  0.7389 -1.5461
14451TIP3    H264845   6.597   0.735   0.519 -0.4919 -2.3278  0.6356
14452TIP3   OH264846   0.169   6.754  11.649  0.3499  0.2586  0.4127
14452TIP3    H164847   0.175   6.753  11.744  1.4370  0.1059  0.3505
14452TIP3    H264848   0.098   6.816  11.630 -0.0948  0.0436  1.3211
14453TIP3   OH264849   5.440   2.448  15.996  0.0839  0.6818 -0.7693
14453TIP3    H164850   5.418   2.395  16.072  0.2591  2.1604  0.3737
14453TIP3    H264851   5.521   2.409  15.962 -0.3166 -0.3560 -0.5578
14454TIP3   OH264852   5.266   6.559   0.155 -0.2423 -0.3133 -0.8629
14454TIP3    H164853   5.341   6.595   0.107 -0.8702 -0.9261 -2.3671
14454TIP3    H264854   5.274   6.464   0.143  0.9936 -0.7609  2.4326
14455TIP3   OH264855   4.844   3.788  12.829 -0.1353 -0.0098 -0.3697
14455TIP3    H164856   4.919   3.729  12.830 -0.3270 -0.2538  0.3927
14455TIP3    H264857   4.852   3.835  12.746  1.8414  1.2035  0.4064
14456TIP3   OH264858   5.446   3.268   0.581  0.7637  0.1836  0.4878
14456TIP3    H164859   5.533   3.295   0.552  1.6566  0.1217  2.8742
14456TIP3    H264860   5.435   3.309   0.667 -2.2328  1.4330 -0.3671
14457TIP3   OH264861   2.152   6.145   2.154  0.8217  0.0899  0.3581
14457TIP3    H164862   2.212   6.083   2.113  2.4794 -0.0276  2.7381
14457TIP3    H264863   2.131   6.105   2.238 -1.9842  0.5479 -0.0481
14458TIP3   OH264864   6.081   3.330  11.348  0.2855  0.0122 -0.3560
14458TIP3    H164865   6.170   3.294  11.357  0.1045 -0.2784  0.3012
14458TIP3    H264866   6.052   3.346  11.438  0.0009  0.9379 -0.5983
14459TIP3   OH264867   0.495   4.033   0.565  0.4443 -0.5426 -0.2435
14459TIP3    H164868   0.550   4.094   0.516  1.1216 -0.3870  0.6841
14459TIP3    H264869   0.409   4.039   0.523  0.5392  0.9105 -0.3010
14460TIP3   OH264870   3.445   6.036  11.092  0.4055 -0.2750 -0.3720
14460TIP3    H164871   3.478   5.994  11.171 -0.2350 -1.8611 -0.9120
14460TIP3    H264872   3.514   6.022  11.027  0.5028  0.1612 -0.3656
14461TIP3   OH264873   3.956   6.019   5.312 -0.1447 -0.6057 -0.2803
14461TIP3    H164874   3.980   6.035   5.404  0.5193  1.4328 -0.7420
14461TIP3    H264875   3.981   5.928   5.296  0.4542 -0.7658  1.3394
14462TIP3   OH264876   3.447   6.805  10.706 -0.0655  0.0053  0.4532
14462TIP3    H164877   3.507   6.802  10.631  2.2480 -0.8255  2.2192
14462TIP3    H264878   3.363   6.832  10.669  0.8927 -0.7186 -2.4628
14463TIP3   OH264879   2.225   1.482   2.230  0.2982  0.1743 -0.5641
14463TIP3    H164880   2.235   1.555   2.291 -4.1367  0.1906  0.4615
14463TIP3    H264881   2.232   1.522   2.143  0.0819  1.4033 -0.0314
14464TIP3   OH264882   2.195   3.563  11.156 -0.1872  0.0846 -0.3922
14464TIP3    H164883   2.269   3.521  11.199 -1.0533 -1.1229 -0.0181
14464TIP3    H264884   2.152   3.614  11.225  0.2797  0.7751 -0.6060
14465TIP3   OH264885   2.328   0.097  16.209 -0.4573  0.3398 -0.6920
14465TIP3    H164886   2.390   0.143  16.151  0.0771  0.4683 -0.0300
14465TIP3    H264887   2.359   0.007  16.209 -0.3231  0.3841 -0.4412
14466TIP3   OH264888   5.097   5.891  12.888  0.2256 -0.1987  0.4878
14466TIP3    H164889   5.038   5.853  12.823  1.2271  0.1946 -0.7029
14466TIP3    H264890   5.040   5.919  12.959 -0.9730 -0.2044 -0.4333
14467TIP3   OH264891   3.781   5.798   2.638 -0.2849 -0.2414  0.7029
14467TIP3    H164892   3.874   5.778   2.628 -0.2567 -0.0939  0.6679
14467TIP3    H264893   3.744   5.720   2.679 -0.1548 -0.3193  0.6729
14468TIP3   OH264894   3.415   6.460   2.554 -0.0602 -0.0869  0.2033
14468TIP3    H164895   3.461   6.542   2.571  1.1819 -0.7197  0.0148
14468TIP3    H264896   3.484   6.398   2.531 -1.0792 -0.8804 -0.8833
14469TIP3   OH264897   5.299   1.324   5.073 -0.6110  0.0401  0.0362
14469TIP3    H164898   5.349   1.245   5.052 -1.1517 -0.3583  0.2356
14469TIP3    H264899   5.366   1.389   5.095 -0.0351  0.2501 -2.0473
14470TIP3   OH264900   0.987   4.875  14.857  0.6464 -0.1126  0.0037
14470TIP3    H164901   0.917   4.811  14.844  1.8561 -1.2039 -1.4150
14470TIP3    H264902   0.946   4.946  14.907 -1.7674 -0.2301 -1.6518
14471TIP3   OH264903   3.620   3.526  16.277  0.4126  0.0157 -0.0862
14471TIP3    H164904   3.623   3.450  16.218  2.7828 -0.5022  0.5762
14471TIP3    H264905   3.670   3.594  16.231  0.3762  0.3468  0.3571
14472TIP3   OH264906   0.615   3.717  12.368  0.1866 -0.5263 -1.1253
14472TIP3    H164907   0.565   3.773  12.427  1.1335  0.3633 -1.1383
14472TIP3    H264908   0.549   3.665  12.323 -0.5884 -1.1471  0.6075
14473TIP3   OH264909   6.201   2.713  14.236  0.3046  0.6515  0.5979
14473TIP3    H164910   6.182   2.797  14.195 -1.3059  0.3860  0.7615
14473TIP3    H264911   6.167   2.648  14.174 -2.9939  0.2411  2.6179
14474TIP3   OH264912   3.118   4.395  16.859 -0.3694  0.7042 -0.3720
14474TIP3    H164913   3.105   4.301  16.843 -1.1505  0.6985  0.2093
14474TIP3    H264914   3.060   4.438  16.797  0.0712  0.8161 -0.7140
14475TIP3   OH264915   2.528   2.215   2.917 -0.1003 -0.6102  0.2454
14475TIP3    H164916   2.490   2.282   2.860 -0.8138  0.0904  1.4949
14475TIP3    H264917   2.612   2.194   2.875  0.9563  2.2838  0.6107
14476TIP3   OH264918   0.083   0.361   4.575 -0.2461 -0.3840  0.6880
14476TIP3    H164919   0.023   0.289   4.557  0.7062 -1.4691  1.7059
14476TIP3    H264920   0.079   0.416   4.497  0.0484 -2.2846 -0.7249
14477TIP3   OH264921   3.447   3.431  14.820 -0.4599  0.0951  0.0104
14477TIP3    H164922   3.423   3.496  14.886 -0.1762  0.2603 -0.0508
14477TIP3    H264923   3.537   3.451  14.798 -0.2083 -0.6109  0.3434
14478TIP3   OH264924   0.651   1.596   4.230  0.1892  0.4274 -0.0860
14478TIP3    H164925   0.609   1.681   4.219  0.8883  0.7903 -0.0639
14478TIP3    H264926   0.743   1.612   4.207  0.6495  0.0356  1.3582
14479TIP3   OH264927   5.442   1.779   2.593 -0.4571  0.1150 -0.2385
14479TIP3    H164928   5.509   1.730   2.546 -1.5653 -0.0585 -1.7153
14479TIP3    H264929   5.484   1.806   2.674  1.4017  0.0366 -1.1258
14480TIP3   OH264930   3.019   0.303  11.378  0.3776  0.4247  0.0336
14480TIP3    H164931   3.097   0.255  11.351  0.3215  0.4829 -0.2332
14480TIP3    H264932   3.038   0.332  11.467 -0.3723 -1.8319  1.0037
14481TIP3   OH264933   3.960   4.933  12.025  0.2106  0.7901 -0.2064
14481TIP3    H164934   3.921   5.021  12.020  1.6447  1.5464  1.0327
14481TIP3    H264935   4.020   4.929  11.952 -1.2522  0.0654 -1.4205
14482TIP3   OH264936   1.013   1.385   4.989 -0.0843  0.4261 -0.2685
14482TIP3    H164937   1.034   1.367   4.897 -0.5639  0.3097 -0.3554
14482TIP3    H264938   0.959   1.464   4.987 -0.5854  0.0890 -0.1346
14483TIP3   OH264939   6.548   0.489   5.318 -0.2139  0.1517  0.1892
14483TIP3    H164940   6.588   0.424   5.260  0.7188 -0.2810  1.2690
14483TIP3    H264941   6.617   0.552   5.335 -1.5820  2.5128 -2.2354
14484TIP3   OH264942   2.953   6.519  14.026 -0.2989 -0.4856  0.4940
14484TIP3    H164943   3.000   6.452  14.077 -2.5147 -1.3628  1.5068
14484TIP3    H264944   3.004   6.528  13.946  0.8649 -2.3346  0.9689
14485TIP3   OH264945   6.714   0.435  16.842 -0.0130 -0.1731 -0.0098
14485TIP3    H164946   6.778   0.365  16.854  1.1360  0.6077 -1.2901
14485TIP3    H264947   6.759   0.515  16.871 -0.4820  0.3495 -0.6827
14486TIP3   OH264948   4.350   1.541   1.093 -0.6912  0.4412 -0.2747
14486TIP3    H164949   4.356   1.446   1.080 -1.5642  0.1374  1.2642
14486TIP3    H264950   4.423   1.562   1.150 -1.1886  0.4743  0.3650
14487TIP3   OH264951   3.204   3.750  11.572 -0.5732  0.0171 -0.5006
14487TIP3    H164952   3.241   3.811  11.509  2.1305  1.1976  2.0060
14487TIP3    H264953   3.160   3.805  11.637 -2.2347 -1.0809 -0.6149
14488TIP3   OH264954   1.287   3.047   4.822 -0.2650 -0.3969  0.3016
14488TIP3    H164955   1.283   3.135   4.784  0.2056 -0.7837 -0.6620
14488TIP3    H264956   1.355   3.002   4.772  2.2665 -0.1607  3.2004
14489TIP3   OH264957   5.537   3.983  14.513 -0.3910  0.1030  0.2165
14489TIP3    H164958   5.601   3.921  14.479  0.2092  0.2697  1.0247
14489TIP3    H264959   5.517   4.039  14.438 -2.8503 -2.5288 -1.2855
14490TIP3   OH264960   0.821   0.887  14.658  0.0862 -0.2073 -1.0253
14490TIP3    H164961   0.868   0.934  14.727 -2.3590 -2.5760  2.6417
14490TIP3    H264962   0.854   0.797  14.663 -1.6579 -0.9126 -1.3762
14491TIP3   OH264963   3.080   3.192  16.449 -0.2177  0.0246 -0.0549
14491TIP3    H164964   3.166   3.216  16.482 -0.4470  0.4431  0.2473
14491TIP3    H264965   3.096   3.114  16.396  0.1392 -0.7368  1.1332
14492TIP3   OH264966   2.190   1.843   6.210 -0.1302  0.0111 -0.3372
14492TIP3    H164967   2.157   1.915   6.264 -0.0548  0.0544 -0.3487
14492TIP3    H264968   2.185   1.766   6.267  0.5477  0.1725 -0.0544
14493TIP3   OH264969   2.241   0.843  15.970 -0.0233  0.5429  0.2210
14493TIP3    H164970   2.296   0.914  16.005 -0.5352 -0.2717  2.8975
14493TIP3    H264971   2.288   0.763  15.991 -1.1445 -0.0574  0.5528
14494TIP3   OH264972   3.604   5.404  15.593  0.3608  1.3469 -0.4241
14494TIP3    H164973   3.602   5.442  15.505 -0.4892  0.6503 -0.7219
14494TIP3    H264974   3.688   5.359  15.598 -0.4698 -0.4724 -1.7162
14495TIP3   OH264975   5.947   1.891  15.581  0.0774 -0.0219 -0.4194
14495TIP3    H164976   6.028   1.881  15.531  1.4705 -0.2409  1.7260
14495TIP3    H264977   5.918   1.801  15.597  0.0774  0.0201 -0.1794
14496TIP3   OH264978   0.504   4.710  12.298  0.2597  0.4552  0.6766
14496TIP3    H164979   0.554   4.763  12.361 -0.8016  1.0269  1.0658
14496TIP3    H264980   0.488   4.769  12.224 -1.7143  1.0507  1.4985
14497TIP3   OH264981   5.295   6.793  12.900  0.0190 -0.3077 -0.2848
14497TIP3    H164982   5.333   6.712  12.934  0.7255  0.4771  0.8611
14497TIP3    H264983   5.236   6.822  12.969 -0.4407  0.0366 -0.8092
14498TIP3   OH264984   1.351   1.344  15.507  0.1763  0.1016  0.1585
14498TIP3    H164985   1.420   1.395  15.550 -0.5362  1.0790  0.1808
14498TIP3    H264986   1.317   1.287  15.577 -0.1559  0.8113  0.5865
14499TIP3   OH264987   4.418   0.302   5.061  0.4070  0.4522 -0.6465
14499TIP3    H164988   4.425   0.275   5.153 -0.1776  0.9612 -0.4372
14499TIP3    H264989   4.508   0.307   5.030  0.8081  2.6570  0.6291
14500TIP3   OH264990   2.584   2.109  16.391 -0.2242  0.5065  0.5564
14500TIP3    H164991   2.590   2.075  16.302  0.1586  2.3856 -0.1955
14500TIP3    H264992   2.507   2.066  16.428 -0.9245  0.3227 -1.0023
14501TIP3   OH264993   0.649   2.447  11.544 -0.1542 -0.3488  0.3135
14501TIP3    H164994   0.669   2.457  11.451 -0.7190 -1.4967  0.0532
14501TIP3    H264995   0.726   2.483  11.589 -0.2073  0.9295 -0.5735
14502TIP3   OH264996   4.927   6.504  16.231 -0.0025 -0.3265 -0.1698
14502TIP3    H164997   4.977   6.524  16.310 -0.6018  0.4771  0.0227
14502TIP3    H264998   4.991   6.466  16.171  1.0035  1.2824 -0.1783
14503TIP3   OH264999   4.370   4.838  16.653 -0.5161 -0.2071  0.0466
14503TIP3    H165000   4.304   4.906  16.667  0.9816  1.1378  1.0122
14503TIP3    H265001   4.444   4.884  16.614 -0.4852 -1.8837 -2.0767
14504TIP3   OH265002   3.814   4.091  12.231 -0.5300 -0.0821  0.3133
14504TIP3    H165003   3.908   4.101  12.217 -0.3555 -1.5714  0.3104
14504TIP3    H265004   3.807   4.025  12.300 -1.5668  0.4825  0.7707
14505TIP3   OH265005   4.871   4.143   4.392 -0.4415  0.2859  0.1961
14505TIP3    H165006   4.865   4.136   4.487 -1.2463 -1.2352  0.0659
14505TIP3    H265007   4.789   4.184   4.365 -0.1540  0.8443  0.1686
14506TIP3   OH265008   2.326   1.342  12.294  0.0127  0.4053 -0.2044
14506TIP3    H165009   2.255   1.319  12.354 -0.9769  2.3982 -0.5502
14506TIP3    H265010   2.291   1.325  12.207  0.6849 -0.4325 -0.3293
14507TIP3   OH265011   5.470   2.720   1.718  0.6607  0.0415 -0.0654
14507TIP3    H165012   5.404   2.743   1.653 -0.0022 -1.4620  0.0354
14507TIP3    H265013   5.423   2.722   1.802  0.6825 -1.1377 -0.0053
14508TIP3   OH265014   1.489   1.591   2.465 -0.3822  0.0808  0.2094
14508TIP3    H165015   1.538   1.586   2.383  0.2290  1.2541  0.4815
14508TIP3    H265016   1.556   1.602   2.532 -0.9396  0.2748  0.7415
14509TIP3   OH265017   4.438   1.229   4.739 -0.1918 -0.2823  0.2120
14509TIP3    H165018   4.476   1.285   4.806  0.2398 -0.1430 -0.1421
14509TIP3    H265019   4.376   1.173   4.786  1.0744 -1.1185  0.9575
14510TIP3   OH265020   3.245   3.380  15.262  0.4043 -0.4012  0.0151
14510TIP3    H165021   3.314   3.408  15.202  1.0982 -0.2044  0.8834
14510TIP3    H265022   3.272   3.416  15.347 -1.3071  0.5932  0.1832
14511TIP3   OH265023   3.017   4.522   0.661 -0.3051 -0.4018 -0.5479
14511TIP3    H165024   3.077   4.521   0.736  2.4079  0.6816 -2.5076
14511TIP3    H265025   2.944   4.467   0.688 -0.3758  1.2627  3.5177
14512TIP3   OH265026   0.765   5.871  16.974 -0.1811  0.1911 -0.4511
14512TIP3    H165027   0.697   5.912  17.028  1.4937  0.5295  1.5319
14512TIP3    H265028   0.754   5.912  16.888 -0.0255  3.2730  0.8424
14513TIP3   OH265029   2.593   4.059   1.687  0.5420 -0.0507  0.2698
14513TIP3    H165030   2.631   3.987   1.738  0.2924  0.4154  1.1307
14513TIP3    H265031   2.630   4.048   1.599 -3.5411 -4.5328 -1.3548
14514TIP3   OH265032   0.311   0.520  12.099  0.0661 -0.3388 -0.0139
14514TIP3    H165033   0.249   0.448  12.089  0.7289 -0.9220 -0.0377
14514TIP3    H265034   0.369   0.491  12.170  0.1479  0.3134  0.1857
14515TIP3   OH265035   5.746   1.471   3.420  0.1398  0.1911  0.6881
14515TIP3    H165036   5.731   1.389   3.466  0.6084  0.4297  1.2837
14515TIP3    H265037   5.775   1.445   3.333  0.6477 -0.2901  0.9919
14516TIP3   OH265038   2.489   4.125   0.771  1.0303 -0.3045 -0.0256
14516TIP3    H165039   2.564   4.084   0.727  0.4360 -2.3619  0.7486
14516TIP3    H265040   2.512   4.218   0.777  2.3215 -0.4327 -2.1664
14517TIP3   OH265041   6.203   1.716   5.381 -0.0985  0.1967  0.2462
14517TIP3    H165042   6.141   1.754   5.318 -1.2683 -1.4358  0.3416
14517TIP3    H265043   6.166   1.736   5.466  0.8947  1.4378  0.4007
14518TIP3   OH265044   5.082   1.614   1.842 -0.2424  0.0713  0.1034
14518TIP3    H165045   5.020   1.543   1.856 -0.4924  0.0605 -0.9384
14518TIP3    H265046   5.028   1.686   1.809  0.4807 -0.5128 -2.6103
14519TIP3   OH265047   1.963   5.247  14.856  0.7624  0.3498  0.7995
14519TIP3    H165048   2.058   5.238  14.850  0.8631  0.9915  1.3493
14519TIP3    H265049   1.931   5.157  14.863  1.3074  0.1153  0.3859
14520TIP3   OH265050   3.815   5.915   1.928  0.2799 -0.4090  0.2398
14520TIP3    H165051   3.869   5.987   1.960 -0.1857  0.6061 -1.1414
14520TIP3    H265052   3.727   5.934   1.963 -0.2186  0.6756 -1.4671
14521TIP3   OH265053   4.102   5.908   6.571 -0.2931 -0.3381  0.1794
14521TIP3    H165054   4.012   5.939   6.580 -0.3658 -0.5600  0.2105
14521TIP3    H265055   4.126   5.931   6.481 -0.1097  0.4318  0.4187
14522TIP3   OH265056   6.053   0.361  11.705  0.0407  0.0430  0.5181
14522TIP3    H165057   6.085   0.276  11.674 -1.7884 -0.5051 -0.0015
14522TIP3    H265058   6.116   0.424  11.670  0.2905 -0.9155 -0.8742
14523TIP3   OH265059   2.071   4.629   4.663  0.5981  0.3925  0.0282
14523TIP3    H165060   2.043   4.716   4.692  0.1978 -0.1469  1.3469
14523TIP3    H265061   2.064   4.575   4.742 -1.3937 -1.3845 -1.2831
14524TIP3   OH265062   1.426   5.761   0.972  0.2506  0.3540  0.0207
14524TIP3    H165063   1.400   5.853   0.971 -0.2150  0.2414  0.7867
14524TIP3    H265064   1.393   5.725   0.890  1.0278  1.0245 -0.5933
14525TIP3   OH265065   4.185   1.478  11.735  0.8132 -0.5880  0.4488
14525TIP3    H165066   4.152   1.390  11.752 -0.7532 -0.1408 -0.0853
14525TIP3    H265067   4.127   1.513  11.667  3.0263 -0.1044 -1.3465
14526TIP3   OH265068   6.255   6.221   5.578 -0.1121 -0.0734 -0.0103
14526TIP3    H165069   6.289   6.273   5.650 -0.4374 -1.0881  0.8980
14526TIP3    H265070   6.190   6.277   5.536 -1.8993 -0.3917  2.1492
14527TIP3   OH265071   4.385   6.570   1.468  0.5840 -0.8082  0.4444
14527TIP3    H165072   4.379   6.662   1.493 -1.0302 -0.3170 -1.4816
14527TIP3    H265073   4.466   6.564   1.418 -1.1737  0.6173 -2.9088
14528TIP3   OH265074   5.156   2.933  15.114  0.1749 -0.4277 -0.1705
14528TIP3    H165075   5.166   3.006  15.175  2.0902  0.3242 -1.2981
14528TIP3    H265076   5.241   2.890  15.112 -0.1287 -1.0472 -1.5367
14529TIP3   OH265077   0.689   3.687  13.067  0.0633 -0.0454  0.1280
14529TIP3    H165078   0.707   3.769  13.021 -2.3959  0.4962  0.0233
14529TIP3    H265079   0.616   3.648  13.019 -0.1863 -1.2510  1.4398
14530TIP3   OH265080   1.830   6.790   5.904  0.7191 -0.0380  0.3518
14530TIP3    H165081   1.757   6.728   5.907  0.4159  0.2850 -0.3521
14530TIP3    H265082   1.888   6.755   5.837  0.4164  0.5836 -0.2376
14531TIP3   OH265083   1.801   6.552   1.228 -0.3910  0.6333 -0.6365
14531TIP3    H165084   1.835   6.487   1.165 -0.1868 -0.7313  0.8270
14531TIP3    H265085   1.727   6.592   1.183 -0.2068 -0.2599 -1.7869
14532TIP3   OH265086   2.772   2.074  12.263  0.1654  0.5612  0.3017
14532TIP3    H165087   2.686   2.039  12.284  0.3740 -0.3275 -0.2983
14532TIP3    H265088   2.833   2.007  12.292  0.5593  0.2861 -1.0992
14533TIP3   OH265089   0.064   4.113  14.898 -0.0472  0.9047 -0.3834
14533TIP3    H165090   0.115   4.100  14.817 -2.0898 -1.1527 -1.4528
14533TIP3    H265091   0.116   4.068  14.965 -0.6311 -1.7768 -1.5836
14534TIP3   OH265092   4.671   2.941   5.135 -0.6420  0.5986  0.3779
14534TIP3    H165093   4.582   2.920   5.105 -0.0880 -2.3587  0.4936
14534TIP3    H265094   4.661   2.956   5.229 -1.2080  1.8372  0.1426
14535TIP3   OH265095   5.780   1.994   1.984  0.1781 -0.2943 -0.8497
14535TIP3    H165096   5.817   1.952   1.906 -0.4612 -0.8587 -0.8637
14535TIP3    H265097   5.753   2.080   1.954 -0.5305 -0.6957 -1.3919
14536TIP3   OH265098   0.242   4.214   6.040  0.4420 -0.1304 -0.4711
14536TIP3    H165099   0.259   4.305   6.061 -0.2457 -0.5433  2.1484
14536TIP3    H265100   0.161   4.216   5.989  0.7475  0.7257 -0.9545
14537TIP3   OH265101   1.802   0.782  15.814  0.4201  0.2220 -0.0909
14537TIP3    H165102   1.823   0.781  15.721  0.5760 -1.3057 -0.0610
14537TIP3    H265103   1.789   0.690  15.837 -0.2019  0.6203  1.2700
14538TIP3   OH265104   2.125   1.608   0.890 -0.0723 -0.0659  0.3675
14538TIP3    H165105   2.078   1.538   0.843  2.2068 -0.9117 -0.8134
14538TIP3    H265106   2.137   1.574   0.978 -2.1544  0.4395  0.8962
14539TIP3   OH265107   0.558   4.794  16.072 -0.4076 -0.0657  0.2734
14539TIP3    H165108   0.527   4.718  16.023 -1.0977 -0.7695  1.7414
14539TIP3    H265109   0.645   4.769  16.102  0.0473  0.3959 -0.5919
14540TIP3   OH265110   6.078   0.616  14.883  0.1041  0.4088 -0.1566
14540TIP3    H165111   6.082   0.533  14.931  0.1922  0.6285  0.2249
14540TIP3    H265112   6.062   0.590  14.792  3.5432 -0.2228 -0.7016
14541TIP3   OH265113   5.555   4.642   5.992 -0.6884  0.4501  0.0455
14541TIP3    H165114   5.610   4.668   6.066 -0.6604 -1.6467  0.8296
14541TIP3    H265115   5.616   4.637   5.918 -0.4779  1.3450  0.1466
14542TIP3   OH265116   5.903   2.611  11.606  0.1659  0.6873  0.4432
14542TIP3    H165117   5.833   2.547  11.618  0.0671  0.2856 -1.8099
14542TIP3    H265118   5.895   2.671  11.681 -2.0607  0.1818  0.6667
14543TIP3   OH265119   3.548   5.178  12.100 -0.1487  0.4461  0.2784
14543TIP3    H165120   3.572   5.150  12.188  0.1233 -1.0311 -0.2401
14543TIP3    H265121   3.482   5.114  12.071 -0.5802  1.1822 -0.4132
14544TIP3   OH265122   5.376   2.446   7.048  0.2907  0.1220 -0.2197
14544TIP3    H165123   5.380   2.539   7.028 -1.0879 -0.0047 -1.2755
14544TIP3    H265124   5.465   2.414   7.037  1.4127  1.7777  2.8464
14545TIP3   OH265125   0.576   5.239  11.498 -0.8141 -0.6717 -0.3974
14545TIP3    H165126   0.627   5.286  11.433 -1.5326 -0.6675 -0.9811
14545TIP3    H265127   0.633   5.168  11.527  0.6202  1.0029  1.1241
14546TIP3   OH265128   0.794   3.026   1.296 -0.0282  0.1260  0.2529
14546TIP3    H165129   0.763   3.074   1.374  0.9048  3.2723 -1.1658
14546TIP3    H265130   0.865   3.079   1.262  0.6955 -2.0451 -1.8839
14547TIP3   OH265131   6.795   5.452  11.976  0.4193 -0.2492  0.2163
14547TIP3    H165132   6.834   5.477  11.892  0.2293 -2.8987 -0.7792
14547TIP3    H265133   6.807   5.357  11.980 -1.6142 -0.5092  2.1456
14548TIP3   OH265134   1.132   4.571  13.096 -0.8643 -0.0660  0.4849
14548TIP3    H165135   1.186   4.609  13.026 -2.5432 -0.4906 -1.1166
14548TIP3    H265136   1.102   4.647  13.146 -0.2715  0.3061  0.2952
14549TIP3   OH265137   2.194   1.355   5.963 -0.1817 -0.2737 -0.2733
14549TIP3    H165138   2.192   1.401   6.047 -0.8678  1.4319 -1.1812
14549TIP3    H265139   2.285   1.365   5.933 -0.6019  1.6603 -1.0366
14550TIP3   OH265140   1.753   2.786  15.459  0.0793  0.3019 -0.3449
14550TIP3    H165141   1.797   2.703  15.438 -0.3702 -0.3077  1.0470
14550TIP3    H265142   1.680   2.790  15.398  0.4742 -0.0061 -0.8513
14551TIP3   OH265143   3.948   2.414  13.847  0.1428 -0.5176  0.0232
14551TIP3    H165144   3.978   2.355  13.916  2.1073 -1.8724 -1.8371
14551TIP3    H265145   3.910   2.356  13.781  2.2469  0.1511 -1.9277
14552TIP3   OH265146   6.231   4.924   1.692 -0.4985  1.3214 -0.7645
14552TIP3    H165147   6.195   4.936   1.780 -0.4374  0.0412 -0.5387
14552TIP3    H265148   6.318   4.886   1.707 -0.9889 -0.1198 -1.3719
14553TIP3   OH265149   1.961   4.101   3.401  0.6643 -0.1666 -0.1384
14553TIP3    H165150   1.944   4.007   3.409  0.6499 -0.0327  1.9762
14553TIP3    H265151   1.889   4.142   3.447  1.7839  0.7790  0.8374
14554TIP3   OH265152   5.791   6.417  13.954  0.2289 -0.0210  0.4335
14554TIP3    H165153   5.852   6.483  13.923 -0.5984  0.1576 -0.9377
14554TIP3    H265154   5.770   6.366  13.875 -0.7487 -0.5740  1.0313
14555TIP3   OH265155   2.402   6.051  12.783  0.3313  0.7843  0.6367
14555TIP3    H165156   2.451   6.068  12.864  2.1869  1.0562 -0.4885
14555TIP3    H265157   2.377   6.138  12.753  0.0167  0.7129  0.6950
14556TIP3   OH265158   5.960   4.742   0.959 -0.0047  0.5023 -0.1786
14556TIP3    H165159   5.943   4.649   0.968  1.6112  0.2371  0.4212
14556TIP3    H265160   5.915   4.782   1.033 -0.7265  0.2245 -0.4554
14557TIP3   OH265161   5.258   4.872   2.558 -0.1152  0.0440 -0.2921
14557TIP3    H165162   5.174   4.893   2.517  0.4264  0.3003 -1.3039
14557TIP3    H265163   5.308   4.954   2.554 -0.0163  0.0549  0.8265
14558TIP3   OH265164   5.257   2.284  13.151 -0.0427  0.1731  0.0577
14558TIP3    H165165   5.295   2.275  13.238 -0.8802 -0.8975  0.3361
14558TIP3    H265166   5.227   2.196  13.129  1.0372  0.2015 -1.7369
14559TIP3   OH265167   5.917   4.709  12.347 -0.1076 -0.0404 -0.1183
14559TIP3    H165168   5.914   4.734  12.440  0.1420 -0.8686  0.1141
14559TIP3    H265169   5.889   4.788  12.301 -0.4036  0.3282  0.6697
14560TIP3   OH265170   4.904   0.475  15.245 -0.2405 -0.0713 -0.3539
14560TIP3    H165171   4.924   0.382  15.239  0.1820 -0.1497  1.5977
14560TIP3    H265172   4.826   0.487  15.191 -2.2946 -2.2167  1.9053
14561TIP3   OH265173   0.359   6.446   4.518  0.3698 -0.2513  0.1492
14561TIP3    H165174   0.443   6.469   4.558 -0.0703  0.9096  0.4308
14561TIP3    H265175   0.294   6.473   4.582 -0.3527  1.4524 -1.2187
14562TIP3   OH265176   0.787   2.552   3.993  0.1888  0.0814 -0.1485
14562TIP3    H165177   0.743   2.549   4.078  1.4986 -0.6838  0.5287
14562TIP3    H265178   0.850   2.623   4.000 -1.2766  1.5641 -1.3210
14563TIP3   OH265179   0.896   0.503  16.164 -0.4209  0.4301  0.5596
14563TIP3    H165180   0.852   0.582  16.132  1.3636  1.5395  0.7437
14563TIP3    H265181   0.898   0.445  16.089  0.7310  1.6856 -0.4167
14564TIP3   OH265182   1.965   2.188   3.568  0.2533 -0.3010  0.1214
14564TIP3    H165183   2.011   2.141   3.637  1.8381  1.0825  0.0858
14564TIP3    H265184   1.922   2.120   3.516  2.0062 -1.6776  0.3687
14565TIP3   OH265185   3.299   0.535  10.973 -0.1228  0.0245  0.1194
14565TIP3    H165186   3.331   0.623  10.994  0.4259 -0.1365 -0.0176
14565TIP3    H265187   3.377   0.480  10.977  0.3051  0.1533 -3.4317
14566TIP3   OH265188   1.629   4.915   2.798  0.2163 -0.0730 -0.0637
14566TIP3    H165189   1.549   4.867   2.820 -0.1809  0.5822 -0.0193
14566TIP3    H265190   1.655   4.957   2.880  0.0423  0.5070 -0.2968
14567TIP3   OH265191   0.359   1.544   5.170 -0.1897 -0.1328 -0.4360
14567TIP3    H165192   0.357   1.553   5.265 -0.6630  2.1919 -0.6015
14567TIP3    H265193   0.452   1.546   5.148 -0.0613 -1.0488 -0.0205
14568TIP3   OH265194   4.308   2.500   4.851 -0.0288  0.3708 -0.2090
14568TIP3    H165195   4.292   2.447   4.773 -1.4771  0.5340 -0.0470
14568TIP3    H265196   4.362   2.445   4.907 -0.9398 -0.6706 -0.3301
14569TIP3   OH265197   3.822   6.407  11.834 -0.2393  0.0632 -0.1642
14569TIP3    H165198   3.728   6.425  11.823  0.0252  0.9020 -1.2008
14569TIP3    H265199   3.847   6.457  11.911 -0.4687  0.5219 -0.3820
14570TIP3   OH265200   5.997   6.605  12.720  0.3199 -0.0781 -0.0739
14570TIP3    H165201   5.961   6.661  12.651 -0.5095  1.1354  1.2808
14570TIP3    H265202   6.092   6.612  12.709  0.2124 -0.5362 -1.5446
14571TIP3   OH265203   6.569   6.597   0.142 -0.4249 -0.3330  0.7277
14571TIP3    H165204   6.559   6.615   0.235 -0.8469  0.8635  0.4727
14571TIP3    H265205   6.585   6.683   0.103  1.7385 -1.0484 -0.0683
14572TIP3   OH265206   5.380   1.142   1.516 -0.5463  0.3215  0.3504
14572TIP3    H165207   5.359   1.166   1.606  3.6967 -0.2697  1.6883
14572TIP3    H265208   5.434   1.215   1.483 -0.6211 -0.2558 -1.1417
14573TIP3   OH265209   2.617   2.176   0.112 -0.1703  0.4885  0.2624
14573TIP3    H165210   2.657   2.131   0.038  2.0864  1.8077  0.6019
14573TIP3    H265211   2.577   2.105   0.164  1.7024 -0.9299 -0.1361
14574TIP3   OH265212   0.628   5.845  12.967  0.3701 -0.4994 -0.0619
14574TIP3    H165213   0.597   5.897  12.892  0.0487  0.1564  0.5108
14574TIP3    H265214   0.551   5.835  13.023 -0.3584 -4.1129 -1.4943
14575TIP3   OH265215   0.036   5.816  11.611  0.1338 -0.4069  0.1804
14575TIP3    H165216   0.083   5.860  11.681  0.2226  1.5928 -1.0626
14575TIP3    H265217  -0.056   5.829  11.631  0.0623  3.4505 -1.8349
14576TIP3   OH265218   0.239   0.338  11.307  0.5099 -0.1138  0.0383
14576TIP3    H165219   0.260   0.402  11.239 -1.3660  0.9348  0.3634
14576TIP3    H265220   0.302   0.268  11.295  0.8472  0.5033 -2.1443
14577TIP3   OH265221   0.664   5.224   4.794  0.2306  0.4055 -0.9650
14577TIP3    H165222   0.615   5.152   4.835 -1.7677  1.6707 -0.9951
14577TIP3    H265223   0.688   5.281   4.867 -1.3200  1.4884 -1.2668
14578TIP3   OH265224   2.059   4.295   3.234  0.7785 -0.3636 -0.5234
14578TIP3    H165225   2.017   4.237   3.297  1.5457 -2.1643 -1.5885
14578TIP3    H265226   2.121   4.238   3.187  1.4814  1.3023 -1.6985
14579TIP3   OH265227   6.786   6.289  15.653  0.0023 -0.1540  0.3590
14579TIP3    H165228   6.742   6.224  15.597  0.7403  0.2366 -0.7175
14579TIP3    H265229   6.867   6.309  15.606 -0.5223  2.0600  0.3128
14580TIP3   OH265230   4.919   6.819  10.749  0.2442 -0.4271  0.4688
14580TIP3    H165231   4.923   6.886  10.680  0.3141  0.1155  0.9999
14580TIP3    H265232   4.983   6.753  10.722  0.9253  0.2185  0.4735
14581TIP3   OH265233   5.923   3.317  17.022 -0.5106  0.0761  1.0111
14581TIP3    H165234   5.908   3.293  16.931  1.2087  2.7694 -0.1038
14581TIP3    H265235   5.939   3.234  17.067 -0.1772 -1.2332 -1.3868
14582TIP3   OH265236   2.390   2.256  11.559  0.0746  0.3239 -0.4953
14582TIP3    H165237   2.305   2.213  11.569 -0.5136  1.7121  0.7969
14582TIP3    H265238   2.369   2.346  11.533  1.0681  1.0221  0.9772
14583TIP3   OH265239   3.049   2.868   3.196 -0.4680  0.0129  0.0455
14583TIP3    H165240   2.953   2.869   3.202 -0.6178 -2.5074 -0.9599
14583TIP3    H265241   3.077   2.803   3.260  0.8107  2.0835  1.7565
14584TIP3   OH265242   1.202   5.120  17.026  0.1918 -0.4682 -0.4792
14584TIP3    H165243   1.231   5.177  17.097  0.4846 -0.3109 -0.7255
14584TIP3    H265244   1.163   5.045  17.070  0.6698 -0.5244 -0.1517
14585TIP3   OH265245   0.486   2.073   3.029 -0.1413 -0.1054  0.7614
14585TIP3    H165246   0.477   2.160   2.991  0.2210 -1.1004 -1.7892
14585TIP3    H265247   0.399   2.052   3.063  0.0270  1.6231  2.3872
14586TIP3   OH265248   1.632   1.343   0.309  0.3696  0.1473 -0.1946
14586TIP3    H165249   1.622   1.306   0.221 -1.7372  0.6991 -0.2420
14586TIP3    H265250   1.593   1.277   0.366 -1.7000  1.3553 -0.0976
14587TIP3   OH265251   4.130   3.851   0.786  0.3684 -0.0560 -0.7765
14587TIP3    H165252   4.156   3.867   0.695  2.2473  5.1793  0.3557
14587TIP3    H265253   4.100   3.936   0.818  0.3060 -1.5047  3.7066
14588TIP3   OH265254   2.230   4.709  13.057 -0.2510 -0.3060  0.0310
14588TIP3    H165255   2.174   4.774  13.013 -0.2863  0.4542  1.1654
14588TIP3    H265256   2.294   4.761  13.105  2.0277 -1.1613 -1.9179
14589TIP3   OH265257   6.705   0.366   0.638  0.5827  0.0837  0.2625
14589TIP3    H165258   6.787   0.414   0.655 -0.8504  2.4904  0.9635
14589TIP3    H265259   6.710   0.341   0.546  2.9276 -1.6456  0.7681
14590TIP3   OH265260   2.558   3.821  13.889  0.2349  0.0966  0.0793
14590TIP3    H165261   2.523   3.906  13.916 -0.2695 -0.7628  2.3430
14590TIP3    H265262   2.523   3.809  13.800  0.6705  2.3983 -0.4872
14591TIP3   OH265263   3.641   3.810  11.460  0.6038 -0.5575 -0.1252
14591TIP3    H165264   3.654   3.745  11.391 -1.9076  0.6430 -1.9305
14591TIP3    H265265   3.712   3.873  11.447  0.2907 -0.4530 -1.5626
14592TIP3   OH265266   2.944   1.847   4.800  0.0808 -0.6586 -0.2597
14592TIP3    H165267   2.896   1.923   4.766  0.4475 -0.3409 -0.0818
14592TIP3    H265268   2.875   1.786   4.828 -0.2532  0.2746  1.0685
14593TIP3   OH265269   3.703   3.976   1.904 -0.2524 -0.4333  0.1739
14593TIP3    H165270   3.744   4.033   1.840 -0.6901  1.0827  1.1881
14593TIP3    H265271   3.775   3.924   1.940  0.3033  0.0996 -0.1542
14594TIP3   OH265272   1.822   2.242   1.800 -0.4339 -0.0014 -0.1844
14594TIP3    H165273   1.781   2.170   1.848 -0.6602 -1.4920 -2.4596
14594TIP3    H265274   1.755   2.270   1.738  0.1827  1.1608 -0.3403
14595TIP3   OH265275   2.339   0.237  14.055 -0.2752  0.3544 -0.1704
14595TIP3    H165276   2.403   0.308  14.059 -1.1137  1.3132 -2.2537
14595TIP3    H265277   2.330   0.208  14.146  2.4642  0.7134  0.3161
14596TIP3   OH265278   6.662   6.570  14.819 -0.2192  0.3964  0.3211
14596TIP3    H165279   6.642   6.494  14.763  1.8162  1.0817 -1.4696
14596TIP3    H265280   6.736   6.542  14.873  0.5937  1.0961 -0.4026
14597TIP3   OH265281   5.409   2.898  12.023  0.1319 -0.7401  0.5007
14597TIP3    H165282   5.320   2.865  12.033 -0.2260 -0.2757 -0.9747
14597TIP3    H265283   5.403   2.963  11.953  1.5071 -0.2177  0.8401
14598TIP3   OH265284   4.163   6.225  14.123 -0.2125 -0.0641  0.6739
14598TIP3    H165285   4.079   6.197  14.159  0.8755 -3.0725  1.1834
14598TIP3    H265286   4.155   6.212  14.029 -0.2380 -0.6004  0.7492
14599TIP3   OH265287   6.615   5.129   2.056  0.0975  0.3574 -0.2455
14599TIP3    H165288   6.616   5.195   1.987 -0.7843  0.0036 -0.6147
14599TIP3    H265289   6.534   5.146   2.104 -0.1024 -0.3985 -0.3047
14600TIP3   OH265290   0.912   5.792  12.810 -0.3408  0.3467  1.0242
14600TIP3    H165291   0.901   5.699  12.825 -0.2035  0.4120  1.5526
14600TIP3    H265292   0.861   5.810  12.731  0.2058 -0.3000  0.5152
14601TIP3   OH265293   5.104   3.241  11.767 -0.3906 -0.5067  0.0063
14601TIP3    H165294   5.107   3.303  11.694  0.6199  0.8916  1.1728
14601TIP3    H265295   5.013   3.243  11.796 -0.3593  0.5253  0.0747
14602TIP3   OH265296   4.171   5.980   6.068  0.1149 -0.2736 -0.2674
14602TIP3    H165297   4.243   6.033   6.034  1.5321 -1.4874  0.7198
14602TIP3    H265298   4.172   5.901   6.014 -1.4993  0.3280 -1.2439
14603TIP3   OH265299   1.387   3.112   0.901 -0.4098  0.6042  0.5420
14603TIP3    H165300   1.396   3.161   0.983 -0.7267  1.4487  0.0840
14603TIP3    H265301   1.293   3.103   0.889 -0.5647  3.2585 -1.2841
14604TIP3   OH265302   3.428   6.710  15.453 -0.0350 -0.0218  0.5458
14604TIP3    H165303   3.468   6.793  15.478  1.9739 -0.9153  0.5585
14604TIP3    H265304   3.334   6.726  15.457  0.2915  2.3797  0.0257
14605TIP3   OH265305   6.784   1.775   5.383  0.1730 -0.0005  0.2067
14605TIP3    H165306   6.710   1.715   5.395  0.5721 -0.4778  0.3032
14605TIP3    H265307   6.847   1.727   5.330  0.6893  0.1652  0.6529
14606TIP3   OH265308   5.779   3.624   5.070  0.2540 -0.2702 -0.4911
14606TIP3    H165309   5.785   3.711   5.110  0.5273 -0.4782 -0.0844
14606TIP3    H265310   5.718   3.576   5.125 -0.2797 -0.1894 -0.9944
14607TIP3   OH265311   3.390   0.502   2.547 -0.2023  0.2325  0.1847
14607TIP3    H165312   3.335   0.459   2.481  0.5638 -0.9666  0.2966
14607TIP3    H265313   3.478   0.471   2.528  0.2782  1.2161  0.7350
14608TIP3   OH265314   3.019   6.360  11.519 -0.2099 -0.4997  0.0626
14608TIP3    H165315   2.974   6.333  11.598  0.6077 -1.2195  0.3048
14608TIP3    H265316   3.075   6.433  11.546 -0.8996  0.1082 -0.1429
14609TIP3   OH265317   2.703   4.401  16.268 -0.0145  0.0449 -0.1357
14609TIP3    H165318   2.734   4.492  16.272 -1.5323  0.6638 -1.4309
14609TIP3    H265319   2.657   4.388  16.350  1.9374 -0.2601  0.9623
14610TIP3   OH265320   3.670   3.032  16.293 -0.7741 -0.4412 -0.1801
14610TIP3    H165321   3.583   3.039  16.331 -1.3139  2.3617 -1.6964
14610TIP3    H265322   3.698   3.123  16.281  1.6894 -1.2650 -1.2490
14611TIP3   OH265323   1.945   3.355   4.647  0.6858  0.0396  0.2271
14611TIP3    H165324   1.861   3.401   4.646  1.0209  0.6544 -0.3477
14611TIP3    H265325   1.923   3.266   4.675 -0.2987 -0.0965 -0.9239
14612TIP3   OH265326   3.962   4.823   1.926 -0.1672  0.2538 -0.3007
14612TIP3    H165327   3.876   4.861   1.945  0.5858  2.6580 -1.3071
14612TIP3    H265328   3.963   4.812   1.831 -0.0815 -1.7513 -0.1056
14613TIP3   OH265329   5.254   4.083   3.942 -0.5377 -0.0533 -0.1440
14613TIP3    H165330   5.301   4.015   3.893  1.6454  0.6840  0.8175
14613TIP3    H265331   5.238   4.152   3.878 -0.8737 -0.5546 -0.6160
14614TIP3   OH265332   4.466   1.317   0.349  0.3107  0.5351 -0.1450
14614TIP3    H165333   4.526   1.392   0.353  0.3022  0.4854  1.9692
14614TIP3    H265334   4.403   1.333   0.419  0.5171 -1.6177  0.5988
14615TIP3   OH265335   0.254   4.741   3.650 -0.4537  0.2491  0.1032
14615TIP3    H165336   0.196   4.671   3.678  0.2233 -0.0358  0.8061
14615TIP3    H265337   0.341   4.704   3.656 -0.2661 -0.4079 -3.8989
14616TIP3   OH265338   6.693   0.369  10.982  0.5234  0.3081  0.1434
14616TIP3    H165339   6.654   0.433  11.043  2.7116  1.1725  0.7267
14616TIP3    H265340   6.665   0.399  10.896 -0.1048  0.8728  0.5244
14617TIP3   OH265341   6.711   0.687   5.100 -0.1268 -0.2758 -0.0331
14617TIP3    H165342   6.639   0.627   5.079 -2.7148  2.4046  0.6053
14617TIP3    H265343   6.733   0.728   5.016 -1.3902  0.9393  0.1893
14618TIP3   OH265344   1.684   0.578  14.626  0.0068  0.1237  0.0468
14618TIP3    H165345   1.721   0.639  14.562 -2.2762  1.1344 -0.4028
14618TIP3    H265346   1.590   0.596  14.625 -0.5820 -2.4482  0.9545
14619TIP3   OH265347   5.652   2.547  12.160 -0.1581  0.1048 -0.8882
14619TIP3    H165348   5.681   2.509  12.077 -1.0171  0.2581 -1.2729
14619TIP3    H265349   5.671   2.640  12.152 -2.0768  0.4745 -1.7756
14620TIP3   OH265350   6.826   5.114  15.830  0.2359  0.2072  0.0641
14620TIP3    H165351   6.888   5.043  15.817  0.7666  0.5255  0.8247
14620TIP3    H265352   6.747   5.070  15.863 -1.1163 -0.6150 -3.8034
14621TIP3   OH265353   3.310   5.051  16.467  0.4287  0.3358  0.2437
14621TIP3    H165354   3.300   5.036  16.561 -0.2842  0.3992  0.1785
14621TIP3    H265355   3.367   4.979  16.438 -0.6815 -0.6454  0.4391
14622TIP3   OH265356   1.608   1.695   5.242  0.1439  0.4443 -0.8178
14622TIP3    H165357   1.617   1.763   5.309  0.8851  2.0069 -2.4279
14622TIP3    H265358   1.533   1.723   5.189 -1.1122 -1.3358 -0.0823
14623TIP3   OH265359   6.817   0.584   1.507  0.0656 -0.0236 -0.0845
14623TIP3    H165360   6.779   0.671   1.505  1.1519  0.5250  1.3975
14623TIP3    H265361   6.775   0.541   1.582 -0.2538 -0.6845 -0.6310
14624TIP3   OH265362   1.932   1.805   5.907  0.2392  0.4612  0.2211
14624TIP3    H165363   1.976   1.888   5.924  0.0905  0.7048 -0.5415
14624TIP3    H265364   1.890   1.782   5.990 -0.1144  1.3847  0.3067
14625TIP3   OH265365   6.449   1.720   0.264  0.3241 -0.4439 -0.1782
14625TIP3    H165366   6.363   1.681   0.245 -1.1814  2.3040  0.4381
14625TIP3    H265367   6.460   1.710   0.358 -0.4887  1.2402  0.1344
14626TIP3   OH265368   0.658   1.048  16.947 -0.2851 -0.5493  0.4730
14626TIP3    H165369   0.734   0.994  16.970 -0.8652 -1.0519  1.2269
14626TIP3    H265370   0.696   1.133  16.924  0.4801 -0.6886  1.1874
14627TIP3   OH265371   0.639   2.867  16.970  0.2709 -0.1213  0.5775
14627TIP3    H165372   0.638   2.960  16.946 -0.2916  0.7411  3.5888
14627TIP3    H265373   0.731   2.842  16.967  0.2809 -0.0916 -2.1048
14628TIP3   OH265374   5.630   0.707  14.501 -0.0018  0.4419  0.2007
14628TIP3    H165375   5.684   0.645  14.550 -1.1342 -0.3562  0.4686
14628TIP3    H265376   5.583   0.756  14.569 -0.8829 -0.0330 -0.0583
14629TIP3   OH265377   6.866   5.550  11.720 -0.1921 -0.4822  0.0142
14629TIP3    H165378   6.798   5.569  11.655  0.1858  0.0564 -0.2319
14629TIP3    H265379   6.948   5.560  11.672  0.0876 -0.2740  0.5293
14630TIP3   OH265380   5.238   4.635  10.259  0.1937 -0.3117  1.3375
14630TIP3    H165381   5.171   4.659  10.324 -0.7536 -1.1910  0.7343
14630TIP3    H265382   5.227   4.699  10.189 -0.9207 -1.1856  0.6666
14631TIP3   OH265383   5.226   2.554   3.824  0.2971  1.4145 -0.3578
14631TIP3    H165384   5.209   2.577   3.915  2.7009  2.3219 -0.0483
14631TIP3    H265385   5.191   2.628   3.774 -0.9922  0.9323 -0.2053
14632TIP3   OH265386   0.608   0.225  15.778 -0.6630 -0.3052  0.8499
14632TIP3    H165387   0.654   0.163  15.834  1.3841  0.7367  0.4192
14632TIP3    H265388   0.633   0.311  15.812  0.6456  0.3661 -1.5627
14633TIP3   OH265389   4.079   1.722   3.472  0.2547 -0.1338 -0.1024
14633TIP3    H165390   4.101   1.797   3.527 -0.1715  0.2489 -0.4515
14633TIP3    H265391   4.131   1.650   3.509  1.0793  0.4488 -0.1014
14634TIP3   OH265392   3.053   6.305   5.986  0.0890  0.1440  0.3376
14634TIP3    H165393   3.094   6.390   5.966  1.8821 -0.7767 -0.0820
14634TIP3    H265394   3.112   6.265   6.050  0.2588 -1.5407 -0.8138
14635TIP3   OH265395   2.838   5.154  11.723  0.4158  0.4630 -0.0665
14635TIP3    H165396   2.778   5.170  11.797  2.4413  1.8045  1.3781
14635TIP3    H265397   2.855   5.060  11.727 -1.7972 -0.0437 -0.7522
14636TIP3   OH265398   5.971   6.726   0.842  0.5268 -0.1955  0.2158
14636TIP3    H165399   6.016   6.668   0.782 -1.2924 -0.4023 -1.0439
14636TIP3    H265400   6.018   6.809   0.836  1.2783 -0.6549 -0.3313
14637TIP3   OH265401   5.062   4.160   3.092 -0.3854 -0.3075  0.0421
14637TIP3    H165402   5.156   4.180   3.095 -0.6990  1.6522 -1.2982
14637TIP3    H265403   5.020   4.239   3.126 -1.6592  0.5181 -3.1287
14638TIP3   OH265404   3.335   4.389   3.079 -0.0220  1.0114 -0.1896
14638TIP3    H165405   3.412   4.367   3.026 -1.2265  0.2806 -1.7353
14638TIP3    H265406   3.340   4.329   3.153  0.4355  0.3541 -0.7315
14639TIP3   OH265407   0.379   2.437  11.281 -0.1763  0.5639  0.2782
14639TIP3    H165408   0.387   2.515  11.336  0.4109  0.6542  0.0733
14639TIP3    H265409   0.468   2.401  11.278 -0.8856 -1.6209  2.5624
14640TIP3   OH265410   4.011   3.977  11.466  0.4638 -0.4165  0.1764
14640TIP3    H165411   4.080   3.935  11.414 -0.2198  0.6183 -1.6755
14640TIP3    H265412   3.933   3.973  11.410 -1.0006 -1.4765  2.1778
14641TIP3   OH265413   0.681   1.752  11.919  0.8127 -0.1642 -0.4328
14641TIP3    H165414   0.738   1.684  11.955 -0.3646 -1.9386 -1.7671
14641TIP3    H265415   0.714   1.766  11.830 -0.2357 -0.5274 -0.8866
14642TIP3   OH265416   5.357   2.240  11.117  0.5816 -0.4860  0.0795
14642TIP3    H165417   5.297   2.304  11.155 -0.3593 -0.1756 -1.7648
14642TIP3    H265418   5.314   2.155  11.131  0.4065 -0.4078  0.0232
14643TIP3   OH265419   1.808   4.276   0.652  0.6804  0.2326  0.0732
14643TIP3    H165420   1.867   4.319   0.590  1.0473 -0.0454  0.2293
14643TIP3    H265421   1.743   4.343   0.674 -0.1168  0.0085 -1.4645
14644TIP3   OH265422   4.997   1.355  12.327  0.2043  0.4448 -0.1667
14644TIP3    H165423   5.023   1.366  12.236 -0.1627  0.0636 -0.3225
14644TIP3    H265424   5.064   1.297  12.364 -1.1592 -1.8018 -0.9603
14645TIP3   OH265425   5.606   0.084   4.608  0.3014 -0.2334 -0.6882
14645TIP3    H165426   5.679   0.110   4.665  0.6324  1.0534 -1.6418
14645TIP3    H265427   5.596   0.158   4.548 -0.5761 -1.1962 -1.7652
14646TIP3   OH265428   3.414   3.600   1.222  0.3853  0.2983  0.4986
14646TIP3    H165429   3.342   3.630   1.279 -0.1516 -2.0560  1.2048
14646TIP3    H265430   3.435   3.676   1.168 -0.3565  2.0937  2.5581
14647TIP3   OH265431   6.339   0.610   4.619 -0.4815 -0.2283 -0.2016
14647TIP3    H165432   6.331   0.523   4.579 -2.4600 -0.3920  0.4644
14647TIP3    H265433   6.259   0.620   4.671  0.2064  1.5759  0.5723
14648TIP3   OH265434   5.282   2.498  12.530  0.2852 -0.2584 -0.2672
14648TIP3    H165435   5.364   2.449  12.531  0.1761 -0.4408 -0.2670
14648TIP3    H265436   5.286   2.548  12.448 -0.0620 -1.0474 -0.7716
14649TIP3   OH265437   2.029   3.545   1.868 -0.1300 -0.5048 -0.1890
14649TIP3    H165438   2.071   3.532   1.953 -0.8907 -1.6556  0.0360
14649TIP3    H265439   2.098   3.577   1.812  0.5198 -0.2558  0.7318
14650TIP3   OH265440   0.364   4.180  15.504 -0.0777 -0.5183 -0.6574
14650TIP3    H165441   0.343   4.106  15.447 -1.2324 -2.2587  1.8397
14650TIP3    H265442   0.404   4.140  15.581  0.6911  1.6337  0.1255
14651TIP3   OH265443   3.078   2.856   1.836  0.4091  0.1136 -0.3300
14651TIP3    H165444   3.119   2.777   1.802  0.6886  0.4894 -0.8812
14651TIP3    H265445   3.078   2.917   1.762 -0.1367  0.5024 -0.0177
14652TIP3   OH265446   0.736   0.645  13.921 -0.5116  0.1210  0.1407
14652TIP3    H165447   0.809   0.679  13.870 -0.0773 -3.2396 -1.7771
14652TIP3    H265448   0.663   0.644  13.859 -1.0683 -0.2948  0.7977
14653TIP3   OH265449   4.166   5.524   0.549  0.0075 -0.8239  0.0961
14653TIP3    H165450   4.103   5.477   0.496  0.9861 -1.0796 -0.8835
14653TIP3    H265451   4.250   5.510   0.505  0.4151  1.4462  0.0160
14654TIP3   OH265452   4.046   0.055  11.921 -0.1819 -0.5394 -0.5495
14654TIP3    H165453   4.015  -0.012  11.860 -0.6796 -0.1701 -0.7081
14654TIP3    H265454   3.967   0.090  11.962  0.1378 -0.6660  0.1895
14655TIP3   OH265455   5.438   2.916  12.839  0.2717  0.8377 -0.4875
14655TIP3    H165456   5.412   2.827  12.815 -0.3007  1.7096 -3.6493
14655TIP3    H265457   5.524   2.928  12.799  0.6272  1.4963  0.4492
14656TIP3   OH265458   6.288   6.651  14.811  0.5612 -0.1075  0.8864
14656TIP3    H165459   6.370   6.661  14.858  0.5894  0.0564  0.8018
14656TIP3    H265460   6.262   6.560  14.827  2.0008 -0.9462 -1.0825
14657TIP3   OH265461   5.389   5.950  15.345  0.0591  0.1157  0.1432
14657TIP3    H165462   5.447   5.891  15.394 -0.6093  0.2807  1.1774
14657TIP3    H265463   5.440   6.030  15.333 -0.4641  0.8713  2.4894
14658TIP3   OH265464   4.271   5.495   2.498 -0.5858  0.0154  0.1976
14658TIP3    H165465   4.268   5.572   2.555 -1.7657 -0.3215  0.6046
14658TIP3    H265466   4.307   5.426   2.554 -0.4001  0.0343  0.1031
14659TIP3   OH265467   1.373   2.759  15.060  0.0257  0.8031  0.0460
14659TIP3    H165468   1.300   2.726  15.112  0.2481 -1.2525 -0.8365
14659TIP3    H265469   1.356   2.853  15.051 -1.3704  0.7514  1.6064
14660TIP3   OH265470   3.553   3.407   2.837 -0.3952 -0.3878 -0.4990
14660TIP3    H165471   3.548   3.351   2.760  0.3189  0.4643 -1.1905
14660TIP3    H265472   3.463   3.436   2.851 -0.7001 -1.3713 -0.3804
14661TIP3   OH265473   5.009   6.118  14.501  0.1013  0.0494  0.1082
14661TIP3    H165474   5.085   6.127  14.443 -0.1864 -0.6820 -0.3802
14661TIP3    H265475   4.941   6.171  14.461  0.6648  1.6439  1.1373
14662TIP3   OH265476   3.643   3.312   4.785  0.3740 -0.8468  0.4749
14662TIP3    H165477   3.559   3.313   4.831  0.6540 -1.6262  1.0308
14662TIP3    H265478   3.708   3.335   4.852  0.7415 -1.5654  0.3827
14663TIP3   OH265479   3.585   3.493  16.560 -0.1058  0.5196  0.0526
14663TIP3    H165480   3.556   3.401  16.556  0.5103  0.3103  0.3921
14663TIP3    H265481   3.612   3.513  16.470 -0.4238  0.4319 -0.0644
14664TIP3   OH265482   5.151   2.321  15.602 -0.1871  0.3055 -0.6820
14664TIP3    H165483   5.242   2.299  15.621 -0.9824 -2.2449  0.4929
14664TIP3    H265484   5.136   2.286  15.514 -0.4999 -0.9198 -0.1592
14665TIP3   OH265485   0.375   1.587  15.156  0.0751  0.2816 -0.3065
14665TIP3    H165486   0.325   1.531  15.216  1.6743  1.1308  1.9263
14665TIP3    H265487   0.393   1.666  15.206  2.8147  0.4030 -1.3038
14666TIP3   OH265488   0.147   3.781   2.155 -0.3051  0.4579  0.1446
14666TIP3    H165489   0.207   3.728   2.207  0.4269  0.6983 -0.4281
14666TIP3    H265490   0.107   3.841   2.218 -0.0146  0.2274  0.5532
14667TIP3   OH265491   0.074   3.296  16.478 -0.3375 -0.4850 -0.1043
14667TIP3    H165492  -0.004   3.277  16.424  0.3807  0.8465 -1.6872
14667TIP3    H265493   0.075   3.391  16.486  0.7944 -0.5322  0.4401
14668TIP3   OH265494   6.770   4.849   2.913  0.0708  0.0603 -0.1641
14668TIP3    H165495   6.719   4.906   2.971 -1.0028 -1.3421  0.3269
14668TIP3    H265496   6.763   4.890   2.827  2.2959  2.6013  0.7010
14669TIP3   OH265497   4.591   2.300   6.540 -0.0602 -0.2995 -0.6748
14669TIP3    H165498   4.509   2.346   6.555 -0.2824 -1.0350  0.4068
14669TIP3    H265499   4.571   2.208   6.556  0.8613 -0.5400 -0.8470
14670TIP3   OH265500   1.042   4.769   6.827 -0.1242  0.4799 -0.6373
14670TIP3    H165501   1.086   4.700   6.777 -2.7917 -1.7798 -0.0936
14670TIP3    H265502   1.082   4.764   6.914  0.7168  0.6727 -0.9975
14671TIP3   OH265503   6.095   3.584   1.033 -0.4925  0.0421  0.3619
14671TIP3    H165504   6.127   3.625   1.113 -1.3946  0.5634  0.4750
14671TIP3    H265505   6.101   3.490   1.050  0.0463  0.1398  0.7375
14672TIP3   OH265506   4.453   0.278   4.495 -0.0420 -0.3286 -0.1791
14672TIP3    H165507   4.451   0.227   4.414  0.3170  0.5682 -0.7697
14672TIP3    H265508   4.370   0.256   4.539 -0.2046 -0.8856 -0.7387
14673TIP3   OH265509   1.547   5.305  15.027  0.0811  0.0630  0.7732
14673TIP3    H165510   1.591   5.285  15.110  0.9128  0.5327  0.4594
14673TIP3    H265511   1.538   5.220  14.983 -1.2149 -0.3233  1.7327
14674TIP3   OH265512   2.604   3.592   3.269  0.0163  0.0799 -0.4586
14674TIP3    H165513   2.538   3.523   3.278 -0.6047  0.5758 -1.0705
14674TIP3    H265514   2.588   3.628   3.182  1.4252 -0.1102 -0.8112
14675TIP3   OH265515   4.870   5.399   0.233 -0.4652 -0.4807 -0.1399
14675TIP3    H165516   4.855   5.437   0.146  1.7679 -0.4027 -0.5553
14675TIP3    H265517   4.942   5.338   0.220 -1.0211 -1.5288  1.4115
14676TIP3   OH265518   3.231   1.234  15.638 -0.3100 -0.8137  0.0743
14676TIP3    H165519   3.236   1.152  15.589 -2.1171  0.0280 -1.6175
14676TIP3    H265520   3.139   1.243  15.661  0.2597 -0.4512  2.4720
14677TIP3   OH265521   1.094   3.252  14.452  0.2065 -0.2979  0.1227
14677TIP3    H165522   1.081   3.266  14.359 -1.2294 -0.5684  0.2556
14677TIP3    H265523   1.108   3.158  14.461 -0.1842 -0.3477  0.2280
14678TIP3   OH265524   2.857   2.044   4.563  0.3105 -0.0514  0.1116
14678TIP3    H165525   2.805   2.058   4.484  1.8769 -1.9446 -1.3741
14678TIP3    H265526   2.919   2.117   4.565  0.3471 -0.0640 -0.5005
14679TIP3   OH265527   5.444   6.571  14.036  0.1021  0.0296  0.2770
14679TIP3    H165528   5.522   6.535  13.993  0.6382  1.6165 -0.1475
14679TIP3    H265529   5.373   6.513  14.010  1.3701 -2.6222  2.2057
14680TIP3   OH265530   5.399   6.621   4.802 -0.4110 -0.5676 -0.9770
14680TIP3    H165531   5.364   6.651   4.718  0.0984  1.2874 -0.5741
14680TIP3    H265532   5.380   6.693   4.863  1.1482 -0.9224 -0.0142
14681TIP3   OH265533   3.598   5.720   4.531 -0.3155 -0.0928 -0.1509
14681TIP3    H165534   3.534   5.663   4.488 -3.0828  2.8694 -0.3171
14681TIP3    H265535   3.584   5.705   4.625  0.3869 -1.0753 -0.1904
14682TIP3   OH265536   3.978   5.681  10.976  0.7385 -0.4307  0.2857
14682TIP3    H165537   3.983   5.625  10.899 -1.7359 -1.7614  0.9832
14682TIP3    H265538   4.034   5.756  10.955 -0.0629 -0.5872 -2.9009
14683TIP3   OH265539   2.093   0.223   4.818 -0.3215 -0.4009  0.5584
14683TIP3    H165540   2.150   0.297   4.840 -2.0021  0.8721  0.7814
14683TIP3    H265541   2.080   0.231   4.723  0.5630 -1.2374  0.3469
14684TIP3   OH265542   0.860   3.232  14.116 -0.0700  0.2146 -0.0917
14684TIP3    H165543   0.950   3.204  14.134 -0.8442 -2.4535  0.0338
14684TIP3    H265544   0.828   3.167  14.052 -1.6972  1.5247 -0.6601
14685TIP3   OH265545   1.080   5.190  11.337  0.3475 -0.3256 -0.0054
14685TIP3    H165546   1.076   5.107  11.384  0.7799 -0.6123 -0.4765
14685TIP3    H265547   1.042   5.253  11.398 -0.1566 -0.8963  0.2850
14686TIP3   OH265548   6.851   1.203  16.977 -0.0707  0.3010 -0.6487
14686TIP3    H165549   6.822   1.250  17.054 -4.6538 -1.1056 -1.1798
14686TIP3    H265550   6.852   1.111  17.003 -0.7598 -0.1177 -1.9781
14687TIP3   OH265551   0.817   5.968   0.632  0.0586 -0.3635 -0.0821
14687TIP3    H165552   0.811   5.880   0.593 -0.4975 -1.3741  2.1541
14687TIP3    H265553   0.759   5.965   0.708 -0.7634  2.2921 -0.4959
14688TIP3   OH265554   0.202   2.079   4.816 -0.1469  0.2090  0.4978
14688TIP3    H165555   0.193   2.001   4.762  0.5570 -0.9396  1.9625
14688TIP3    H265556   0.279   2.124   4.782  0.4785 -0.6725  0.7358
14689TIP3   OH265557   4.092   1.225  16.199 -0.0955  0.2177 -0.4268
14689TIP3    H165558   4.027   1.155  16.183  1.4823 -1.4631  0.2066
14689TIP3    H265559   4.165   1.181  16.242 -0.4003  2.8812  3.2651
14690TIP3   OH265560   0.120   2.593   5.543 -0.1093  0.2870 -0.2866
14690TIP3    H165561   0.168   2.522   5.584  0.2176  0.5203 -0.2579
14690TIP3    H265562   0.171   2.615   5.465  1.0246  1.9587  0.8633
14691TIP3   OH265563   2.455   5.998   0.078 -0.3660  0.1597 -0.0478
14691TIP3    H165564   2.422   5.944   0.006  2.1020  0.8141 -1.7876
14691TIP3    H265565   2.382   6.002   0.140 -1.6473 -2.7266 -1.1822
14692TIP3   OH265566   2.935   3.987  13.159 -0.2307  0.2151  0.3223
14692TIP3    H165567   2.984   3.986  13.241 -0.4713  0.2782  0.4696
14692TIP3    H265568   2.863   3.926  13.174 -0.5405  0.5801  0.3237
14693TIP3   OH265569   6.695   3.762  11.972  0.0847  0.4678 -0.1563
14693TIP3    H165570   6.633   3.707  11.925  0.6178 -0.5915  0.3483
14693TIP3    H265571   6.776   3.711  11.974  0.4070  0.9884  0.8726
14694TIP3   OH265572   2.268   0.480  13.744 -0.2500  0.1123 -0.5485
14694TIP3    H165573   2.260   0.503  13.652  0.0410  1.8064 -0.1919
14694TIP3    H265574   2.183   0.442  13.768  0.0359 -1.3603 -1.7442
14695TIP3   OH265575   2.802   1.892  16.613  0.9872  0.0178  0.1086
14695TIP3    H165576   2.879   1.867  16.664  1.7238 -0.2571 -1.1224
14695TIP3    H265577   2.806   1.987  16.609  1.6372 -0.0351 -0.5281
14696TIP3   OH265578   3.644   5.343  13.017 -0.4055  0.5981 -0.0489
14696TIP3    H165579   3.581   5.303  13.076 -1.2886  1.4235 -0.4220
14696TIP3    H265580   3.724   5.350  13.069 -0.9834  0.7251  0.8488
14697TIP3   OH265581   3.521   2.387  12.457 -0.9751 -0.1579 -0.3348
14697TIP3    H165582   3.519   2.472  12.501  0.2353 -0.3213  0.0633
14697TIP3    H265583   3.467   2.330  12.513 -1.5482  0.2579 -0.4470
14698TIP3   OH265584   2.613   6.563  14.687  0.2760  0.3301 -0.4160
14698TIP3    H165585   2.703   6.535  14.673  0.5582  1.0313 -0.0918
14698TIP3    H265586   2.596   6.545  14.780  0.5536  1.4163 -0.1317
14699TIP3   OH265587   5.232   2.206  13.461 -0.2804  0.1459  0.4149
14699TIP3    H165588   5.300   2.145  13.490 -0.2339  0.4436  0.9536
14699TIP3    H265589   5.272   2.293  13.469 -0.5943  0.2973  0.3779
14700TIP3   OH265590   4.021   0.907   4.379 -0.5067 -0.4533 -0.3284
14700TIP3    H165591   4.004   0.901   4.285 -0.6313 -3.1217 -0.2126
14700TIP3    H265592   4.116   0.919   4.386 -0.3679 -1.2292 -0.7946
14701TIP3   OH265593   1.999   4.843  15.454  0.4454  0.1025  0.1111
14701TIP3    H165594   2.088   4.809  15.451  0.1598 -0.6620 -0.1465
14701TIP3    H265595   2.009   4.936  15.471  1.2661 -0.0867  0.7257
14702TIP3   OH265596   0.454   5.594   2.352 -0.0991 -0.3664  0.4231
14702TIP3    H165597   0.545   5.575   2.374 -0.2117 -0.4371  0.8274
14702TIP3    H265598   0.453   5.687   2.330  0.2356 -0.5529 -0.4495
14703TIP3   OH265599   1.596   6.394   3.506  0.0787 -0.1924 -0.4306
14703TIP3    H165600   1.686   6.364   3.516  0.7638  2.0785  0.9868
14703TIP3    H265601   1.559   6.389   3.594 -1.3561 -1.4616 -1.0630
14704TIP3   OH265602   0.044   2.109  16.256 -0.3618  0.5545 -0.0329
14704TIP3    H165603  -0.022   2.071  16.197  1.2463 -1.8328 -0.4271
14704TIP3    H265604   0.127   2.077  16.222  0.8805  1.7970  1.6802
14705TIP3   OH265605   2.256   5.474  11.970 -0.7283 -0.5777 -0.2404
14705TIP3    H165606   2.236   5.558  11.930 -1.8391 -0.4839  0.4850
14705TIP3    H265607   2.274   5.416  11.895  0.6720  0.4293 -0.7194
14706TIP3   OH265608   6.451   4.434  14.634  0.5409 -0.2173  0.1352
14706TIP3    H165609   6.428   4.346  14.662 -1.1617  0.1727  0.1126
14706TIP3    H265610   6.384   4.490  14.674 -0.4617  0.6580 -2.5262
14707TIP3   OH265611   3.682   2.330   2.483  0.5992  0.3708 -0.0014
14707TIP3    H165612   3.722   2.245   2.467  4.1823  1.7021  0.8455
14707TIP3    H265613   3.690   2.343   2.578  0.6012  1.8333 -0.1660
14708TIP3   OH265614   3.987   3.480  14.840  0.1715 -0.4972 -0.4651
14708TIP3    H165615   3.972   3.569  14.871  1.7681 -0.2993 -0.1670
14708TIP3    H265616   4.008   3.430  14.918  2.0664 -0.4838 -0.9244
14709TIP3   OH265617   3.717   2.969   3.341  0.1248  0.0735  0.3891
14709TIP3    H165618   3.688   3.060   3.333  0.9351  0.3176  0.1017
14709TIP3    H265619   3.655   2.929   3.402 -0.4753  0.7142  0.2106
14710TIP3   OH265620   1.619   5.837  11.572  0.0135 -0.1183  0.0922
14710TIP3    H165621   1.642   5.761  11.518 -0.6592 -0.4689  0.2964
14710TIP3    H265622   1.665   5.910  11.530 -1.7956 -0.0678 -1.9713
14711TIP3   OH265623   5.286   4.925  11.404 -0.0526  0.0086 -0.2635
14711TIP3    H165624   5.203   4.882  11.382 -0.1083 -0.3459  0.6138
14711TIP3    H265625   5.319   4.956  11.320 -0.0983 -1.5992 -0.9220
14712TIP3   OH265626   1.515   4.112  15.967 -0.2381 -0.6807 -0.1623
14712TIP3    H165627   1.610   4.105  15.969 -0.2599 -0.9101  0.7129
14712TIP3    H265628   1.486   4.033  15.922  0.0598  0.6243 -2.8149
14713TIP3   OH265629   3.624   0.837  12.364  0.6755  0.7013 -0.2668
14713TIP3    H165630   3.611   0.891  12.442  1.8585 -1.0969  1.2851
14713TIP3    H265631   3.719   0.824  12.359  0.5179 -0.2232 -1.2688
14714TIP3   OH265632   5.990   2.244   3.899 -1.0784 -0.2846 -0.0110
14714TIP3    H165633   6.067   2.192   3.922 -0.0252  0.7157 -1.1053
14714TIP3    H265634   5.935   2.241   3.977 -0.9373 -2.7432  0.0895
14715TIP3   OH265635   2.358   4.640   4.719  0.3573  0.4356  0.1551
14715TIP3    H165636   2.295   4.646   4.790 -0.4293 -0.3715 -0.4562
14715TIP3    H265637   2.391   4.729   4.709  1.1762  0.4216  2.1196
14716TIP3   OH265638   4.865   1.062  14.549  0.0714 -0.0657 -0.4903
14716TIP3    H165639   4.838   0.990  14.608 -0.2840 -0.4547 -1.1163
14716TIP3    H265640   4.783   1.095  14.513  0.0312  2.0569  1.3429
14717TIP3   OH265641   2.264   6.551   0.956  0.2232 -0.1097  0.0880
14717TIP3    H165642   2.191   6.606   0.982  0.2189  0.4529 -1.0755
14717TIP3    H265643   2.301   6.520   1.039 -0.0869  1.2236  0.7495
14718TIP3   OH265644   4.186   3.762  14.895 -0.4101  0.0408  0.2609
14718TIP3    H165645   4.180   3.792  14.986  2.2775  3.5006 -0.4561
14718TIP3    H265646   4.101   3.784  14.857 -0.4306  1.8419  1.2004
14719TIP3   OH265647   4.869   2.217  15.364 -0.1224 -0.7669  0.1467
14719TIP3    H165648   4.774   2.225  15.371 -0.1694 -0.7389 -0.4863
14719TIP3    H265649   4.895   2.286  15.303  0.3571 -0.4995  0.6480
14720TIP3   OH265650   6.211   3.729  13.807 -0.0204  0.1918  0.1362
14720TIP3    H165651   6.229   3.815  13.769 -0.4479  0.9768  1.6408
14720TIP3    H265652   6.295   3.700  13.844  0.1686 -0.1484 -0.5316
14721TIP3   OH265653   0.442   4.178   5.720  0.1438  0.3071 -0.1280
14721TIP3    H165654   0.427   4.270   5.740 -0.0584  0.0743  0.8168
14721TIP3    H265655   0.511   4.150   5.779  1.1084  0.1603 -1.2790
14722TIP3   OH265656   5.664   0.651  15.586  0.0968  0.1046 -0.4981
14722TIP3    H165657   5.653   0.741  15.554 -0.8399  0.2663  0.2411
14722TIP3    H265658   5.578   0.627  15.619 -0.1940 -1.7549 -2.3982
14723TIP3   OH265659   5.416   5.249  15.574  0.2189  0.7403  0.1830
14723TIP3    H165660   5.364   5.245  15.494 -1.4587  1.8613  1.1606
14723TIP3    H265661   5.408   5.339  15.604 -0.6906 -0.0565  2.5336
14724TIP3   OH265662   1.328   6.790  10.453  0.4868 -0.1421  0.5653
14724TIP3    H165663   1.309   6.750  10.368  3.4112  0.6042 -0.5723
14724TIP3    H265664   1.333   6.716  10.514 -0.5120 -0.8116 -0.1485
14725TIP3   OH265665   5.880   5.535  16.515  0.0182 -0.0321 -0.1853
14725TIP3    H165666   5.932   5.591  16.457  1.0082  0.3282  0.9982
14725TIP3    H265667   5.901   5.446  16.487  0.7284  0.1298 -0.1795
14726TIP3   OH265668   3.973   3.633  15.715 -0.1233 -0.0505 -0.1354
14726TIP3    H165669   3.897   3.653  15.661  1.2597  2.3902 -1.3862
14726TIP3    H265670   4.015   3.559  15.671 -0.9221 -0.3875 -0.3407
14727TIP3   OH265671   6.848   5.039  11.409 -0.0557 -0.2349  0.1841
14727TIP3    H165672   6.898   5.053  11.490  0.1178 -0.4357  0.1125
14727TIP3    H265673   6.757   5.039  11.437 -0.0005 -0.1972  0.3655
14728TIP3   OH265674   2.379   0.002  13.167  0.1372  0.5920  0.4564
14728TIP3    H165675   2.353   0.018  13.258 -0.1850  0.0215  0.4662
14728TIP3    H265676   2.317   0.054  13.116 -1.8743 -1.6243  0.4164
14729TIP3   OH265677   1.162   4.216  15.568 -0.0314  0.1103  0.4958
14729TIP3    H165678   1.244   4.189  15.608  0.6174  0.6167 -0.4565
14729TIP3    H265679   1.112   4.135  15.560 -0.7658  0.1478  3.4956
14730TIP3   OH265680   6.802   5.780   2.969  0.2924 -0.2199 -0.5588
14730TIP3    H165681   6.840   5.748   2.886 -0.6832  1.2321 -1.6106
14730TIP3    H265682   6.762   5.703   3.008 -0.0682 -0.7482 -1.9228
14731TIP3   OH265683   3.103   3.930   5.101  0.1305 -0.1731 -0.1262
14731TIP3    H165684   3.016   3.915   5.137  0.5377 -1.6944  0.3204
14731TIP3    H265685   3.122   4.022   5.120 -1.2952  0.1284 -0.0858
14732TIP3   OH265686   6.763   0.635   4.653  0.4918 -0.4753  0.0858
14732TIP3    H165687   6.720   0.596   4.577 -0.0616  1.1252 -0.4734
14732TIP3    H265688   6.736   0.580   4.726 -0.6308 -0.8815 -0.6010
14733TIP3   OH265689   1.204   6.664  14.743 -0.1197  0.2488  0.1729
14733TIP3    H165690   1.229   6.742  14.792 -0.5024  0.4518  0.0463
14733TIP3    H265691   1.181   6.600  14.810  1.1925 -0.1009  0.3079
14734TIP3   OH265692   6.573   0.009  14.370 -0.7344  0.1463  0.4319
14734TIP3    H165693   6.524   0.054  14.301  0.1516 -0.5792 -0.7215
14734TIP3    H265694   6.516  -0.063  14.396 -0.7128 -0.1009 -0.1870
14735TIP3   OH265695   4.582   5.995   2.446  0.0137  0.3935  0.1279
14735TIP3    H165696   4.537   6.006   2.362  0.2690  0.0764 -0.0506
14735TIP3    H265697   4.570   5.903   2.467  0.2886  0.3849  0.2485
14736TIP3   OH265698   2.982   1.482  15.386 -0.3381  0.0982 -0.4478
14736TIP3    H165699   2.891   1.504  15.364  0.2131  1.1031 -1.8155
14736TIP3    H265700   3.020   1.564  15.416  0.3134 -0.1520 -0.5711
14737TIP3   OH265701   2.497   2.898  16.096 -0.4328  0.0533 -0.2195
14737TIP3    H165702   2.551   2.819  16.097 -2.6285 -1.5191  0.8448
14737TIP3    H265703   2.463   2.903  16.006  1.0896  0.8700 -0.8023
14738TIP3   OH265704   0.499   4.768   5.474  0.2858  0.9221 -0.3174
14738TIP3    H165705   0.503   4.739   5.565 -1.3738 -2.2168 -1.1051
14738TIP3    H265706   0.575   4.726   5.433 -0.2233  0.4712 -0.8042
14739TIP3   OH265707   0.330   0.334   5.226 -0.0033  0.7014 -0.0170
14739TIP3    H165708   0.325   0.333   5.322 -0.0595  0.6316 -0.0210
14739TIP3    H265709   0.245   0.369   5.199 -0.2353  0.1129 -0.0638
14740TIP3   OH265710   4.506   2.160  16.920  0.0136  0.1673 -0.0116
14740TIP3    H165711   4.429   2.137  16.971 -1.2421  2.1970 -0.8766
14740TIP3    H265712   4.529   2.249  16.948  2.2583 -0.4818  0.4325
14741TIP3   OH265713   2.745   6.711  15.498 -0.0130 -0.0928 -0.1496
14741TIP3    H165714   2.721   6.766  15.572  0.1425 -0.6762  0.3410
14741TIP3    H265715   2.694   6.631  15.509  1.2855 -0.8972  0.3068
14742TIP3   OH265716   1.075   1.056   2.307 -0.4205 -0.4439 -0.1714
14742TIP3    H165717   1.001   1.028   2.253 -0.7482 -1.1108  0.5824
14742TIP3    H265718   1.152   1.019   2.264 -0.7973 -2.1460  0.5099
14743TIP3   OH265719   4.622   4.958  16.530  0.7474  0.1591 -0.2658
14743TIP3    H165720   4.672   5.024  16.579 -0.0226  1.2531 -0.9279
14743TIP3    H265721   4.575   5.007  16.463 -0.4174 -0.9785 -0.3291
14744TIP3   OH265722   2.717   0.695   4.831  0.1541  0.0620  0.1203
14744TIP3    H165723   2.727   0.671   4.923 -0.3184 -0.3761  0.0622
14744TIP3    H265724   2.806   0.689   4.795  0.3541  0.3272  0.5657
14745TIP3   OH265725   6.190   6.025  14.904  0.2380 -0.1338  0.2890
14745TIP3    H165726   6.204   6.036  14.810 -0.8276  0.2134  0.1582
14745TIP3    H265727   6.277   6.012  14.940  0.7443  0.5893 -0.6371
14746TIP3   OH265728   1.945   2.327   4.799  0.1995 -0.3176 -0.0477
14746TIP3    H165729   1.995   2.246   4.799  0.7618  0.0289  0.2011
14746TIP3    H265730   2.009   2.396   4.783 -0.3595  0.0302 -0.8612
14747TIP3   OH265731   5.699   4.568  15.522 -0.5170 -0.0402  0.0595
14747TIP3    H165732   5.744   4.489  15.491  3.2716  1.2237  1.7368
14747TIP3    H265733   5.652   4.600  15.446 -0.6240 -2.8673 -1.1839
14748TIP3   OH265734   2.048   1.177  14.403 -0.1538  0.2314  0.5707
14748TIP3    H165735   2.087   1.193  14.489  4.9935  0.3112 -1.4112
14748TIP3    H265736   2.041   1.082  14.397  1.7484  0.0580  0.3753
14749TIP3   OH265737   3.389   4.362  11.064 -0.6085 -0.3746  0.3866
14749TIP3    H165738   3.306   4.317  11.050 -1.7291  1.5775  0.3078
14749TIP3    H265739   3.401   4.362  11.159  0.5759 -2.7155  0.3044
14750TIP3   OH265740   4.430   6.844   2.692 -0.8814  0.2792  0.3924
14750TIP3    H165741   4.453   6.827   2.783  1.3368  1.2062  0.0612
14750TIP3    H265742   4.417   6.938   2.687 -1.3490  0.1914 -0.2084
14751TIP3   OH265743   4.573   1.911  12.399 -0.0916 -0.7033 -0.0750
14751TIP3    H165744   4.527   1.993  12.382  1.0023 -0.2470 -0.9650
14751TIP3    H265745   4.523   1.845  12.350 -0.4456 -0.4243 -0.0987
14752TIP3   OH265746   6.236   2.574   1.968  0.5847  0.1347 -0.1317
14752TIP3    H165747   6.156   2.548   1.922 -0.2760  1.6806  0.4072
14752TIP3    H265748   6.210   2.576   2.060  1.2992  0.4630  0.0678
14753TIP3   OH265749   1.736   1.727   2.362 -0.4181 -0.0687  0.0289
14753TIP3    H165750   1.727   1.777   2.443  1.7366  0.7411 -0.1871
14753TIP3    H265751   1.823   1.689   2.366 -0.7102 -0.9718 -1.4091
14754TIP3   OH265752   0.027   5.178   0.056 -0.0818  0.2677 -0.0638
14754TIP3    H165753  -0.026   5.242   0.104  3.5714  2.6721  1.1247
14754TIP3    H265754   0.080   5.135   0.123  0.5781 -0.9735 -1.3331
14755TIP3   OH265755   0.065   2.790  16.861 -0.0196 -0.1535 -0.5561
14755TIP3    H165756   0.024   2.841  16.931 -3.3559  0.7025 -2.8294
14755TIP3    H265757  -0.004   2.730  16.832  1.5800 -1.2253 -2.3929
14756TIP3   OH265758   1.622   1.436  11.198  0.2497 -0.2099 -0.1093
14756TIP3    H165759   1.605   1.484  11.279  1.4496 -0.7722  0.5015
14756TIP3    H265760   1.546   1.456  11.143 -0.4212  0.4792  1.0008
14757TIP3   OH265761   1.581   0.271  15.864 -0.0300  0.0477  0.6042
14757TIP3    H165762   1.592   0.199  15.927 -2.2038 -2.2730 -1.4376
14757TIP3    H265763   1.662   0.271  15.814 -0.2168 -1.4849  0.2363
14758TIP3   OH265764   3.402   4.193   2.350  0.4610  0.6261  0.4512
14758TIP3    H165765   3.430   4.150   2.431 -0.3965  1.8394  1.4365
14758TIP3    H265766   3.434   4.136   2.280  2.2514  0.1502  1.5946
14759TIP3   OH265767   3.758   4.083  14.513 -0.3410 -0.2719 -0.1474
14759TIP3    H165768   3.776   4.177  14.519 -0.0813 -0.4178  2.6532
14759TIP3    H265769   3.794   4.057  14.429 -0.7490  2.1874 -1.1523
14760TIP3   OH265770   3.508   5.092   3.099  0.3088  0.2062  0.0158
14760TIP3    H165771   3.470   5.120   3.182 -0.9098  0.1141 -0.4958
14760TIP3    H265772   3.539   5.003   3.116  1.9787  0.9225  0.9452
14761TIP3   OH265773   6.209   4.647   3.844  0.2296  0.0779  0.1416
14761TIP3    H165774   6.168   4.570   3.805  0.9658 -1.2888  1.9115
14761TIP3    H265775   6.207   4.713   3.775 -0.0756 -1.6365 -1.5760
14762TIP3   OH265776   4.772   0.855   5.364 -0.4051  0.1824  0.4799
14762TIP3    H165777   4.809   0.887   5.447 -0.9524 -0.3613  0.9495
14762TIP3    H265778   4.715   0.926   5.334 -0.0251  0.4762  0.4477
14763TIP3   OH265779   5.891   6.301   1.027  0.4695  0.7013  0.2202
14763TIP3    H165780   5.954   6.339   0.965  1.3280 -0.7816  0.1279
14763TIP3    H265781   5.852   6.228   0.978  0.3181  0.2300  1.0328
14764TIP3   OH265782   3.783   2.897  14.771 -0.2564 -0.4376  0.1730
14764TIP3    H165783   3.691   2.890  14.799  0.1155 -1.8755  1.1329
14764TIP3    H265784   3.779   2.890  14.676 -1.2251  0.6212  0.1146
14765TIP3   OH265785   5.773   5.303   1.057 -1.0722  0.3751 -0.5332
14765TIP3    H165786   5.747   5.272   1.144 -0.5087 -2.3439 -1.2404
14765TIP3    H265787   5.859   5.264   1.042 -1.7641 -0.4187 -2.8601
14766TIP3   OH265788   3.603   3.504   5.383 -1.0296  0.0982  0.6464
14766TIP3    H165789   3.544   3.433   5.408 -0.4309 -0.9699 -0.8097
14766TIP3    H265790   3.623   3.549   5.465 -0.8227 -1.8911  1.7563
14767TIP3   OH265791   6.216   2.438   3.880  0.3768  0.0763 -0.0892
14767TIP3    H165792   6.138   2.394   3.913  0.2363  0.5889  0.2769
14767TIP3    H265793   6.280   2.428   3.951 -0.0256  1.4531  0.5098
14768TIP3   OH265794   6.152   2.644   2.226 -0.6476  0.1273 -0.3662
14768TIP3    H165795   6.058   2.625   2.219 -0.7704  0.5968 -0.0414
14768TIP3    H265796   6.174   2.623   2.317 -0.5548  0.5256 -0.2970
14769TIP3   OH265797   3.847   2.525  11.802 -0.8163  0.2614 -0.1319
14769TIP3    H165798   3.848   2.449  11.860  2.2161 -0.0565 -0.4694
14769TIP3    H265799   3.899   2.498  11.726 -2.7729  1.4628 -2.0103
14770TIP3   OH265800   0.254   6.556   1.276 -0.0597 -0.4125  0.2201
14770TIP3    H165801   0.206   6.593   1.202 -0.5107  1.3239  1.3286
14770TIP3    H265802   0.231   6.612   1.350  0.8589 -1.7322  1.5605
14771TIP3   OH265803   2.118   0.494   2.154 -0.1716 -0.7551  0.0171
14771TIP3    H165804   2.089   0.417   2.203  1.6809 -1.3265  0.2886
14771TIP3    H265805   2.078   0.484   2.068 -1.8354 -0.7873  0.7648
14772TIP3   OH265806   3.992   0.430   0.615 -0.1223  0.1751 -0.2439
14772TIP3    H165807   3.946   0.349   0.593 -1.3367  0.5038  0.9578
14772TIP3    H265808   3.999   0.477   0.532 -0.1815 -0.7654 -0.7943
14773TIP3   OH265809   5.078   6.267   3.700  0.0488 -0.2861 -0.3202
14773TIP3    H165810   4.988   6.281   3.671 -0.0184 -0.5542 -0.2441
14773TIP3    H265811   5.069   6.234   3.789  0.2534  0.5059  0.0045
14774TIP3   OH265812   2.679   4.057   1.416 -0.2082 -0.0238 -0.5658
14774TIP3    H165813   2.754   4.003   1.392  0.6824  0.3204  1.2791
14774TIP3    H265814   2.706   4.147   1.397  0.2477  0.1883  0.9784
14775TIP3   OH265815   2.921   0.883   2.785 -0.2264 -0.0502  0.1303
14775TIP3    H165816   3.008   0.896   2.746  0.5702 -2.7086  0.8201
14775TIP3    H265817   2.867   0.850   2.712 -0.0986 -0.2920  0.1432
14776TIP3   OH265818   3.684   3.448   4.012  0.2715  0.1870 -0.7046
14776TIP3    H165819   3.757   3.425   3.954  0.0313  0.4824 -1.1361
14776TIP3    H265820   3.687   3.383   4.082  1.6956  0.9018 -0.0500
14777TIP3   OH265821   5.811   5.745  13.735  0.2118 -0.5761 -0.4714
14777TIP3    H165822   5.822   5.766  13.828 -2.3949  0.5120 -0.2975
14777TIP3    H265823   5.751   5.813  13.703 -0.7529 -2.2398 -2.3973
14778TIP3   OH265824   1.186   5.078  15.512  0.1506  0.2142  0.6111
14778TIP3    H165825   1.123   5.027  15.461 -3.2635  1.6771  3.0359
14778TIP3    H265826   1.194   5.161  15.464 -0.3905  0.3091  0.6805
14779TIP3   OH265827   3.685   5.563   2.699  0.9198 -0.3693 -0.3653
14779TIP3    H165828   3.706   5.479   2.659  1.2805 -0.6699  0.4249
14779TIP3    H265829   3.614   5.543   2.760 -0.1815  0.2345 -1.4280
14780TIP3   OH265830   5.233   5.559  13.625 -0.0593  0.0886 -0.0385
14780TIP3    H165831   5.272   5.490  13.678  0.3623  0.4532  0.1331
14780TIP3    H265832   5.139   5.549  13.639 -0.0016 -0.4200  0.0196
14781TIP3   OH265833   4.103   4.915   2.784 -0.2148  0.9789  0.5601
14781TIP3    H165834   4.144   4.845   2.836  1.6045  0.9866 -0.7818
14781TIP3    H265835   4.010   4.892   2.784  0.2987 -1.4512  0.2022
14782TIP3   OH265836   4.165   4.957  15.655 -0.2905  0.1212  0.0266
14782TIP3    H165837   4.191   4.866  15.666 -0.3137  0.0685 -0.3499
14782TIP3    H265838   4.239   4.998  15.611 -0.1811  0.3407  0.4075
14783TIP3   OH265839   0.798   6.848  14.142 -0.4190  0.0976 -0.7226
14783TIP3    H165840   0.806   6.804  14.057  0.4138  0.0017 -0.5951
14783TIP3    H265841   0.860   6.920  14.137  0.9493 -0.9527  0.4697
14784TIP3   OH265842   4.735   1.861   4.157 -0.5043  0.1773  0.1970
14784TIP3    H165843   4.669   1.930   4.158 -0.0170  0.6673 -0.2724
14784TIP3    H265844   4.812   1.903   4.118  0.1001 -0.3611  0.7960
14785TIP3   OH265845   3.116   6.101   6.153 -0.4329  0.2812 -0.0219
14785TIP3    H165846   3.032   6.061   6.176 -2.2037  2.0125 -2.8305
14785TIP3    H265847   3.167   6.031   6.113 -1.5362 -0.2810 -0.4851
14786TIP3   OH265848   5.106   5.893   2.694  0.4322  0.2140  0.5220
14786TIP3    H165849   5.034   5.940   2.653  0.4487  0.5941  0.9273
14786TIP3    H265850   5.100   5.915   2.786  2.4852  2.1938  0.2668
14787TIP3   OH265851   4.359   1.527  11.962  0.5616  0.7158  0.0724
14787TIP3    H165852   4.301   1.573  12.022 -0.7551  0.2809 -0.8346
14787TIP3    H265853   4.306   1.509  11.885  1.8712  0.2050 -0.7582
14788TIP3   OH265854   6.256   2.650   3.198  0.2179  0.4497 -0.2946
14788TIP3    H165855   6.212   2.730   3.225 -1.2741  0.3751 -2.2379
14788TIP3    H265856   6.185   2.590   3.175  1.3062 -0.5032 -1.3606
14789TIP3   OH265857   0.897   5.975  13.429 -0.3048 -0.1992 -0.5673
14789TIP3    H165858   0.970   5.915  13.444 -0.6430 -0.1968  1.2710
14789TIP3    H265859   0.851   5.938  13.353 -0.7229 -2.5318  0.7303
14790TIP3   OH265860   1.801   6.435  14.355  0.2321 -0.3837 -0.1068
14790TIP3    H165861   1.852   6.432  14.436 -2.6138  0.2583  1.8646
14790TIP3    H265862   1.816   6.523  14.321 -1.5235  0.8342  1.9713
14791TIP3   OH265863   5.821   1.312   0.168 -0.0104  0.1630  0.1147
14791TIP3    H165864   5.869   1.229   0.166 -1.7574 -0.9145  0.1738
14791TIP3    H265865   5.884   1.378   0.138  1.1421 -1.3348 -0.8831
14792TIP3   OH265866   4.600   6.633   3.554  0.3571  0.1395 -0.3496
14792TIP3    H165867   4.670   6.573   3.529  0.2690 -1.0691  2.0933
14792TIP3    H265868   4.645   6.716   3.573  1.0784 -0.4876  0.7341
14793TIP3   OH265869   6.831   5.617  12.189  0.2251  0.4989  0.4856
14793TIP3    H165870   6.803   5.553  12.124  2.0244  0.3018 -0.1642
14793TIP3    H265871   6.927   5.613  12.187  0.3759  2.4594  1.1735
14794TIP3   OH265872   5.603   1.830   6.044  0.4692  0.1221 -0.0489
14794TIP3    H165873   5.530   1.839   6.104 -1.0930 -0.6649 -1.7412
14794TIP3    H265874   5.662   1.767   6.086 -0.9538 -0.9891  0.3408
14795TIP3   OH265875   4.787   4.017  11.808 -0.2687  0.2975  0.4932
14795TIP3    H165876   4.814   3.962  11.734 -0.5900 -0.4169  0.8940
14795TIP3    H265877   4.803   4.106  11.779 -0.0923  0.0084 -0.3196
14796TIP3   OH265878   2.386   1.164  16.743  0.3210  0.0117  0.2875
14796TIP3    H165879   2.465   1.197  16.702  0.0745  1.7588  1.1329
14796TIP3    H265880   2.324   1.152  16.670  1.1088 -0.6866 -0.2844
14797TIP3   OH265881   1.153   4.362   5.039  0.2729  0.0601 -0.6832
14797TIP3    H165882   1.063   4.379   5.009  0.1567  0.2038 -0.2501
14797TIP3    H265883   1.207   4.411   4.977 -0.0299  1.4803  0.1374
14798TIP3   OH265884   3.126   3.902  12.336 -0.2146  0.1248  0.0108
14798TIP3    H165885   3.198   3.963  12.354  1.8320 -1.4995 -2.0599
14798TIP3    H265886   3.113   3.909  12.242 -2.4461 -0.0585  0.2639
14799TIP3   OH265887   2.126   5.136   1.902 -0.6581 -0.0518  0.2842
14799TIP3    H165888   2.060   5.139   1.971 -0.4388  1.1090  0.4684
14799TIP3    H265889   2.167   5.050   1.911 -1.7319 -0.5599  0.5424
14800TIP3   OH265890   2.992   6.633   0.673  0.1931  0.2358 -0.4270
14800TIP3    H165891   3.033   6.554   0.637 -1.0230 -0.5847 -0.0882
14800TIP3    H265892   3.010   6.701   0.608  3.0764  0.2474  0.2675
14801TIP3   OH265893   6.540   5.671   5.233 -0.0091  0.3903  0.0772
14801TIP3    H165894   6.472   5.738   5.223  0.7638  1.3185  0.8540
14801TIP3    H265895   6.579   5.664   5.146 -0.3254  0.6978 -0.0942
14802TIP3   OH265896   1.482   0.438  14.894  0.2061 -0.1082 -0.0190
14802TIP3    H165897   1.499   0.429  14.800  0.6397 -0.2917  0.0735
14802TIP3    H265898   1.453   0.351  14.921  1.1244 -0.3482  0.2225
14803TIP3   OH265899   0.160   1.827  12.331 -0.4135  0.1870 -0.1062
14803TIP3    H165900   0.085   1.778  12.297  0.2999 -0.2199 -1.1673
14803TIP3    H265901   0.171   1.795  12.420  0.0048 -1.6171 -0.7536
14804TIP3   OH265902   0.780   3.927  11.910 -0.0501 -0.1913 -0.2441
14804TIP3    H165903   0.857   3.944  11.857  0.3466  2.2005  0.9549
14804TIP3    H265904   0.754   4.013  11.943 -1.6405 -1.2714  1.5489
14805TIP3   OH265905   4.394   3.474   0.545  0.0851 -0.1598 -0.1748
14805TIP3    H165906   4.470   3.484   0.487  0.5254  2.2061  0.7057
14805TIP3    H265907   4.424   3.505   0.630 -1.4421 -0.6278  0.5708
14806TIP3   OH265908   5.823   3.883  14.467  0.1617 -0.0986  0.2884
14806TIP3    H165909   5.897   3.944  14.467 -1.2062  1.6617 -0.9830
14806TIP3    H265910   5.862   3.798  14.446  1.9209  0.6078  0.5220
14807TIP3   OH265911   1.523   3.451  14.952 -0.3874  0.0039 -0.2051
14807TIP3    H165912   1.514   3.411  15.039 -1.6237  0.5724 -0.0480
14807TIP3    H265913   1.605   3.499  14.956 -0.7694  0.5913  0.8921
14808TIP3   OH265914   5.506   2.340   4.695 -0.2935  0.3335  0.5074
14808TIP3    H165915   5.433   2.280   4.710  1.0651 -1.2234  1.2806
14808TIP3    H265916   5.584   2.287   4.714  1.0202  2.0207  0.0198
14809TIP3   OH265917   0.629   6.187   5.061  0.7720 -0.0029 -0.5312
14809TIP3    H165918   0.696   6.121   5.077  1.7298  0.8366 -0.9626
14809TIP3    H265919   0.590   6.163   4.978 -0.5392 -1.3533  0.4258
14810TIP3   OH265920   2.109   3.427  16.157  0.0096  1.0391 -0.0712
14810TIP3    H165921   2.173   3.361  16.129  0.0900  1.3554 -0.6618
14810TIP3    H265922   2.108   3.421  16.252  1.4028  1.4547  0.0027
14811TIP3   OH265923   5.193   4.294   3.350  0.0692 -0.4015  0.4590
14811TIP3    H165924   5.219   4.381   3.380  0.2947 -0.3648  0.1738
14811TIP3    H265925   5.188   4.241   3.429  0.9305 -0.3782  0.5389
14812TIP3   OH265926   1.683   0.049  15.956 -0.2533  0.5731 -0.4187
14812TIP3    H165927   1.704  -0.032  16.001  0.8705  0.8472 -0.4201
14812TIP3    H265928   1.688   0.028  15.863 -1.6997  0.2246 -0.4319
14813TIP3   OH265929   5.050   3.594   0.127  0.0114  0.6837 -0.3805
14813TIP3    H165930   4.997   3.671   0.145  1.3993  1.7257 -0.5477
14813TIP3    H265931   5.114   3.624   0.062  0.6631 -0.5730 -0.3553
14814TIP3   OH265932   2.195   4.105  16.107  0.2598 -0.3155  0.2013
14814TIP3    H165933   2.210   4.119  16.200  1.0979  1.6935 -0.1846
14814TIP3    H265934   2.185   4.193  16.071  1.5450 -0.9449 -1.8599
14815TIP3   OH265935   1.405   4.563  15.029 -0.2658 -0.7390  0.4007
14815TIP3    H165936   1.464   4.561  15.105 -1.7751 -0.8643  1.6183
14815TIP3    H265937   1.386   4.471  15.011  0.1915 -0.7168 -0.2427
14816TIP3   OH265938   6.370   2.715  11.543  0.0098 -0.1225 -0.2091
14816TIP3    H165939   6.464   2.736  11.546  0.5380 -1.9977 -1.5012
14816TIP3    H265940   6.332   2.781  11.485  0.5971  0.4629  0.0680
14817TIP3   OH265941   0.526   0.612   3.159  0.5116 -0.3224  0.6003
14817TIP3    H165942   0.556   0.664   3.085  0.7080 -0.8332  0.3130
14817TIP3    H265943   0.596   0.619   3.224  0.3771  0.0579  0.7052
14818TIP3   OH265944   6.380   1.070  11.277  0.2330  0.0255 -0.2607
14818TIP3    H165945   6.473   1.056  11.297  0.5591  0.5036 -1.3609
14818TIP3    H265946   6.380   1.107  11.189 -1.0517 -0.8592 -0.6659
14819TIP3   OH265947   1.125   6.182   2.254 -0.1986  0.0562 -0.1008
14819TIP3    H165948   1.108   6.088   2.252 -2.6102  0.4037  0.8942
14819TIP3    H265949   1.070   6.218   2.184 -1.6558  0.9881  1.4547
14820TIP3   OH265950   1.052   1.353   0.428  0.1790 -0.1798  0.0590
14820TIP3    H165951   1.042   1.448   0.433  0.6304 -0.1248 -0.0419
14820TIP3    H265952   1.144   1.340   0.402  0.5367 -0.6736  1.5122
14821TIP3   OH265953   0.938   2.636  10.407  0.6033 -0.1682  0.1256
14821TIP3    H165954   0.893   2.669  10.485  1.1585 -0.0047  0.3792
14821TIP3    H265955   0.888   2.673  10.334 -1.7086 -2.6295  0.3043
14822TIP3   OH265956   1.318   5.941   1.302 -0.8226  0.0688  0.1229
14822TIP3    H165957   1.249   5.880   1.276 -0.3376  0.0850 -1.2738
14822TIP3    H265958   1.276   6.027   1.298 -1.1403 -0.0441  0.8131
14823TIP3   OH265959   2.370   5.359  16.494  0.4044 -0.1815 -0.4816
14823TIP3    H165960   2.279   5.332  16.480  0.3842  0.0472 -0.8051
14823TIP3    H265961   2.368   5.406  16.577  0.3688 -0.8298 -0.1011
14824TIP3   OH265962   6.812   4.238  12.225 -0.3885  0.1045 -0.2796
14824TIP3    H165963   6.794   4.144  12.222 -0.7230  0.0412  2.0286
14824TIP3    H265964   6.808   4.266  12.133  0.4307 -2.2284 -1.1095
14825TIP3   OH265965   3.914   4.034  12.714 -0.5868  1.0559  0.1504
14825TIP3    H165966   3.975   4.008  12.783 -0.4999 -0.8960 -0.5940
14825TIP3    H265967   3.833   4.054  12.760 -0.1921  0.9068  0.9233
14826TIP3   OH265968   6.253   4.669  11.214 -0.0769 -0.0197 -0.0677
14826TIP3    H165969   6.305   4.673  11.133 -0.1131  0.7229 -0.0648
14826TIP3    H265970   6.276   4.585  11.253 -0.2342 -0.4910 -0.9693
14827TIP3   OH265971   5.656   4.122  11.712  0.0546  0.5132  0.1747
14827TIP3    H165972   5.666   4.137  11.805 -2.1955 -0.4331  0.6260
14827TIP3    H265973   5.608   4.198  11.679 -0.5412  0.1171  0.1095
14828TIP3   OH265974   0.466   0.079   1.867 -0.5329  0.3361  0.3192
14828TIP3    H165975   0.378   0.090   1.903 -1.3202 -0.8607 -1.1219
14828TIP3    H265976   0.457   0.103   1.775  0.7835  0.6829  0.2618
14829TIP3   OH265977   2.236   0.032   4.947 -0.5060  1.0219 -0.2968
14829TIP3    H165978   2.178   0.091   4.899  0.8280  2.4008 -0.3023
14829TIP3    H265979   2.310   0.087   4.973  1.3956 -0.8942 -1.3064
14830TIP3   OH265980   0.475   1.266   4.476 -0.3278 -0.1169 -0.1916
14830TIP3    H165981   0.464   1.228   4.563 -0.6248  1.1942  0.3580
14830TIP3    H265982   0.402   1.327   4.467  0.0762  0.2455 -1.1015
14831TIP3   OH265983   4.599   5.893   4.403  0.0701 -0.2633  0.5269
14831TIP3    H165984   4.693   5.876   4.396  0.1652  0.0743  0.9538
14831TIP3    H265985   4.593   5.986   4.426 -0.4012 -0.0464 -0.4498
14832TIP3   OH265986   2.307   0.766   3.279  0.1200 -0.0074  0.0436
14832TIP3    H165987   2.292   0.859   3.295 -2.1636 -0.3877  0.4255
14832TIP3    H265988   2.338   0.762   3.189 -1.4204  1.0070 -0.5600
14833TIP3   OH265989   5.298   4.721  13.518 -0.2659  0.6523 -0.0495
14833TIP3    H165990   5.232   4.777  13.477 -0.1207  1.7430  1.1269
14833TIP3    H265991   5.318   4.765  13.600  1.4246 -0.0394 -0.0597
14834TIP3   OH265992   0.719   0.458  13.613 -0.5314  0.2087  0.6974
14834TIP3    H165993   0.762   0.372  13.609 -3.2056 -1.1710 -0.8557
14834TIP3    H265994   0.784   0.518  13.576 -0.3927 -2.0668 -3.3696
14835TIP3   OH265995   6.629   0.064  15.251  0.0461  0.4071  0.4039
14835TIP3    H165996   6.540   0.050  15.282  0.3523 -0.6804  0.8273
14835TIP3    H265997   6.646   0.157  15.267 -1.8504  1.2805 -1.9627
14836TIP3   OH265998   0.343   5.479   0.250  0.3552 -0.3525 -0.2432
14836TIP3    H165999   0.405   5.525   0.194  0.5639 -1.6951 -1.1735
14836TIP3    H266000   0.258   5.516   0.227  0.7133  1.0386  0.5729
14837TIP3   OH266001   1.287   2.377  16.720 -0.7115 -0.1638 -0.2136
14837TIP3    H166002   1.224   2.369  16.649  0.5210  0.4798 -1.4220
14837TIP3    H266003   1.372   2.369  16.678  0.0457 -0.3652  1.2856
14838TIP3   OH266004   2.760   4.735  10.623 -0.2225 -0.3501  0.3417
14838TIP3    H166005   2.672   4.751  10.657 -0.2834 -0.5450  0.2730
14838TIP3    H266006   2.816   4.792  10.676 -0.3636 -0.3816  0.5286
14839TIP3   OH266007   4.291   5.388   4.359  0.1633 -0.4188 -0.5747
14839TIP3    H166008   4.350   5.462   4.364  1.1004 -1.2104  0.7468
14839TIP3    H266009   4.219   5.411   4.418  0.9378 -0.9318  0.6168
14840TIP3   OH266010   6.218   5.390  15.481 -0.3765  0.9464  0.2185
14840TIP3    H166011   6.168   5.308  15.482 -1.1224  1.3857  0.5553
14840TIP3    H266012   6.306   5.366  15.509 -0.5286  0.2259  0.0889
14841TIP3   OH266013   4.209   6.690  12.206 -0.3044 -0.3651  0.0576
14841TIP3    H166014   4.232   6.774  12.168  3.2866  0.1939  2.8932
14841TIP3    H266015   4.163   6.712  12.287  1.0869 -1.0244  1.0671
14842TIP3   OH266016   1.765   4.682  12.704  0.4834 -0.3880 -0.4975
14842TIP3    H166017   1.710   4.683  12.625 -1.9128  0.2227  1.0685
14842TIP3    H266018   1.849   4.718  12.675  0.4272 -2.1661 -3.2064
14843TIP3   OH266019   0.951   0.875   5.347  0.4233 -0.5850  0.2163
14843TIP3    H166020   0.909   0.952   5.309 -0.8674 -1.2884  0.1322
14843TIP3    H266021   1.009   0.909   5.415  0.4233  0.4880 -0.3108
14844TIP3   OH266022   5.471   1.272  12.412  0.4155 -0.4053 -0.1581
14844TIP3    H166023   5.397   1.284  12.472  0.7013 -1.8678  0.5351
14844TIP3    H266024   5.537   1.334  12.443  0.6536 -1.3020  1.2553
14845TIP3   OH266025   0.048   3.759   2.466 -0.6245  0.4235  0.1579
14845TIP3    H166026   0.038   3.684   2.524 -3.4451 -0.2618 -1.0104
14845TIP3    H266027   0.142   3.774   2.462 -0.0316 -2.2543  1.4224
14846TIP3   OH266028   6.471   4.219  15.058  0.2335 -0.0544 -0.1301
14846TIP3    H166029   6.518   4.143  15.024 -0.7288 -0.2429 -1.0960
14846TIP3    H266030   6.380   4.192  15.061  0.1277  0.3768  1.5171
14847TIP3   OH266031   2.401   6.661  13.554  0.3474  0.0194 -0.0079
14847TIP3    H166032   2.462   6.634  13.622  0.2322 -0.7406 -0.2019
14847TIP3    H266033   2.348   6.584  13.536 -0.7688  0.7030  0.2393
14848TIP3   OH266034   4.818   5.711   5.444 -0.8731 -0.1306  0.1915
14848TIP3    H166035   4.832   5.617   5.439  1.1774  0.1881 -1.6028
14848TIP3    H266036   4.752   5.730   5.377  0.0477 -0.1270 -0.7469
14849TIP3   OH266037   1.634   2.670   0.358 -0.2282 -0.0773 -0.1129
14849TIP3    H166038   1.723   2.641   0.379  0.4221  0.9069 -1.3969
14849TIP3    H266039   1.599   2.599   0.303  0.8229  0.7569 -1.9788
14850TIP3   OH266040   2.338   3.529   0.628  0.3990  0.1269  0.4296
14850TIP3    H166041   2.292   3.598   0.581  1.9563  0.9592  0.0817
14850TIP3    H266042   2.406   3.500   0.568 -1.9294 -3.8281 -0.7029
14851TIP3   OH266043   0.321   2.425   1.570  0.0283 -0.2845 -0.3813
14851TIP3    H166044   0.381   2.475   1.514 -2.2661  2.7716 -0.3897
14851TIP3    H266045   0.272   2.369   1.510 -0.3675  0.7574 -1.0529
14852TIP3   OH266046   1.937   1.517  11.950 -0.1656  0.1924 -0.3471
14852TIP3    H166047   1.962   1.548  12.037  0.2444 -0.4787 -0.2160
14852TIP3    H266048   1.918   1.596  11.900 -1.4760  0.5382  0.6665
14853TIP3   OH266049   0.354   6.626   6.518 -0.4595 -0.0124  0.1319
14853TIP3    H166050   0.339   6.535   6.545 -0.7268 -0.4173 -1.2572
14853TIP3    H266051   0.289   6.676   6.566 -0.3124 -0.5473  0.9172
14854TIP3   OH266052   3.500   5.726   4.807 -0.5335  0.7688  0.1237
14854TIP3    H166053   3.545   5.701   4.888  0.2843  2.4473  0.2492
14854TIP3    H266054   3.407   5.715   4.826 -0.2779 -2.3260  0.0316
14855TIP3   OH266055   0.094   0.971   5.521 -0.6667 -0.2238 -0.5594
14855TIP3    H166056   0.145   0.963   5.440 -0.4033 -1.4401 -0.3049
14855TIP3    H266057   0.078   1.064   5.531  1.4435  0.2098 -0.7171
14856TIP3   OH266058   2.919   1.031   2.083  0.2257 -0.3375 -0.4535
14856TIP3    H166059   2.988   1.078   2.129  1.5844 -1.4797 -1.2753
14856TIP3    H266060   2.913   1.073   1.998  1.0663 -1.2662 -0.9876
14857TIP3   OH266061   0.161   4.185   5.679 -0.2789  0.3292  0.3819
14857TIP3    H166062   0.173   4.268   5.633 -0.9480  0.4892  0.4951
14857TIP3    H266063   0.240   4.176   5.733  0.1596  0.5032 -0.2226
14858TIP3   OH266064   0.924   6.384   4.236  0.0255  0.1846  0.2422
14858TIP3    H166065   0.945   6.432   4.156 -1.1737  0.7329  0.2375
14858TIP3    H266066   0.933   6.292   4.212  0.9574  0.3548 -0.1410
14859TIP3   OH266067   6.693   4.531  14.762 -0.3396  0.5968 -0.7850
14859TIP3    H166068   6.664   4.475  14.691  1.3895 -0.1280 -0.9877
14859TIP3    H266069   6.689   4.476  14.840  1.8698 -0.0761 -1.0687
14860TIP3   OH266070   6.581   0.440   3.892 -0.3487 -0.2545 -0.0195
14860TIP3    H166071   6.597   0.357   3.845 -0.2045 -1.8763  2.6598
14860TIP3    H266072   6.496   0.470   3.860  0.7903  0.1073 -3.0431
14861TIP3   OH266073   0.126   1.443  13.666  0.6708 -0.3066  0.6852
14861TIP3    H166074   0.058   1.490  13.618  0.5480 -2.4335 -1.3863
14861TIP3    H266075   0.112   1.469  13.757 -1.9364  0.5056  0.1528
14862TIP3   OH266076   6.625   0.946  11.983 -0.0203 -0.2578  0.6377
14862TIP3    H166077   6.663   0.934  12.070 -1.0066 -1.0890  0.9753
14862TIP3    H266078   6.677   0.890  11.925  0.8509  0.5538  0.6134
14863TIP3   OH266079   3.323   3.428   5.654 -0.2826 -0.2121 -0.0386
14863TIP3    H166080   3.376   3.500   5.687 -0.0457 -0.5023  0.2247
14863TIP3    H266081   3.246   3.426   5.712 -0.4009 -0.0264 -0.1889
14864TIP3   OH266082   2.912   6.469   3.959  0.4237  0.7207 -0.3050
14864TIP3    H166083   2.903   6.486   3.865 -0.5177  0.4582 -0.2687
14864TIP3    H266084   2.829   6.497   3.997  0.9997  1.3461  0.5350
14865TIP3   OH266085   3.238   2.206  11.853  0.3133  0.3170  0.3885
14865TIP3    H166086   3.241   2.210  11.949  0.2118  0.0684  0.4023
14865TIP3    H266087   3.313   2.258  11.824 -0.4072  1.5010  0.5815
14866TIP3   OH266088   6.745   3.377  14.557 -0.0934 -0.6135 -0.2338
14866TIP3    H166089   6.778   3.418  14.637  1.1982 -3.5730  0.8932
14866TIP3    H266090   6.822   3.337  14.516 -0.6958  0.9109 -3.1288
14867TIP3   OH266091   5.455   1.520   3.248  0.2361 -0.3062  0.3538
14867TIP3    H166092   5.546   1.534   3.275  0.2700 -2.0475  1.2934
14867TIP3    H266093   5.459   1.514   3.153  0.5025  3.3329  0.0021
14868TIP3   OH266094   2.219   5.189   5.864 -0.5735 -0.4512 -0.0350
14868TIP3    H166095   2.304   5.225   5.840 -0.7988  0.3701  0.3655
14868TIP3    H266096   2.228   5.095   5.853 -0.5111 -0.1913 -2.8701
14869TIP3   OH266097   2.987   5.897  13.550 -0.5063  0.3321  0.0137
14869TIP3    H166098   2.978   5.891  13.455  0.6974 -0.0871 -0.1032
14869TIP3    H266099   3.040   5.976  13.564  0.6452 -0.4338  0.1989
14870TIP3   OH266100   5.560   1.268   0.020 -0.4489 -1.1661 -0.2957
14870TIP3    H166101   5.533   1.290   0.109 -1.1815  0.4980 -0.8955
14870TIP3    H266102   5.655   1.259   0.025 -0.5325 -1.6184  0.7344
14871TIP3   OH266103   2.309   4.733  14.684  0.0423  0.5712 -0.1218
14871TIP3    H166104   2.386   4.691  14.723  0.1624  1.4932  0.6766
14871TIP3    H266105   2.314   4.712  14.591  0.5328 -0.4893  0.1355
14872TIP3   OH266106   2.718   3.475   2.171 -0.0131  0.3855 -0.3186
14872TIP3    H166107   2.695   3.403   2.230  2.3977  0.6562  1.0877
14872TIP3    H266108   2.736   3.432   2.087  1.1036 -0.6666  0.4211
14873TIP3   OH266109   5.759   2.498  13.618  0.4669 -1.1982 -0.5578
14873TIP3    H166110   5.690   2.431  13.615 -0.9620 -0.2607  3.8734
14873TIP3    H266111   5.714   2.580  13.602  0.8018 -0.7303  0.7418
14874TIP3   OH266112   4.329   3.057  13.532 -0.2993 -0.5029  0.5702
14874TIP3    H166113   4.257   3.119  13.522 -0.0555 -0.4018 -0.6994
14874TIP3    H266114   4.289   2.971  13.518  0.1375 -0.3347 -2.2544
14875TIP3   OH266115   1.336   4.624   3.885 -0.1013 -0.3324 -0.5561
14875TIP3    H166116   1.377   4.709   3.901 -1.4409  0.1417  0.6766
14875TIP3    H266117   1.391   4.582   3.819  0.3780  1.6398 -1.4870
14876TIP3   OH266118   3.929   4.318  11.950  0.2199  0.0481 -0.1336
14876TIP3    H166119   3.910   4.308  12.043 -1.0881  0.3657 -0.3477
14876TIP3    H266120   3.953   4.230  11.920  0.7146 -0.0405  0.5024
14877TIP3   OH266121   2.904   5.472  10.839  0.0588  0.0531  0.1485
14877TIP3    H166122   2.867   5.391  10.803 -0.9915  0.9322 -0.8194
14877TIP3    H266123   2.904   5.533  10.765  1.7547  0.6620  0.6117
14878TIP3   OH266124   3.680   3.376  13.074 -0.6189 -0.0198 -0.1434
14878TIP3    H166125   3.753   3.333  13.030 -0.1230 -0.1759  0.7948
14878TIP3    H266126   3.610   3.310  13.075 -0.4999 -0.1510 -0.3445
14879TIP3   OH266127   0.466   3.556   2.838 -0.6750  0.6913 -0.0884
14879TIP3    H166128   0.555   3.531   2.813 -0.2058  0.0883  2.0248
14879TIP3    H266129   0.476   3.640   2.882 -1.3080  1.1457 -0.7961
14880TIP3   OH266130   0.420   5.734  14.100 -0.4979  0.8287  0.2534
14880TIP3    H166131   0.489   5.669  14.116 -1.6056 -0.1613  1.1754
14880TIP3    H266132   0.447   5.778  14.019 -0.2532 -1.5557 -1.0691
14881TIP3   OH266133   1.328   0.157   3.151 -0.1686  0.4140 -0.0578
14881TIP3    H166134   1.321   0.076   3.100 -0.5608  0.0673  0.5391
14881TIP3    H266135   1.421   0.177   3.152 -0.2451  1.0157 -1.8238
14882TIP3   OH266136   2.071   3.667   4.400  0.2541 -0.3245 -0.8912
14882TIP3    H166137   1.985   3.634   4.424  0.1122  1.6137  1.7005
14882TIP3    H266138   2.065   3.761   4.415  3.0493 -0.2315  0.2367
14883TIP3   OH266139   3.161   0.150   5.815  0.3602  0.2852  0.0731
14883TIP3    H166140   3.196   0.078   5.867  1.3050  0.9809  0.4296
14883TIP3    H266141   3.066   0.134   5.813  0.0275  1.0601  3.3377
14884TIP3   OH266142   0.786   1.090   4.261  0.2862 -0.2668 -0.0291
14884TIP3    H166143   0.779   1.183   4.285 -0.7570 -0.6211  1.1447
14884TIP3    H266144   0.696   1.059   4.257  0.5885 -2.1585  3.6537
14885TIP3   OH266145   1.058   1.403   1.803 -0.3136  0.2065 -0.0693
14885TIP3    H166146   1.059   1.319   1.757 -0.5007  0.6683 -0.9517
14885TIP3    H266147   1.041   1.467   1.734  0.5909  1.0500  0.4659
14886TIP3   OH266148   0.540   4.137   6.069  0.0759  0.3357 -0.4587
14886TIP3    H166149   0.517   4.204   6.132  0.2197 -0.7546  0.7953
14886TIP3    H266150   0.473   4.069   6.079  1.4836 -0.9980  0.3455
14887TIP3   OH266151   2.268   2.980  12.631  0.6451 -0.2016  0.2548
14887TIP3    H166152   2.262   2.885  12.623  0.5062 -0.1956  0.2923
14887TIP3    H266153   2.313   2.995  12.714 -1.1831 -0.1990  1.2895
14888TIP3   OH266154   3.135   3.765  16.519 -0.6506 -0.0970 -0.2743
14888TIP3    H166155   3.222   3.776  16.559 -0.8933  1.1359 -0.0502
14888TIP3    H266156   3.078   3.823  16.569 -1.2365  0.4800 -1.5800
14889TIP3   OH266157   5.649   1.588   0.978  0.3862 -0.2736  0.2040
14889TIP3    H166158   5.607   1.539   0.907  0.5685 -0.4320  0.2051
14889TIP3    H266159   5.676   1.521   1.041  2.1196 -0.3487 -0.5630
14890TIP3   OH266160   2.493   0.937   5.209 -0.1357  0.5316  0.3324
14890TIP3    H166161   2.538   0.959   5.128  0.3422 -1.5549 -0.0420
14890TIP3    H266162   2.546   0.867   5.247 -0.4748  1.2955  2.3533
14891TIP3   OH266163   3.435   3.656  15.016  0.4512  0.2514 -0.0555
14891TIP3    H166164   3.458   3.700  15.098  1.4086  0.1096 -0.2452
14891TIP3    H266165   3.517   3.649  14.968  0.3282 -1.7719 -0.0391
14892TIP3   OH266166   1.087   2.935  11.767 -0.1715  0.1603  0.6155
14892TIP3    H166167   1.002   2.909  11.731  0.2216 -1.9414  1.0864
14892TIP3    H266168   1.071   2.947  11.861  0.0838 -0.5836  0.7671
14893TIP3   OH266169   4.551   1.001  12.984  0.8480  0.3207  0.0426
14893TIP3    H166170   4.466   1.020  12.945  0.7875 -0.1575 -0.0690
14893TIP3    H266171   4.567   1.074  13.044 -0.1643 -0.1304  0.9082
14894TIP3   OH266172   2.815   0.826  13.715  0.0417  0.5307 -0.0411
14894TIP3    H166173   2.835   0.733  13.718  0.6484  0.6335 -0.4613
14894TIP3    H266174   2.901   0.869  13.713 -0.1970  1.1840  1.7395
14895TIP3   OH266175   2.069   2.893  14.910 -0.2777 -0.5810 -0.4803
14895TIP3    H166176   1.983   2.887  14.953 -0.1867  0.8458 -0.0755
14895TIP3    H266177   2.049   2.921  14.821 -0.3058 -1.4120 -0.7441
14896TIP3   OH266178   4.345   1.689   4.335  0.4797  0.1532  0.2755
14896TIP3    H166179   4.326   1.645   4.418  0.3948  1.0927  0.7649
14896TIP3    H266180   4.292   1.642   4.271  0.3236 -0.3975  0.7958
14897TIP3   OH266181   6.270   5.774  14.574  0.3808  0.7384 -0.2739
14897TIP3    H166182   6.335   5.788  14.505  0.3237  0.6923 -0.3372
14897TIP3    H266183   6.322   5.752  14.651  0.4111 -0.0994 -0.5166
14898TIP3   OH266184   5.996   1.557  16.783 -0.2749 -0.1537 -0.0126
14898TIP3    H166185   5.997   1.650  16.807  1.4484 -0.1142 -0.1306
14898TIP3    H266186   5.926   1.550  16.718 -0.4799  1.0451  0.0556
14899TIP3   OH266187   0.214   5.648  15.549 -0.3975 -0.1978 -0.5839
14899TIP3    H166188   0.235   5.638  15.642 -1.3014  0.2941 -0.3173
14899TIP3    H266189   0.205   5.742  15.536  0.3218 -0.2146 -1.3238
14900TIP3   OH266190   2.070   0.649  13.176 -0.8800 -0.1731  0.3398
14900TIP3    H166191   2.110   0.711  13.114 -3.0531  1.4668  0.4696
14900TIP3    H266192   2.027   0.585  13.121 -3.7993  1.9247 -0.0336
14901TIP3   OH266193   0.239   2.613  11.467 -0.3617  0.3744 -0.4160
14901TIP3    H166194   0.153   2.585  11.436 -0.5722 -2.5694  2.3574
14901TIP3    H266195   0.250   2.570  11.552  4.7734 -1.2281 -1.5282
14902TIP3   OH266196   3.283   1.902   4.302  0.1412  0.2320 -0.5576
14902TIP3    H166197   3.288   1.848   4.381 -1.3441 -1.0693 -1.2972
14902TIP3    H266198   3.199   1.947   4.309  0.2717  0.5674 -1.1083
14903TIP3   OH266199   5.761   3.945   0.604 -0.5574  0.2382  0.2696
14903TIP3    H166200   5.673   3.907   0.595 -0.2910 -0.5049  0.7421
14903TIP3    H266201   5.820   3.878   0.569  0.0282 -0.3797  2.3027
14904TIP3   OH266202   0.102   0.472  16.718  0.3063  0.4147  0.3747
14904TIP3    H166203   0.062   0.401  16.667 -0.4340  1.1951 -0.1505
14904TIP3    H266204   0.111   0.544  16.655  1.1921  0.7425  0.8620
14905TIP3   OH266205   5.815   6.771   4.453  0.3856  0.0809  0.1059
14905TIP3    H166206   5.767   6.774   4.535 -0.7311 -1.2673 -0.4610
14905TIP3    H266207   5.893   6.826   4.468  0.7906 -1.0312  2.4116
14906TIP3   OH266208   1.062   1.307   2.899  0.3616 -0.1913  0.4281
14906TIP3    H166209   1.110   1.390   2.899  1.3063 -0.7042 -0.8422
14906TIP3    H266210   0.978   1.328   2.858  0.1879  0.3399  1.0421
14907TIP3   OH266211   2.851   3.544   1.402 -0.1339 -0.0551 -0.0082
14907TIP3    H166212   2.889   3.456   1.412 -0.6582 -0.2839  0.0310
14907TIP3    H266213   2.912   3.591   1.345  0.4417 -0.2670  0.4276
14908TIP3   OH266214   5.684   0.181   2.638  0.5066 -0.4252 -0.1943
14908TIP3    H166215   5.602   0.229   2.626  1.2506  1.3084  1.1680
14908TIP3    H266216   5.718   0.170   2.549  0.0400  1.1586 -0.6047
14909TIP3   OH266217   0.935   3.855  12.774  0.3554 -0.3506 -0.0438
14909TIP3    H166218   0.913   3.763  12.785  1.4697 -1.0329 -2.6822
14909TIP3    H266219   0.999   3.874  12.842  0.6580 -1.7310  0.0720
14910TIP3   OH266220   5.732   3.204   2.880  0.3155  0.2747 -0.6199
14910TIP3    H166221   5.778   3.159   2.952 -0.7588 -0.7144 -0.5264
14910TIP3    H266222   5.687   3.134   2.833 -2.6164  1.3778  0.3706
14911TIP3   OH266223   3.047   0.569   4.484 -0.5960  0.5390  0.4191
14911TIP3    H166224   3.120   0.546   4.425 -0.7632 -0.2520  0.5097
14911TIP3    H266225   3.022   0.657   4.457 -0.8642  0.0883 -0.9163
14912TIP3   OH266226   5.528   3.714   2.735  0.5009 -0.2824  0.5416
14912TIP3    H166227   5.542   3.772   2.660  0.8943 -0.5878  0.3750
14912TIP3    H266228   5.434   3.700   2.738  0.6036 -1.3343 -0.6981
14913TIP3   OH266229   0.080   1.724  16.186 -0.1877 -0.0847  0.1264
14913TIP3    H166230   0.170   1.739  16.217 -0.9490  1.2262  1.8361
14913TIP3    H266231   0.057   1.805  16.141 -0.7565 -0.1550  0.2949
14914TIP3   OH266232   6.332   2.691  15.656  0.0875 -0.0756  0.2740
14914TIP3    H166233   6.362   2.632  15.725  1.0009  0.2344  0.1587
14914TIP3    H266234   6.343   2.642  15.575 -0.6049 -0.2905  0.2970
14915TIP3   OH266235   1.828   2.917   2.822 -0.4927  0.2514  0.2072
14915TIP3    H166236   1.908   2.963   2.848 -1.4392  1.0055  2.0026
14915TIP3    H266237   1.799   2.873   2.902 -2.0523  0.2919 -0.3046
14916TIP3   OH266238   2.527   2.026  13.316  0.4048 -0.1634  0.6697
14916TIP3    H166239   2.565   1.939  13.314  3.1033  0.9367  0.6331
14916TIP3    H266240   2.482   2.031  13.401 -1.2532 -2.0734 -0.0132
14917TIP3   OH266241   3.941   3.377  16.063  0.2660  0.2179 -0.1529
14917TIP3    H166242   3.888   3.304  16.032  1.2161 -0.9802  0.9413
14917TIP3    H266243   4.029   3.340  16.074  0.5432  1.2463  1.3740
14918TIP3   OH266244   2.993   4.373   5.749  0.0455  0.4226  0.3531
14918TIP3    H166245   3.046   4.293   5.749 -1.0934 -0.3615 -0.4700
14918TIP3    H266246   3.031   4.427   5.680 -0.3378 -0.2297 -0.3819
14919TIP3   OH266247   0.811   6.437   3.061 -0.1596  0.0036  0.5227
14919TIP3    H166248   0.866   6.451   3.139  0.7497  1.7750 -0.3599
14919TIP3    H266249   0.809   6.342   3.049  1.6807 -0.1808  1.3507
14920TIP3   OH266250   2.442   4.155   4.729  0.0486  0.0361  0.3293
14920TIP3    H166251   2.385   4.217   4.775  0.4172 -1.5434  3.1541
14920TIP3    H266252   2.382   4.090   4.692 -0.2104  0.8935 -0.7954
14921TIP3   OH266253   5.357   2.720   1.984 -0.0818  0.0888 -0.0328
14921TIP3    H166254   5.416   2.765   2.044 -0.3457  0.7266 -0.2460
14921TIP3    H266255   5.270   2.756   2.004 -0.1920  0.1902 -0.6834
14922TIP3   OH266256   1.425   5.056  10.325 -0.2729  0.5269  0.1704
14922TIP3    H166257   1.380   5.008  10.256  0.1992  0.3590 -0.0245
14922TIP3    H266258   1.383   5.026  10.406  1.2149 -1.6481  0.2274
14923TIP3   OH266259   3.039   5.591   4.304 -0.5721 -0.3114 -0.2338
14923TIP3    H166260   3.070   5.572   4.215  1.2427 -0.8844  0.4919
14923TIP3    H266261   3.022   5.685   4.303  1.0903  0.0222 -0.7362
14924TIP3   OH266262   2.895   4.823  15.925  0.1229 -1.2371 -0.2034
14924TIP3    H166263   2.899   4.915  15.899  1.6397 -0.3891  2.5356
14924TIP3    H266264   2.951   4.778  15.862 -0.5916 -0.2943 -1.5487
14925TIP3   OH266265   1.928   1.908   3.028 -0.2103  0.2807 -0.5222
14925TIP3    H166266   1.895   1.996   3.009  0.7718  0.5169 -1.2152
14925TIP3    H266267   1.956   1.874   2.943 -0.6311 -0.7270 -0.2662
14926TIP3   OH266268   3.855   3.643   4.422 -0.0273  0.3696  0.3958
14926TIP3    H166269   3.823   3.714   4.367  2.0370  2.2877  1.5013
14926TIP3    H266270   3.777   3.612   4.469 -1.6905 -0.8564 -2.9099
14927TIP3   OH266271   4.332   5.330  15.111 -0.5261 -0.5048 -0.2327
14927TIP3    H166272   4.352   5.254  15.057  0.3568 -1.2956  1.1476
14927TIP3    H266273   4.255   5.305  15.161 -0.5274 -0.3097 -0.1351
14928TIP3   OH266274   5.388   6.196   4.694  0.1180 -0.0761  0.2966
14928TIP3    H166275   5.421   6.191   4.783 -1.0881  2.1884  0.9449
14928TIP3    H266276   5.451   6.252   4.648  2.0843 -3.1511 -1.0497
14929TIP3   OH266277   2.124   2.055  16.984  0.2798 -0.2820  0.4888
14929TIP3    H166278   2.085   2.077  17.068  1.2220  1.1380  0.5813
14929TIP3    H266279   2.139   2.139  16.941  1.9577 -0.8318 -0.1011
14930TIP3   OH266280   1.816   1.656  15.075  0.3549  0.6743  0.4929
14930TIP3    H166281   1.722   1.646  15.056  0.1883 -1.7387  2.0542
14930TIP3    H266282   1.832   1.594  15.146  3.4349 -0.0494 -0.6670
14931TIP3   OH266283   2.292   2.545   5.227 -0.4945 -0.0336 -0.2062
14931TIP3    H166284   2.263   2.521   5.316 -0.5105 -0.9166 -0.4406
14931TIP3    H266285   2.386   2.560   5.236 -0.4076 -0.5821 -0.1173
14932TIP3   OH266286   5.074   6.725  15.941 -0.3021  0.1898 -0.1601
14932TIP3    H166287   5.011   6.656  15.964  0.2731 -0.5385 -0.7448
14932TIP3    H266288   5.036   6.805  15.979 -0.7241 -0.5239  0.9761
14933TIP3   OH266289   2.522   3.979  13.373 -0.1709 -0.1882 -0.6666
14933TIP3    H166290   2.576   4.037  13.427  1.7789 -1.1608 -1.5022
14933TIP3    H266291   2.451   4.036  13.341  1.1676  1.5210 -0.7323
14934TIP3   OH266292   2.898   3.165  14.940 -0.1605  0.4118  0.3024
14934TIP3    H166293   2.943   3.240  14.902 -1.0380  1.7909  1.8232
14934TIP3    H266294   2.934   3.158  15.028 -1.6858  0.5084  0.9736
14935TIP3   OH266295   5.275   4.351  14.169 -0.1113  0.0489  0.7685
14935TIP3    H166296   5.260   4.426  14.112 -1.3816  0.5530  1.7274
14935TIP3    H266297   5.331   4.293  14.118  1.1910  1.7822  0.1350
14936TIP3   OH266298   2.486   1.385   5.626  0.0895  0.2858  0.2806
14936TIP3    H166299   2.563   1.396   5.570 -1.3218 -1.7343 -2.2959
14936TIP3    H266300   2.426   1.455   5.598 -0.5884 -0.6835 -0.8353
14937TIP3   OH266301   3.583   2.341  13.451  0.9630  0.0939 -0.0284
14937TIP3    H166302   3.669   2.380  13.434 -0.1760  2.8888  0.2162
14937TIP3    H266303   3.532   2.359  13.372 -0.1616  0.8215  0.8270
14938TIP3   OH266304   2.243   1.171   5.344  0.3618 -0.7144  0.1858
14938TIP3    H166305   2.228   1.242   5.282  0.0847 -1.0861 -0.1805
14938TIP3    H266306   2.159   1.160   5.389  0.0174 -1.6341 -0.6406
14939TIP3   OH266307   5.454   1.900  15.291 -0.0322 -0.4352 -0.1124
14939TIP3    H166308   5.449   1.872  15.199  0.7100 -2.3419  0.3807
14939TIP3    H266309   5.548   1.909  15.308 -0.2071  1.6531  0.0180
14940TIP3   OH266310   1.506   3.026   4.666 -0.5650  0.5209  0.4880
14940TIP3    H166311   1.528   2.942   4.705  0.0860  0.5599  0.2122
14940TIP3    H266312   1.528   3.017   4.573  0.6415  1.3660  0.6612
14941TIP3   OH266313   4.342   5.531  13.005  0.2813  0.5047 -0.0168
14941TIP3    H166314   4.283   5.509  12.932  1.4314  0.2949 -0.9174
14941TIP3    H266315   4.285   5.570  13.071 -1.0605 -0.8439 -0.3248
14942TIP3   OH266316   3.744   0.156  13.358  0.6683  0.0470 -0.4642
14942TIP3    H166317   3.729   0.231  13.415  0.0582 -0.1603 -0.3484
14942TIP3    H266318   3.715   0.080  13.410 -0.9207 -0.0536 -1.4282
14943TIP3   OH266319   5.292   3.219  14.896  0.0220  0.4072  0.2353
14943TIP3    H166320   5.259   3.151  14.837 -0.3493  0.1631  0.7236
14943TIP3    H266321   5.368   3.179  14.939 -0.4810  0.1296  0.8746
14944TIP3   OH266322   6.436   6.425  17.014 -0.3326 -0.1636 -0.1561
14944TIP3    H166323   6.461   6.516  17.029  1.5021 -0.8521  1.3320
14944TIP3    H266324   6.467   6.406  16.925 -0.9817  0.7141 -0.5845
14945TIP3   OH266325   2.267   5.856   3.779  0.0175 -0.4861 -0.0365
14945TIP3    H166326   2.208   5.892   3.845 -1.1564  0.4155 -1.5154
14945TIP3    H266327   2.316   5.931   3.747 -1.1196 -0.4596 -1.8323
14946TIP3   OH266328   0.811   3.854   5.898  0.6223 -0.3468 -0.0824
14946TIP3    H166329   0.846   3.935   5.934  0.7137  0.1327 -1.2102
14946TIP3    H266330   0.746   3.825   5.962  0.7775  0.4710  0.4564
14947TIP3   OH266331   4.355   1.333  14.332  0.0486  0.1152 -0.4404
14947TIP3    H166332   4.356   1.360  14.424 -2.2335 -2.7153  0.5520
14947TIP3    H266333   4.270   1.361  14.300  0.2205 -0.2798 -1.2661
14948TIP3   OH266334   6.056   2.235  15.462 -0.1363 -0.1521  0.6051
14948TIP3    H166335   6.088   2.262  15.376 -0.1896 -1.5327  0.1228
14948TIP3    H266336   6.135   2.213  15.511 -0.1973 -1.7824  0.0353
14949TIP3   OH266337   5.939   3.347  11.076 -0.4066  0.3327 -0.2817
14949TIP3    H166338   6.010   3.342  11.139  0.2967  1.2291 -0.9722
14949TIP3    H266339   5.983   3.344  10.991 -1.3045 -0.4812 -0.7352
14950TIP3   OH266340   0.008   5.793  15.298 -0.5677  0.3174  0.5840
14950TIP3    H166341  -0.070   5.840  15.270  0.5460  1.4229 -0.8424
14950TIP3    H266342  -0.011   5.701  15.278 -0.6317  0.8198 -2.1598
14951TIP3   OH266343   5.854   1.898  16.165 -0.5093  0.3237 -0.1221
14951TIP3    H166344   5.919   1.908  16.234  0.0771  2.3252 -0.8872
14951TIP3    H266345   5.906   1.877  16.087 -0.5750  2.8934 -0.9550
14952TIP3   OH266346   2.900   5.049  14.508 -0.5622  0.3916  0.0365
14952TIP3    H166347   2.859   5.017  14.589  1.7508 -0.7008  0.8661
14952TIP3    H266348   2.967   5.110  14.538 -0.4459  0.8640 -1.1493
14953TIP3   OH266349   4.368   1.402  12.413  0.1099 -0.4857 -0.4846
14953TIP3    H166350   4.368   1.324  12.358 -2.1257 -0.3726 -0.7381
14953TIP3    H266351   4.299   1.386  12.477  1.3620  0.2215  1.0934
14954TIP3   OH266352   0.977   0.637  11.824  0.2485 -0.4581 -0.1830
14954TIP3    H166353   0.922   0.667  11.896  1.1992  0.4977  0.1694
14954TIP3    H266354   0.922   0.649  11.746  0.5973  2.4577 -0.0899
14955TIP3   OH266355   0.948   4.419   0.869  0.1386 -0.3160  0.1553
14955TIP3    H166356   0.880   4.357   0.845 -0.2566 -0.0055  0.4590
14955TIP3    H266357   1.015   4.365   0.911 -0.1625 -0.5551  0.3365
14956TIP3   OH266358   2.078   5.489   3.466  0.2060  0.2524 -0.6772
14956TIP3    H166359   2.146   5.426   3.491 -0.4881  0.0922  0.9565
14956TIP3    H266360   2.077   5.552   3.539 -1.2587  0.3591 -0.7707
14957TIP3   OH266361   0.376   3.128   6.295 -0.3972  0.1595  0.1059
14957TIP3    H166362   0.305   3.090   6.346 -1.1532 -0.0525 -1.0756
14957TIP3    H266363   0.394   3.064   6.226  1.5783 -0.2157  0.8967
14958TIP3   OH266364   5.628   0.860  14.252 -0.1217  0.8316  0.0642
14958TIP3    H166365   5.605   0.826  14.166  0.8959  0.0644  0.0752
14958TIP3    H266366   5.662   0.784  14.299 -0.8707  1.1891  1.2310
14959TIP3   OH266367   4.756   2.114   0.420 -0.0703  0.0560  0.0835
14959TIP3    H166368   4.820   2.068   0.474 -0.5129 -1.5557 -0.6923
14959TIP3    H266369   4.803   2.190   0.385  1.6133 -1.3478 -0.8662
14960TIP3   OH266370   5.306   6.490   2.770  0.0922 -0.1080 -0.2548
14960TIP3    H166371   5.258   6.529   2.843  1.2366  0.2838  0.3072
14960TIP3    H266372   5.358   6.562   2.734  1.8650 -0.9609  0.4833
14961TIP3   OH266373   4.930   3.931  16.909 -0.1793  0.0441  0.1008
14961TIP3    H166374   4.941   3.944  16.815 -0.3655  0.7483  0.1704
14961TIP3    H266375   5.017   3.908  16.941 -0.4207 -1.8527 -0.4850
14962TIP3   OH266376   3.179   0.990   0.655  0.1336 -0.0077 -0.1883
14962TIP3    H166377   3.257   0.936   0.642  0.3557 -0.1775  1.5716
14962TIP3    H266378   3.190   1.026   0.743 -2.5845 -1.4566  0.8600
14963TIP3   OH266379   1.680   2.294  12.696 -0.6029  0.4646 -0.4155
14963TIP3    H166380   1.761   2.285  12.746 -0.2260 -0.9268 -1.2407
14963TIP3    H266381   1.687   2.229  12.626 -1.9989  1.0002 -1.0938
14964TIP3   OH266382   5.723   0.428  15.943  0.3084 -0.3049  0.4515
14964TIP3    H166383   5.790   0.367  15.912  0.2678  0.4853 -1.2740
14964TIP3    H266384   5.749   0.513  15.908 -2.5491 -0.2580 -1.9760
14965TIP3   OH266385   2.372   6.240   2.453 -0.5120  0.4429 -0.0530
14965TIP3    H166386   2.300   6.178   2.437  0.3105 -0.5600  0.0385
14965TIP3    H266387   2.439   6.215   2.389  1.0050 -0.6844  1.8565
14966TIP3   OH266388   5.024   1.027  11.631  0.0230  0.0435  0.5598
14966TIP3    H166389   5.118   1.045  11.630  0.0074  0.1963  1.1954
14966TIP3    H266390   4.987   1.090  11.569  0.6065 -1.7263 -1.6842
14967TIP3   OH266391   0.757   3.160  11.950  0.4410 -0.2874 -0.0574
14967TIP3    H166392   0.803   3.079  11.926  0.6935  0.0258 -0.6256
14967TIP3    H266393   0.824   3.216  11.988  0.1927 -0.4839  0.6800
14968TIP3   OH266394   2.586   1.753   5.288  0.2850 -0.1270  0.4784
14968TIP3    H166395   2.532   1.757   5.367  0.1619  1.2428  0.3451
14968TIP3    H266396   2.669   1.794   5.314 -0.3415  1.9092 -0.5218
14969TIP3   OH266397   2.646   3.879   4.117 -0.0230  0.0604 -0.1427
14969TIP3    H166398   2.668   3.899   4.026  0.7813 -2.2858 -0.5168
14969TIP3    H266399   2.664   3.786   4.126 -1.3904 -0.0445  2.0669
14970TIP3   OH266400   2.482   4.422   3.449  0.1385 -0.1741  0.1712
14970TIP3    H166401   2.514   4.422   3.539 -0.3633  0.5249  0.3651
14970TIP3    H266402   2.394   4.461   3.455  0.2168  0.1600 -0.6552
14971TIP3   OH266403   6.626   5.343   3.632 -0.5682  0.6007  0.5230
14971TIP3    H166404   6.543   5.329   3.676  0.1177 -0.2155  1.5954
14971TIP3    H266405   6.663   5.256   3.621 -0.9681  0.6809 -2.2745
14972TIP3   OH266406   5.590   5.466  12.742 -0.2130  0.1322 -0.7444
14972TIP3    H166407   5.679   5.456  12.776 -0.5546 -4.7718 -0.6118
14972TIP3    H266408   5.536   5.472  12.820 -0.1607  3.2584 -0.8254
14973TIP3   OH266409   0.279   4.597   4.764  0.0133  0.1448  0.1225
14973TIP3    H166410   0.368   4.609   4.797 -0.1946  1.2245  0.3122
14973TIP3    H266411   0.283   4.631   4.674 -0.6700  2.1297  0.7866
14974TIP3   OH266412   6.877   2.210  16.725 -0.0806 -0.1564  0.0668
14974TIP3    H166413   6.877   2.263  16.646  2.2315 -1.2598 -0.7477
14974TIP3    H266414   6.964   2.221  16.762 -1.3111  0.8860  2.9144
14975TIP3   OH266415   2.745   5.849   4.124  0.0508 -0.5227  0.0952
14975TIP3    H166416   2.805   5.918   4.095 -1.5577  0.8567 -0.0990
14975TIP3    H266417   2.660   5.876   4.091 -0.6779 -2.5289  0.2039
14976TIP3   OH266418   4.862   5.350   5.767 -0.4904 -0.0779 -0.0674
14976TIP3    H166419   4.778   5.339   5.724 -0.0218 -2.8007 -0.5120
14976TIP3    H266420   4.851   5.305   5.851  0.7956 -1.4312 -0.5898
14977TIP3   OH266421   3.969   0.742  10.079  0.2539  0.4277 -0.0453
14977TIP3    H166422   3.970   0.832  10.046 -0.3335 -0.5227 -3.0137
14977TIP3    H266423   3.923   0.692  10.011  0.1686 -2.0592  1.6978
14978TIP3   OH266424   0.951   1.418   4.156 -0.3773  0.2376  0.6994
14978TIP3    H166425   0.956   1.342   4.098  1.3619  0.7296  0.1310
14978TIP3    H266426   1.038   1.424   4.195 -1.0411  0.8588  2.1725
14979TIP3   OH266427   3.798   2.947   1.957 -0.8489  0.1085  0.7074
14979TIP3    H166428   3.779   3.038   1.935 -0.5128 -0.2495 -1.2070
14979TIP3    H266429   3.894   2.943   1.961 -0.7936 -0.4705 -0.7658
14980TIP3   OH266430   2.433   4.879  12.344 -0.1222  0.3258 -0.6128
14980TIP3    H166431   2.437   4.940  12.418  2.8105  0.0081 -0.3815
14980TIP3    H266432   2.370   4.812  12.372 -2.6135  2.5505 -0.4483
14981TIP3   OH266433   1.918   2.805  16.755 -0.0174 -0.0713  0.4839
14981TIP3    H166434   1.936   2.722  16.710 -0.6318  1.5126 -3.0489
14981TIP3    H266435   2.004   2.845  16.765  0.0733 -0.0847 -0.1535
14982TIP3   OH266436   6.724   0.906  13.789 -0.2016  0.7498 -0.2051
14982TIP3    H166437   6.667   0.962  13.737  0.6883  1.8535 -0.0322
14982TIP3    H266438   6.666   0.840  13.826 -1.4739  2.1000  0.3209
14983TIP3   OH266439   4.498   4.827  14.863  0.2213 -0.1347  0.4406
14983TIP3    H166440   4.409   4.839  14.830  0.7060  1.2166 -0.4683
14983TIP3    H266441   4.553   4.830  14.785  1.1521  0.1562  1.0888
14984TIP3   OH266442   6.456   5.300   5.529 -0.0763 -0.1338 -0.3017
14984TIP3    H166443   6.543   5.314   5.493 -0.4631  3.1334 -0.2846
14984TIP3    H266444   6.403   5.274   5.454  0.3601  0.6255 -0.8855
14985TIP3   OH266445   3.479   0.004  11.918 -0.1324  0.0274  0.0770
14985TIP3    H166446   3.405   0.001  11.857  0.6425  0.6269 -0.9241
14985TIP3    H266447   3.556  -0.003  11.862  0.7343  3.5045  0.6552
14986TIP3   OH266448   4.292   3.032   6.182 -0.3631 -0.4947 -0.6872
14986TIP3    H166449   4.323   3.058   6.095  1.2712  0.4845  0.1335
14986TIP3    H266450   4.331   2.946   6.197 -1.0630 -0.8963 -1.0989
14987TIP3   OH266451   5.809   0.211   1.453  0.0504  0.1193 -0.5287
14987TIP3    H166452   5.762   0.151   1.509 -0.5389  1.3566  0.3546
14987TIP3    H266453   5.886   0.236   1.504  0.5860 -0.3004 -1.1174
14988TIP3   OH266454   4.171   1.786  10.874  0.3295  0.0635  0.3773
14988TIP3    H166455   4.079   1.806  10.886  0.0122 -0.2731 -1.3151
14988TIP3    H266456   4.178   1.692  10.889  0.4532  0.1216  0.7102
14989TIP3   OH266457   2.390   5.112   5.527  0.6537 -0.3345  0.0245
14989TIP3    H166458   2.347   5.192   5.497  0.3034 -1.1900 -1.9136
14989TIP3    H266459   2.471   5.108   5.476  0.4375 -1.4407 -0.2637
14990TIP3   OH266460   0.490   1.520  16.073  0.5981 -0.6713 -0.0202
14990TIP3    H166461   0.543   1.589  16.031  1.6379 -1.1985  0.3935
14990TIP3    H266462   0.544   1.441  16.065  0.1832 -1.0708  1.0688
14991TIP3   OH266463   1.134   5.729  14.772 -0.5117 -0.2700  0.0257
14991TIP3    H166464   1.098   5.668  14.836  1.2096 -2.7775 -1.2426
14991TIP3    H266465   1.080   5.717  14.694 -1.2289  1.1655  0.2596
14992TIP3   OH266466   2.706   2.405   0.218 -0.2976 -0.9297  0.1291
14992TIP3    H166467   2.693   2.336   0.152 -0.4230 -2.1812  1.4161
14992TIP3    H266468   2.786   2.380   0.263  0.9368  1.0344 -0.8302
14993TIP3   OH266469   5.195   3.671  13.057 -0.1698 -0.1102 -0.1702
14993TIP3    H166470   5.110   3.628  13.067  0.1113 -0.1927  2.3348
14993TIP3    H266471   5.229   3.679  13.146  1.0385  2.8501 -0.7843
14994TIP3   OH266472   5.217   2.317  15.196 -0.5814  0.4543  0.2878
14994TIP3    H166473   5.229   2.235  15.148 -1.1480  0.5618 -0.0480
14994TIP3    H266474   5.303   2.334  15.236 -0.9903 -1.3807  2.0933
14995TIP3   OH266475   5.803   6.198  15.726  0.0972  0.5628  0.3017
14995TIP3    H166476   5.855   6.276  15.709 -0.5609  1.1084  0.7831
14995TIP3    H266477   5.782   6.164  15.639  0.6352  0.7442  0.0973
14996TIP3   OH266478   3.064   4.278  11.875  0.4128  0.2269  0.2754
14996TIP3    H166479   3.147   4.324  11.891 -0.2606  1.0085  1.7145
14996TIP3    H266480   3.027   4.322  11.799  0.4056  1.2465  0.8378
14997TIP3   OH266481   0.028   4.588  11.709 -0.6718 -0.2157  0.3289
14997TIP3    H166482  -0.050   4.635  11.680 -1.5969 -0.4321  2.2860
14997TIP3    H266483   0.047   4.625  11.796  1.8450  0.3181 -0.3713
14998TIP3   OH266484   3.354   5.768  15.766  0.1699 -0.3833 -0.1125
14998TIP3    H166485   3.307   5.706  15.821  1.1189 -0.1984  0.9477
14998TIP3    H266486   3.330   5.854  15.801 -0.5744 -0.1732 -1.1112
14999TIP3   OH266487   4.974   2.726  15.181  0.2197 -0.5149  0.6683
14999TIP3    H166488   4.881   2.740  15.163 -0.0155 -1.4348  1.0828
14999TIP3    H266489   5.018   2.801  15.141 -0.7465  0.2416  0.9684
15000TIP3   OH266490   0.441   6.784  13.990  0.2460 -0.4535 -0.1296
15000TIP3    H166491   0.507   6.734  14.037  0.6384 -0.2472 -0.4531
15000TIP3    H266492   0.461   6.876  14.010 -1.2993 -0.4319  1.5849
15001TIP3   OH266493   1.750   3.718  14.385 -0.0317 -0.2354  0.9084
15001TIP3    H166494   1.689   3.763  14.326 -0.1358  0.3429  1.4453
15001TIP3    H266495   1.808   3.787  14.416  1.0303 -0.8109  0.2581
15002TIP3   OH266496   4.875   5.871   4.372 -0.2147 -0.4132 -0.1840
15002TIP3    H166497   4.885   5.924   4.294 -1.4073 -0.1859 -0.1952
15002TIP3    H266498   4.856   5.783   4.339  1.2726 -0.7619 -0.1596
15003TIP3   OH266499   5.649   2.630  12.949  0.5285 -0.1315 -0.2402
15003TIP3    H166500   5.668   2.540  12.973  1.2014  0.5255  1.9721
15003TIP3    H266501   5.725   2.680  12.979  0.3501  1.1448 -1.7579
15004TIP3   OH266502   6.585   5.769   5.595  0.2053  0.3932  0.2859
15004TIP3    H166503   6.555   5.708   5.661  1.0459  0.1183  0.4195
15004TIP3    H266504   6.520   5.840   5.597 -0.5109 -0.2528  0.4551
15005TIP3   OH266505   3.972   4.853   3.676 -0.1272  0.3599  0.0307
15005TIP3    H166506   3.938   4.765   3.694  2.2528 -0.2955  1.9221
15005TIP3    H266507   4.020   4.843   3.594 -0.8323  0.1953 -0.3682
15006TIP3   OH266508   3.433   5.859   2.260  0.0703 -0.5471 -0.3992
15006TIP3    H166509   3.370   5.792   2.287 -0.3772  0.8365  2.3521
15006TIP3    H266510   3.508   5.847   2.319  1.1384 -0.2697 -1.6411
15007TIP3   OH266511   4.703   5.503   6.295 -0.5036 -0.1681 -0.0078
15007TIP3    H166512   4.791   5.499   6.259 -0.4827  0.9173 -0.0858
15007TIP3    H266513   4.684   5.596   6.305 -1.7546 -0.3773 -0.2653
15008TIP3   OH266514   1.093   1.971  15.340 -0.7804  0.0093 -0.5479
15008TIP3    H166515   1.070   2.047  15.287 -0.5601 -1.0509 -2.2522
15008TIP3    H266516   1.180   1.991  15.374  0.1416 -0.2306 -2.5921
15009TIP3   OH266517   1.691   3.871   4.503 -0.4816  0.1827  0.3135
15009TIP3    H166518   1.663   3.961   4.488  0.4433  0.5099  0.4834
15009TIP3    H266519   1.611   3.825   4.528 -1.2826  0.5547 -1.4616
15010TIP3   OH266520   4.959   4.845  12.312 -1.0174  0.2518 -0.1682
15010TIP3    H166521   4.875   4.799  12.317 -0.3878 -1.1366 -1.6001
15010TIP3    H266522   4.976   4.854  12.219  0.8827 -0.3659  0.0879
15011TIP3   OH266523   0.373   3.569  12.244 -0.2324 -0.1022 -0.6845
15011TIP3    H166524   0.401   3.613  12.163 -0.2065 -0.4190 -0.8473
15011TIP3    H266525   0.283   3.542  12.227  0.2138 -1.3697 -1.1120
15012TIP3   OH266526   6.387   4.730   5.887 -0.8241 -0.5129 -0.6143
15012TIP3    H166527   6.476   4.762   5.870 -1.1555  0.0869 -1.2175
15012TIP3    H266528   6.336   4.808   5.905 -1.0065 -0.9384  0.8619
15013TIP3   OH266529   3.799   1.034   2.443  0.5401 -0.6349 -0.2437
15013TIP3    H166530   3.829   0.945   2.428  0.4328 -0.8418  0.6740
15013TIP3    H266531   3.819   1.051   2.535  0.1219  0.1181 -0.2787
15014TIP3   OH266532   5.518   4.687  12.456 -0.0915 -0.0699 -0.1956
15014TIP3    H166533   5.454   4.674  12.386  0.5778  0.6154 -0.9432
15014TIP3    H266534   5.577   4.612  12.449 -1.1006 -1.0252  0.8681
15015TIP3   OH266535   2.997   4.940  13.391  0.2529  0.0192 -0.8220
15015TIP3    H166536   3.033   4.884  13.322  1.3640 -0.2133 -0.0939
15015TIP3    H266537   3.048   4.916  13.469  0.3832  1.6605 -0.3661
15016TIP3   OH266538   3.458   0.947   2.478 -0.4389  0.4086 -0.3147
15016TIP3    H166539   3.499   0.961   2.564 -1.0981  0.2656  0.0273
15016TIP3    H266540   3.404   0.869   2.490 -0.4900  0.3572 -0.8796
15017TIP3   OH266541   3.440   0.622  16.665 -0.4919 -0.3086 -0.2547
15017TIP3    H166542   3.363   0.572  16.637 -0.0986 -0.6376 -0.7464
15017TIP3    H266543   3.496   0.559  16.709  0.2482 -0.4439 -1.3343
15018TIP3   OH266544   0.786   0.701  12.632 -0.3104 -0.1360 -0.3462
15018TIP3    H166545   0.708   0.707  12.687  0.0244  2.1374 -0.0456
15018TIP3    H266546   0.835   0.781  12.649  1.9057 -1.2802 -0.8697
15019TIP3   OH266547   0.659   5.514   0.207  0.0894  0.1366 -0.5977
15019TIP3    H166548   0.658   5.585   0.272  1.8491  2.0230 -2.4661
15019TIP3    H266549   0.732   5.458   0.235 -1.7913 -1.4946  1.3237
15020TIP3   OH266550   0.833   1.968  11.090 -0.0780  0.1474  0.2564
15020TIP3    H166551   0.839   1.889  11.144  0.2671 -0.6142 -0.8672
15020TIP3    H266552   0.916   1.972  11.044 -0.8583  0.0340 -1.2062
15021TIP3   OH266553   2.087   2.201  11.657 -0.3806  0.2321 -0.0871
15021TIP3    H166554   1.993   2.218  11.670 -0.2971  0.3658  0.3265
15021TIP3    H266555   2.131   2.265  11.711 -0.0155  1.2804 -1.5635
15022TIP3   OH266556   6.004   1.185  12.161 -0.7682  0.3082  0.2169
15022TIP3    H166557   5.992   1.137  12.079 -2.5428  3.0802 -1.2877
15022TIP3    H266558   5.918   1.224  12.179 -0.0396  0.9663  2.6247
15023TIP3   OH266559   2.047   5.378   3.789 -0.1069  0.4199  0.0000
15023TIP3    H166560   2.045   5.468   3.756  0.5885  0.7424  0.7730
15023TIP3    H266561   1.997   5.382   3.871 -1.5546 -0.2961 -0.8049
15024TIP3   OH266562   3.743   3.960   0.792  0.5777  0.5620 -0.6450
15024TIP3    H166563   3.767   3.995   0.878  1.8580 -0.6106 -0.4859
15024TIP3    H266564   3.810   3.994   0.733  0.3415  0.4778 -0.9635
15025TIP3   OH266565   6.857   3.277   4.089  0.0030  0.2825 -0.1062
15025TIP3    H166566   6.916   3.331   4.141  1.3289 -1.4212  0.2564
15025TIP3    H266567   6.788   3.251   4.149  0.4232 -0.0124  0.2530
15026TIP3   OH266568   6.674   4.724   5.541 -0.2545 -0.3934 -0.1580
15026TIP3    H166569   6.635   4.811   5.541 -2.0996 -1.1490  1.5433
15026TIP3    H266570   6.738   4.726   5.611  1.6437  0.3063 -1.8073
15027TIP3   OH266571   5.487   4.846   1.757 -0.4605  0.2516  0.2965
15027TIP3    H166572   5.560   4.858   1.817  0.1842  1.9267 -0.7365
15027TIP3    H266573   5.420   4.801   1.808  1.0221 -0.7017  1.4674
15028TIP3   OH266574   1.102   4.606   0.529 -0.1530  0.3139 -0.0949
15028TIP3    H166575   1.008   4.590   0.531 -0.1635  0.3535  2.1328
15028TIP3    H266576   1.136   4.563   0.607  2.0774 -1.7067 -2.0180
15029TIP3   OH266577   3.820   1.283  14.873 -0.3765 -0.1633  0.9673
15029TIP3    H166578   3.778   1.353  14.923  0.9687 -0.4301  2.5614
15029TIP3    H266579   3.748   1.233  14.834 -1.4330  0.6085  1.9099
15030TIP3   OH266580   5.669   4.851  13.267 -0.2590  0.0584 -0.2655
15030TIP3    H166581   5.741   4.803  13.227  0.5385  0.3434  0.7748
15030TIP3    H266582   5.600   4.787  13.278  0.8125 -0.9305  1.1885
15031TIP3   OH266583   1.168   4.740   5.974  0.4069 -0.0407 -0.3593
15031TIP3    H166584   1.226   4.705   5.906  0.4747 -1.1567  0.2467
15031TIP3    H266585   1.107   4.796   5.927  1.5983  0.6907 -1.0941
15032TIP3   OH266586   0.220   2.141   4.197  0.2042 -0.6182  0.2864
15032TIP3    H166587   0.303   2.174   4.162 -0.5439 -0.2560 -1.2650
15032TIP3    H266588   0.160   2.216   4.189 -1.0935 -1.7620 -1.7106
15033TIP3   OH266589   3.638   1.465   5.265 -0.6935 -0.1818 -0.1983
15033TIP3    H166590   3.618   1.555   5.293 -0.0905  0.4145 -1.5684
15033TIP3    H266591   3.558   1.416   5.284 -0.3637  0.1458  2.4345
15034TIP3   OH266592   0.966   0.210  14.182 -0.5937 -0.5104 -0.1423
15034TIP3    H166593   1.022   0.222  14.259 -0.7449  0.4645 -0.1686
15034TIP3    H266594   1.022   0.231  14.108 -0.5203 -1.2071 -0.2916
15035TIP3   OH266595   2.616   5.699  12.735  0.2960 -0.4473  0.6323
15035TIP3    H166596   2.563   5.712  12.656 -0.6888 -2.2298  0.9391
15035TIP3    H266597   2.632   5.605  12.737  2.0291 -0.1646  1.4992
15036TIP3   OH266598   1.929   6.695  13.787 -0.3149 -0.1450 -0.5177
15036TIP3    H166599   1.834   6.684  13.781 -0.3057  0.3320 -1.7616
15036TIP3    H266600   1.957   6.624  13.846 -1.5974  0.6772  1.1739
15037TIP3   OH266601   6.506   6.136  12.139  0.8144 -0.6754 -0.0050
15037TIP3    H166602   6.466   6.136  12.052  2.0946  0.8045 -0.6462
15037TIP3    H266603   6.434   6.154  12.199 -0.0764 -1.6391 -0.7481
15038TIP3   OH266604   5.347   0.449  13.896  0.0408  0.6479  0.1272
15038TIP3    H166605   5.434   0.415  13.918  0.0009 -1.4860 -2.4470
15038TIP3    H266606   5.287   0.381  13.926 -0.5203  0.9469 -0.2985
15039TIP3   OH266607   2.685   6.231  12.379  0.6660 -0.3508  0.6754
15039TIP3    H166608   2.719   6.152  12.337 -2.4960 -1.6526  0.2568
15039TIP3    H266609   2.629   6.198  12.449 -0.1188  1.5439  0.9874
15040TIP3   OH266610   3.270   1.591   2.505 -0.2052  0.8291  0.2797
15040TIP3    H166611   3.228   1.558   2.584 -0.3935  1.6832  0.5411
15040TIP3    H266612   3.320   1.516   2.472 -1.6897 -0.1387  0.1180
15041TIP3   OH266613   6.205   4.369   1.223  0.4099 -0.5127 -0.4138
15041TIP3    H166614   6.139   4.300   1.222  0.4625 -0.6190  1.0724
15041TIP3    H266615   6.286   4.324   1.199  0.3172 -0.8372 -0.1354
15042TIP3   OH266616   3.778   0.910  13.490 -0.0921 -0.2365  0.4440
15042TIP3    H166617   3.725   0.844  13.447 -0.3152 -0.6627  1.3561
15042TIP3    H266618   3.866   0.898  13.453 -0.1245 -1.0536  0.6135
15043TIP3   OH266619   0.337   3.021  13.910 -0.3138  0.2850  0.3332
15043TIP3    H166620   0.417   2.997  13.957  0.9147 -1.1869 -2.2589
15043TIP3    H266621   0.273   2.956  13.936 -0.2252  0.5428  1.2482
15044TIP3   OH266622   0.678   4.137   6.353  0.2071 -0.1808  0.3797
15044TIP3    H166623   0.665   4.199   6.425  0.0659  0.4244 -0.1584
15044TIP3    H266624   0.769   4.150   6.326 -0.1984  0.7685 -0.6112
15045TIP3   OH266625   5.866   5.262   5.826 -0.3576 -0.2670  0.1509
15045TIP3    H166626   5.902   5.350   5.810  1.0930 -0.8142  0.2152
15045TIP3    H266627   5.838   5.264   5.917 -1.4112  0.4732 -0.1734
15046TIP3   OH266628   6.152   6.651  14.335 -0.4350 -0.1188  0.2387
15046TIP3    H166629   6.227   6.697  14.296 -0.3383  0.8339  1.4933
15046TIP3    H266630   6.190   6.569  14.369 -0.3694 -0.5827 -0.9164
15047TIP3   OH266631   0.031   6.749   6.382  0.2381  0.6570 -0.4855
15047TIP3    H166632  -0.031   6.818   6.361 -0.8007  0.6485  2.2201
15047TIP3    H266633   0.009   6.678   6.322  0.4884  2.1432 -2.4347
15048TIP3   OH266634   4.195   3.775  15.573 -0.0881  0.3770 -0.2803
15048TIP3    H166635   4.214   3.706  15.637  0.4566 -0.6718 -1.5289
15048TIP3    H266636   4.260   3.843  15.592  0.9785 -0.5312 -0.5864
15049TIP3   OH266637   6.205   1.563  16.190  0.2244  0.2788  0.0835
15049TIP3    H166638   6.251   1.520  16.118  0.2640  1.0706 -0.3784
15049TIP3    H266639   6.269   1.622  16.228 -0.4297  1.5294 -0.6799
15050TIP3   OH266640   2.083   2.754   0.191  0.6260 -0.1678 -0.2907
15050TIP3    H166641   2.152   2.705   0.146  0.2479 -0.7675 -0.2269
15050TIP3    H266642   2.006   2.743   0.136  0.4235 -0.0183 -0.0360
15051TIP3   OH266643   1.881   4.935  15.116 -0.0368 -0.2957  0.2972
15051TIP3    H166644   1.965   4.974  15.141 -0.7314  0.9130  0.8189
15051TIP3    H266645   1.861   4.875  15.187  0.5894 -0.9579 -0.0599
15052TIP3   OH266646   3.339   3.578  14.052  0.5268 -0.8893  0.3916
15052TIP3    H166647   3.292   3.644  14.102 -1.3144 -0.7621 -1.3755
15052TIP3    H266648   3.431   3.595  14.071  0.0172  0.9959  1.4185
15053TIP3   OH266649   6.103   4.693   4.680  0.0409  0.2033 -0.4338
15053TIP3    H166650   6.078   4.625   4.743  1.8489  1.0597  1.3024
15053TIP3    H266651   6.021   4.739   4.662 -0.8047 -1.0450  0.0405
15054TIP3   OH266652   5.670   2.070  16.279 -0.2422  0.0806 -0.5928
15054TIP3    H166653   5.613   2.021  16.220  0.1597 -1.3655  0.1805
15054TIP3    H266654   5.758   2.038  16.259  0.0347  0.5223 -0.0896
15055TIP3   OH266655   6.839   5.426  16.223 -0.3155  0.1243 -0.0974
15055TIP3    H166656   6.909   5.432  16.158 -0.4923  0.5634 -0.2489
15055TIP3    H266657   6.842   5.510  16.270 -0.0621 -0.2586  0.5968
15056TIP3   OH266658   2.755   4.004  11.076 -0.0329 -0.3033 -0.0693
15056TIP3    H166659   2.832   3.961  11.039 -1.6068 -3.5521  0.1425
15056TIP3    H266660   2.700   4.026  11.000  0.1652  0.1390 -0.0896
15057TIP3   OH266661   4.356   1.289   5.215 -0.4425  0.2362 -0.2426
15057TIP3    H166662   4.399   1.365   5.253 -0.2769  0.0162  0.0223
15057TIP3    H266663   4.264   1.297   5.242 -0.2529 -0.1126  0.5366
15058TIP3   OH266664   1.489   0.461  12.638 -0.0756 -0.1645 -0.4952
15058TIP3    H166665   1.394   0.473  12.626 -0.6635  0.6692  3.4769
15058TIP3    H266666   1.504   0.368  12.620 -2.2308 -0.9428  1.2063
15059TIP3   OH266667   0.220   0.806   4.914 -0.1620 -0.3500 -0.6142
15059TIP3    H166668   0.205   0.861   4.837  0.5693 -0.2697 -0.7071
15059TIP3    H266669   0.249   0.867   4.982  0.2710 -0.5607 -0.6043
15060TIP3   OH266670   4.352   4.982   3.866  0.5504  0.2592  0.3206
15060TIP3    H166671   4.373   4.966   3.958 -0.8813  1.0204  0.8124
15060TIP3    H266672   4.292   4.911   3.843  0.0439  0.6787  0.3165
15061TIP3   OH266673   5.360   4.821   6.573  0.4353  0.5365 -0.3028
15061TIP3    H166674   5.281   4.768   6.563  1.2602 -0.9831  0.7360
15061TIP3    H266675   5.421   4.787   6.508  0.8666  0.4148  0.1552
15062TIP3   OH266676   6.387   3.128   5.051 -0.1621  0.0423 -0.0087
15062TIP3    H166677   6.292   3.131   5.039 -0.0915 -0.5546 -0.7872
15062TIP3    H266678   6.401   3.158   5.141 -0.9382  1.9805 -0.4883
15063TIP3   OH266679   0.986   6.792   5.053  0.0963  0.3359  0.1575
15063TIP3    H166680   1.075   6.765   5.078  0.6108  2.2553  0.5748
15063TIP3    H266681   0.999   6.849   4.977 -0.8673  0.0744 -0.2203
15064TIP3   OH266682   3.373   6.535   2.950 -0.6238 -0.6645  0.1184
15064TIP3    H166683   3.321   6.469   2.904 -0.5264 -0.7203  0.0876
15064TIP3    H266684   3.379   6.502   3.040 -1.0904 -0.3938  0.2540
15065TIP3   OH266685   1.958   3.386   1.359  0.1760  0.4019 -0.4894
15065TIP3    H166686   1.903   3.322   1.314  0.1042  1.0565 -1.3722
15065TIP3    H266687   1.898   3.456   1.383  0.7650  1.7748 -2.6767
15066TIP3   OH266688   4.727   2.291   4.356 -0.1030  0.3693  0.1304
15066TIP3    H166689   4.813   2.267   4.322 -0.2542  0.3679 -0.2618
15066TIP3    H266690   4.722   2.249   4.442  0.4853  0.7783  0.3714
15067TIP3   OH266691   1.105   6.168   3.082 -0.0008 -0.0922  0.0228
15067TIP3    H166692   1.142   6.214   3.007 -1.4636  0.4658 -0.3940
15067TIP3    H266693   1.165   6.095   3.097  0.5679  0.0456 -1.3887
15068TIP3   OH266694   0.890   4.313  15.205 -0.8229 -0.2206  0.4940
15068TIP3    H166695   0.963   4.358  15.163 -0.8687  1.5877  2.1864
15068TIP3    H266696   0.921   4.223  15.218  0.3379  0.0157 -0.5216
15069TIP3   OH266697   3.472   2.312   1.099  0.3234  0.3600 -0.2614
15069TIP3    H166698   3.461   2.350   1.011  3.6446  0.1594 -0.9125
15069TIP3    H266699   3.493   2.387   1.154 -2.2787  0.5613  0.6108
15070TIP3   OH266700   3.298   4.037   2.924  0.4089  0.0798  0.1191
15070TIP3    H166701   3.281   4.091   3.002 -0.5412  3.9111 -2.4335
15070TIP3    H266702   3.219   3.984   2.914 -0.2067  0.8308  0.8300
15071TIP3   OH266703   3.635   1.098   2.790  0.1666 -0.0964  0.5694
15071TIP3    H166704   3.641   1.114   2.885 -1.1058 -2.0899  1.0517
15071TIP3    H266705   3.725   1.089   2.761  0.6297  1.5838  1.3616
15072TIP3   OH266706   3.953   1.140   3.015 -0.0649  0.5028 -0.6807
15072TIP3    H166707   4.006   1.201   3.068 -0.5928  3.3232 -3.1437
15072TIP3    H266708   3.863   1.153   3.046  0.1272 -1.6226  1.0290
15073TIP3   OH266709   5.257   1.724  16.528  0.0292  0.3910  0.2800
15073TIP3    H166710   5.230   1.671  16.453 -1.9799  0.1149  1.1490
15073TIP3    H266711   5.323   1.784  16.492 -0.3119 -0.2523 -1.5308
15074TIP3   OH266712   3.134   0.310   0.268 -0.4888 -0.2557 -0.3042
15074TIP3    H166713   3.039   0.320   0.280 -0.4871  1.1122 -1.2580
15074TIP3    H266714   3.142   0.240   0.203 -0.7590 -1.5988  1.0534
15075TIP3   OH266715   2.993   3.524  13.122 -0.6336  0.4104 -0.2942
15075TIP3    H166716   3.072   3.516  13.069 -1.1598  0.1518 -1.0602
15075TIP3    H266717   2.960   3.435  13.130 -0.2972  0.3842  0.8971
15076TIP3   OH266718   1.882   2.989   3.655  0.0649 -0.6505 -0.4070
15076TIP3    H166719   1.867   2.900   3.688 -2.7061 -0.3387 -0.5774
15076TIP3    H266720   1.826   2.995   3.578 -0.1866  1.4114 -0.1046
15077TIP3   OH266721   0.715   5.962  12.466  0.5540  1.0039 -0.8714
15077TIP3    H166722   0.637   6.017  12.461 -0.4545 -0.2121  0.3927
15077TIP3    H266723   0.728   5.931  12.376 -1.2640  0.1722 -0.9026
15078TIP3   OH266724   5.777   6.153  13.809 -0.0471 -0.4661  0.4039
15078TIP3    H166725   5.864   6.112  13.808 -0.1449 -0.7779  2.1723
15078TIP3    H266726   5.721   6.088  13.852 -0.4162  1.0566  2.3407
15079TIP3   OH266727   4.112   6.670   1.078  0.4754  0.1135 -0.1483
15079TIP3    H166728   4.200   6.703   1.096  0.3642  1.7279 -2.1679
15079TIP3    H266729   4.121   6.619   0.997 -0.4733  0.6515 -0.6213
15080TIP3   OH266730   3.745   6.068   4.052  0.1661  0.3759 -0.2376
15080TIP3    H166731   3.760   6.140   4.113 -0.9999  0.2320  0.2558
15080TIP3    H266732   3.814   6.005   4.071 -0.9902 -0.3137  1.9752
15081TIP3   OH266733   1.984   5.348  12.560  0.4014 -0.2341  0.2980
15081TIP3    H166734   1.911   5.395  12.520  1.4824  3.1302  1.9037
15081TIP3    H266735   1.946   5.308  12.638 -0.0042  0.5248  0.5054
15082TIP3   OH266736   6.524   5.727  11.151  0.0744  0.4151 -0.1583
15082TIP3    H166737   6.553   5.779  11.076 -1.0324  1.7665  0.2982
15082TIP3    H266738   6.488   5.647  11.112  0.6077  0.5649 -0.9819
15083TIP3   OH266739   6.358   0.155  11.462  0.1605 -0.4434  0.0611
15083TIP3    H166740   6.351   0.068  11.500  1.3713 -1.2187 -1.3588
15083TIP3    H266741   6.416   0.144  11.387 -0.2629  1.4464 -0.6187
15084TIP3   OH266742   3.955   2.414  14.271  0.0800  0.0068  0.0757
15084TIP3    H166743   3.931   2.411  14.364  1.2286 -1.8320  0.3507
15084TIP3    H266744   3.872   2.401  14.226 -0.1614 -1.5953  0.9149
15085TIP3   OH266745   0.980   6.808   0.947  0.2013  0.1391  0.4503
15085TIP3    H166746   1.049   6.814   1.014  0.4218 -2.4790  0.5676
15085TIP3    H266747   1.027   6.801   0.864  0.1843 -2.0307  0.5617
15086TIP3   OH266748   6.720   5.374   1.868 -0.1596  0.0305  0.2014
15086TIP3    H166749   6.657   5.446   1.860 -1.3091 -1.0569 -1.0627
15086TIP3    H266750   6.695   5.313   1.798  5.4011  1.8180 -4.0768
15087TIP3   OH266751   3.922   1.503   6.125  0.5245 -0.1979 -0.1114
15087TIP3    H166752   3.974   1.507   6.206 -0.0597 -2.0655  0.4091
15087TIP3    H266753   3.880   1.589   6.119  1.3443  0.3091  1.0422
15088TIP3   OH266754   4.722   4.871  12.584  0.2813 -0.5685 -0.0978
15088TIP3    H166755   4.664   4.837  12.652 -0.0007 -0.3526 -0.2345
15088TIP3    H266756   4.747   4.793  12.534  0.4059 -0.7139  0.1830
15089TIP3   OH266757   1.603   4.080  11.939  0.2095  0.4045  0.3159
15089TIP3    H166758   1.512   4.052  11.936 -0.0850  1.3778 -0.2273
15089TIP3    H266759   1.628   4.068  12.031  0.0983 -1.5377  0.1284
15090TIP3   OH266760   4.284   0.014  16.758  0.0191 -0.0811 -0.1115
15090TIP3    H166761   4.354   0.061  16.803 -1.2775  1.5705  0.2988
15090TIP3    H266762   4.241  -0.037  16.827 -0.4343  0.5341  0.0805
15091TIP3   OH266763   0.876   3.735   4.999 -0.4463  1.0334 -0.0871
15091TIP3    H166764   0.832   3.652   5.019 -2.0676  1.5607 -1.2366
15091TIP3    H266765   0.856   3.750   4.907  1.7863  1.5807 -0.5240
15092TIP3   OH266766   6.448   3.069   2.035  0.0799 -0.3382 -0.9477
15092TIP3    H166767   6.390   3.011   2.083  0.6370 -0.3741 -0.2960
15092TIP3    H266768   6.505   3.010   1.986  0.3113 -0.3372 -0.6849
15093TIP3   OH266769   3.598   0.309  16.131 -0.8128  0.0239 -0.2164
15093TIP3    H166770   3.515   0.263  16.142 -1.7939  1.5969 -0.7765
15093TIP3    H266771   3.573   0.400  16.113  1.0600  0.8855  1.2177
15094TIP3   OH266772   2.226   5.186   1.432 -0.4954 -0.3897 -0.0458
15094TIP3    H166773   2.151   5.158   1.484 -1.3059  0.9943 -0.4179
15094TIP3    H266774   2.201   5.272   1.397  1.1620  0.0069 -0.3702
15095TIP3   OH266775   6.567   0.901  11.511  0.0331  0.2742 -0.8425
15095TIP3    H166776   6.650   0.858  11.530 -0.7316 -0.9948 -0.2346
15095TIP3    H266777   6.563   0.974  11.573  0.9773  0.7395 -1.3187
15096TIP3   OH266778   3.238   1.602   0.673  0.4752  0.2929 -0.0967
15096TIP3    H166779   3.172   1.538   0.697 -0.7913  1.3473 -0.6340
15096TIP3    H266780   3.219   1.623   0.581  1.3257  0.8780 -0.1576
15097TIP3   OH266781   3.342   1.260   1.726  0.2773 -0.3023  0.3195
15097TIP3    H166782   3.402   1.204   1.677 -0.9346 -0.7177 -0.7415
15097TIP3    H266783   3.297   1.201   1.786 -0.2856 -0.2996 -0.0936
15098TIP3   OH266784   0.989   1.722   3.438  0.7329  0.4153  0.6083
15098TIP3    H166785   0.979   1.814   3.414 -0.2628  0.4936  1.2847
15098TIP3    H266786   0.914   1.703   3.494 -0.2636 -1.3999 -1.2331
15099TIP3   OH266787   1.666   6.198  11.885  0.4104 -0.2224 -0.3247
15099TIP3    H166788   1.640   6.232  11.799  0.8002 -0.3105 -0.4835
15099TIP3    H266789   1.760   6.213  11.888  0.1192  1.6638  0.9496
15100TIP3   OH266790   6.660   0.191  16.516 -0.3483  0.2270  0.1655
15100TIP3    H166791   6.638   0.275  16.476 -0.4303 -0.3583 -1.0737
15100TIP3    H266792   6.576   0.150  16.535 -0.3589 -0.4964 -1.2899
15101TIP3   OH266793   4.637   5.164  13.163 -0.0016 -0.3400 -0.3398
15101TIP3    H166794   4.695   5.232  13.127 -0.9317  0.2930 -0.6915
15101TIP3    H266795   4.697   5.098  13.198  0.9329  0.2574 -0.7474
15102TIP3   OH266796   0.449   2.389  17.015 -0.4645 -0.3118 -0.0337
15102TIP3    H166797   0.377   2.435  17.058 -0.7621 -0.1764 -0.6796
15102TIP3    H266798   0.522   2.398  17.076 -1.1707 -1.0535  0.9663
15103TIP3   OH266799   6.050   0.286   1.318  0.3107  0.3973 -0.5975
15103TIP3    H166800   6.038   0.380   1.304  0.5642  0.9535  2.3455
15103TIP3    H266801   5.961   0.251   1.318  0.0353  1.0445  0.5505
15104TIP3   OH266802   6.785   4.001  11.804  0.2666  0.3714  0.2814
15104TIP3    H166803   6.836   3.975  11.728  0.6469  1.2709  0.2150
15104TIP3    H266804   6.727   3.927  11.821 -1.4782  1.0135 -2.2999
15105TIP3   OH266805   2.444   2.606  14.892 -0.1500 -0.2487  0.0838
15105TIP3    H166806   2.413   2.688  14.930  1.2170  0.4197 -0.1830
15105TIP3    H266807   2.509   2.633  14.827 -1.2307 -1.4368 -1.5833
15106TIP3   OH266808   5.287   3.437   3.485 -0.2294 -0.0974  0.4235
15106TIP3    H166809   5.324   3.398   3.564  0.6796  0.2941  0.2075
15106TIP3    H266810   5.363   3.449   3.427 -0.8218 -0.0009 -0.3424
15107TIP3   OH266811   3.848   6.225   0.564  0.4278 -0.0972  0.6937
15107TIP3    H166812   3.838   6.314   0.597  0.2073  0.8748 -1.7813
15107TIP3    H266813   3.759   6.198   0.540  0.3323 -1.4284  2.3457
15108TIP3   OH266814   3.869   4.530   3.703 -0.2126 -0.3886 -0.0427
15108TIP3    H166815   3.793   4.558   3.652  0.2231  2.3034  0.6509
15108TIP3    H266816   3.836   4.458   3.756 -2.1858  0.4151 -0.0804
15109TIP3   OH266817   4.449   0.232  13.681 -0.1684 -0.0673 -0.1401
15109TIP3    H166818   4.396   0.197  13.753  0.3470 -0.2532  0.1599
15109TIP3    H266819   4.447   0.163  13.614  1.6748 -1.1687  0.8576
15110TIP3   OH266820   6.301   1.282   4.500  0.3766  0.3988  0.3631
15110TIP3    H166821   6.371   1.219   4.484 -1.2612 -1.6501  0.8206
15110TIP3    H266822   6.322   1.357   4.443  1.2977 -1.4354 -1.8426
15111TIP3   OH266823   2.873   0.732  15.491  0.4152  0.0967  0.3138
15111TIP3    H166824   2.781   0.746  15.467  0.9785 -0.2945 -2.4960
15111TIP3    H266825   2.883   0.636  15.489  0.5920  0.0639  1.9786
15112TIP3   OH266826   6.120   6.606   0.648  0.2537  0.0754  0.2247
15112TIP3    H166827   6.146   6.607   0.556  1.8575  0.8287  0.6430
15112TIP3    H266828   6.098   6.514   0.666 -1.4680  0.1591 -1.2355
15113TIP3   OH266829   1.946   4.541  13.335  0.0302  0.4584  0.0017
15113TIP3    H166830   2.037   4.515  13.320 -0.0927 -1.6907  2.2510
15113TIP3    H266831   1.952   4.612  13.398  0.1792  2.0601 -1.7571
15114TIP3   OH266832   3.590   6.012   1.508 -0.4644  0.2457 -0.3805
15114TIP3    H166833   3.587   6.008   1.413 -2.4098  1.8577 -0.4664
15114TIP3    H266834   3.609   6.104   1.527 -0.6164  0.0544  0.7632
15115TIP3   OH266835   5.927   3.227  13.698 -0.5695  0.0029  0.1482
15115TIP3    H166836   5.856   3.192  13.754 -2.4397  1.5499 -1.1199
15115TIP3    H266837   5.907   3.193  13.611  1.8234 -1.6654  0.1661
15116TIP3   OH266838   2.911   1.768  14.836 -0.1825  0.2223  0.0119
15116TIP3    H166839   2.949   1.853  14.815 -1.4100  1.6504  2.9675
15116TIP3    H266840   2.961   1.737  14.911  0.6510 -2.0788 -1.3619
15117TIP3   OH266841   2.283   0.840   5.020  0.1686  0.3189 -0.0074
15117TIP3    H166842   2.258   0.931   5.032 -2.7457 -0.7859  5.6252
15117TIP3    H266843   2.359   0.828   5.077 -0.6693 -1.0357  0.8995
15118TIP3   OH266844   1.915   0.895   4.304  0.5424  0.3208 -0.0427
15118TIP3    H166845   1.972   0.970   4.288  0.0966  0.9596  1.1769
15118TIP3    H266846   1.917   0.844   4.223  1.3596  1.3144 -0.6616
15119TIP3   OH266847   0.662   6.817   1.676 -0.4356  0.1418 -0.6886
15119TIP3    H166848   0.589   6.871   1.648  1.8539  2.7062 -2.2569
15119TIP3    H266849   0.740   6.868   1.653  1.9096 -2.9899 -0.3933
15120TIP3   OH266850   4.875   5.599   4.334  0.1795  0.5811 -0.1203
15120TIP3    H166851   4.923   5.592   4.251 -0.9479  1.4395 -0.8817
15120TIP3    H266852   4.799   5.542   4.323 -0.5985  1.5928 -0.1569
15121TIP3   OH266853   3.944   4.261   2.360  0.1981 -0.0636 -0.1815
15121TIP3    H166854   3.871   4.310   2.397 -1.7530 -3.1654  0.5029
15121TIP3    H266855   3.998   4.238   2.436  1.7721  1.9323 -0.6458
15122TIP3   OH266856   6.242   2.741  16.217 -0.4501  0.2555 -0.2203
15122TIP3    H166857   6.313   2.754  16.155  0.3813 -1.2328  0.3940
15122TIP3    H266858   6.171   2.703  16.164 -0.4197  0.7294 -0.6140
15123TIP3   OH266859   2.958   2.996   2.730  0.1740 -0.2126 -0.4315
15123TIP3    H166860   3.015   2.923   2.751  0.0543 -0.3844 -0.6951
15123TIP3    H266861   3.018   3.069   2.714  0.2998 -0.2897 -0.3162
15124TIP3   OH266862   3.885   2.471  12.606  0.1278  0.2011  0.1440
15124TIP3    H166863   3.863   2.483  12.698 -1.0445 -0.2794 -0.0529
15124TIP3    H266864   3.963   2.415  12.607  0.6130  0.8613  0.8468
15125TIP3   OH266865   2.473   5.184   2.166 -0.4275 -0.2289 -0.6580
15125TIP3    H166866   2.385   5.150   2.183 -0.0412 -0.6462  0.5945
15125TIP3    H266867   2.458   5.272   2.131 -1.3699  1.2839  3.0464
15126TIP3   OH266868   6.600   5.918   0.240 -0.1606 -0.4322  0.5568
15126TIP3    H166869   6.556   5.919   0.325 -1.9669  0.4325 -0.3318
15126TIP3    H266870   6.583   5.831   0.204 -0.6246 -0.3036  0.4690
15127TIP3   OH266871   5.801   6.709   2.483  0.1937  0.1351  0.6716
15127TIP3    H166872   5.741   6.696   2.409  0.3889  3.5961 -0.2466
15127TIP3    H266873   5.746   6.694   2.561 -1.4123  1.3847 -0.1628
15128TIP3   OH266874   0.000   5.113   0.705  0.2464  0.2831 -0.1508
15128TIP3    H166875  -0.029   5.131   0.616  0.0288 -2.1793 -0.6613
15128TIP3    H266876  -0.070   5.060   0.743  1.3277 -0.5746  0.7150
15129TIP3   OH266877   0.270   1.027  15.932 -0.0004 -0.3912 -0.0790
15129TIP3    H166878   0.357   0.987  15.937  0.4953  0.5932 -0.6210
15129TIP3    H266879   0.220   0.982  16.000  1.3264 -0.0358  1.2038
15130TIP3   OH266880   4.840   1.657   0.229  0.1794  0.0895  0.2233
15130TIP3    H166881   4.880   1.743   0.218  1.7758 -0.3624  1.8672
15130TIP3    H266882   4.883   1.602   0.164  0.4490  0.1708  0.3271
15131TIP3   OH266883   3.173   3.401   0.184 -0.1600 -0.0197 -0.0603
15131TIP3    H166884   3.085   3.396   0.221 -0.9099  1.3559 -1.5407
15131TIP3    H266885   3.160   3.393   0.089  1.5552 -1.9436 -0.2053
15132TIP3   OH266886   2.338   1.655   2.421 -0.3426 -0.4171 -0.2421
15132TIP3    H166887   2.409   1.659   2.357  1.5119 -2.0307  1.5995
15132TIP3    H266888   2.371   1.702   2.497 -0.5379 -2.5356  1.2344
15133TIP3   OH266889   5.380   4.344   4.192 -0.1292  0.2439 -0.3958
15133TIP3    H166890   5.443   4.409   4.163  0.5284  0.5906  1.6579
15133TIP3    H266891   5.301   4.394   4.214 -0.9905 -0.1264 -2.4089
15134TIP3   OH266892   3.305   2.537   2.596  0.7829 -0.6157  0.1966
15134TIP3    H166893   3.237   2.472   2.614 -1.5801  2.4310  3.4668
15134TIP3    H266894   3.381   2.508   2.647 -0.0550 -1.0887  1.1994
15135TIP3   OH266895   6.627   2.939   1.887  0.0396 -0.8833  0.1715
15135TIP3    H166896   6.719   2.949   1.912  0.0831 -0.8796  0.0095
15135TIP3    H266897   6.629   2.915   1.794 -0.0733 -2.0479  0.4494
15136TIP3   OH266898   6.683   5.120   2.751  0.3522  0.0699  0.3192
15136TIP3    H166899   6.631   5.167   2.685  1.9242  2.1792  0.4531
15136TIP3    H266900   6.640   5.141   2.834 -0.8702 -1.5201  0.1263
15137TIP3   OH266901   4.841   3.029  14.220 -0.3610 -0.2311 -0.6104
15137TIP3    H166902   4.801   3.085  14.287  1.7036  2.0868 -1.1832
15137TIP3    H266903   4.803   3.060  14.138 -1.3486 -1.6868 -0.7385
15138TIP3   OH266904   5.439   3.500   0.171  0.4786  0.0747  0.4023
15138TIP3    H166905   5.518   3.477   0.123  0.8820  0.4277  0.8810
15138TIP3    H266906   5.445   3.595   0.184 -0.5172  0.2659 -0.4204
15139TIP3   OH266907   3.613   1.135  14.350 -0.1559  0.2455 -0.1572
15139TIP3    H166908   3.655   1.120  14.435  0.7814  0.0986 -0.6276
15139TIP3    H266909   3.519   1.137  14.370 -0.0295 -0.9133  0.7299
15140TIP3   OH266910   1.636   1.239   5.480 -0.1136  0.3666  0.1091
15140TIP3    H166911   1.586   1.277   5.407  2.7407  1.7996 -1.2519
15140TIP3    H266912   1.686   1.168   5.441 -1.1297 -1.1577  1.4748
15141TIP3   OH266913   2.953   4.498   4.585 -0.0760 -0.5256 -0.1358
15141TIP3    H166914   2.881   4.486   4.524 -0.7083 -0.0497  0.4949
15141TIP3    H266915   2.961   4.593   4.594  0.3325 -0.5844  0.1378
15142TIP3   OH266916   3.213   3.281   4.356 -0.1875  0.4769 -0.2576
15142TIP3    H166917   3.126   3.275   4.316 -0.8953  1.8308  0.9751
15142TIP3    H266918   3.268   3.223   4.303 -2.1706 -1.6573 -0.1535
15143TIP3   OH266919   5.742   5.090   4.986  0.5661 -0.4303  0.5766
15143TIP3    H166920   5.827   5.077   5.028  0.5327 -1.0172  0.4627
15143TIP3    H266921   5.692   5.141   5.050  1.1846  0.4029  0.4193
15144TIP3   OH266922   6.807   1.080  15.138  0.0633  0.5561  0.4889
15144TIP3    H166923   6.779   1.001  15.185  0.2872 -0.2756 -0.7368
15144TIP3    H266924   6.754   1.080  15.058  0.1615  1.5789  0.4153
15145TIP3   OH266925   3.669   4.149  13.177 -0.3133 -0.2708 -0.0261
15145TIP3    H166926   3.656   4.055  13.160 -0.6125 -0.4104  0.8879
15145TIP3    H266927   3.755   4.154  13.219 -1.6072 -0.6104  3.0051
15146TIP3   OH266928   2.113   3.911  16.404 -0.0797 -0.0248 -1.0934
15146TIP3    H166929   2.059   3.987  16.425  0.6203  0.1540  0.1399
15146TIP3    H266930   2.055   3.852  16.357 -0.9221  0.8092 -1.1239
15147TIP3   OH266931   3.003   3.043  14.000 -0.4227  0.0587  0.3821
15147TIP3    H166932   3.008   2.948  13.990  2.2535  0.1162  0.4170
15147TIP3    H266933   2.989   3.075  13.911  0.3274 -0.3298  0.1127
15148TIP3   OH266934   6.299   0.408  16.666  0.7068  0.6759  0.6098
15148TIP3    H166935   6.289   0.374  16.577  1.3431  1.8564  0.0535
15148TIP3    H266936   6.369   0.356  16.704 -0.0265 -0.2935  0.6796
15149TIP3   OH266937   0.917   2.500  14.043 -0.0989 -0.2303 -0.3828
15149TIP3    H166938   0.900   2.585  14.083  1.3570 -0.4266  0.7251
15149TIP3    H266939   0.834   2.453  14.051 -0.7805  0.8999 -0.5780
15150TIP3   OH266940   2.185   4.492   2.402  0.6202 -0.1920  0.7194
15150TIP3    H166941   2.243   4.507   2.328  0.9715 -2.2199  0.5299
15150TIP3    H266942   2.213   4.556   2.468  1.4065  0.5136 -0.2699
15151TIP3   OH266943   6.386   3.841  13.040 -0.1566 -0.2232  0.1701
15151TIP3    H166944   6.395   3.800  12.954  0.1749  1.3550 -0.5850
15151TIP3    H266945   6.315   3.904  13.030 -0.2670 -0.1723  1.1230
15152TIP3   OH266946   1.919   5.497  15.286 -0.5142  0.1221  0.2865
15152TIP3    H166947   1.938   5.434  15.217  1.5138  0.2588  0.6533
15152TIP3    H266948   1.840   5.542  15.256 -1.7386 -2.2066 -0.2113
15153TIP3   OH266949   0.107   5.400   3.735  0.3526 -0.2435 -0.7568
15153TIP3    H166950   0.066   5.484   3.755  0.3292 -0.3556 -0.3305
15153TIP3    H266951   0.158   5.378   3.813  0.9561 -0.2724 -1.1503
15154TIP3   OH266952   3.464   6.084   6.017 -0.0790  0.4071 -0.1804
15154TIP3    H166953   3.548   6.111   6.055 -0.4917 -0.2955  1.3118
15154TIP3    H266954   3.475   6.098   5.923  1.7827  0.1381 -0.0440
15155TIP3   OH266955   5.201   0.818   3.376  1.1006 -0.0441 -0.4570
15155TIP3    H166956   5.277   0.835   3.321  1.4153 -0.9156 -0.3052
15155TIP3    H266957   5.169   0.733   3.348  0.6470 -0.0325  0.0084
15156TIP3   OH266958   6.861   6.408  16.764 -0.3870 -0.3267 -0.3297
15156TIP3    H166959   6.852   6.416  16.859 -1.1133 -3.0271 -0.0643
15156TIP3    H266960   6.919   6.480  16.739  2.1473 -1.1261  2.5567
15157TIP3   OH266961   3.167   4.680   1.449  0.5869 -0.2555 -1.0016
15157TIP3    H166962   3.127   4.766   1.464 -1.0615 -1.4116  2.1449
15157TIP3    H266963   3.260   4.694   1.469  1.0129  1.3923 -3.6423
15158TIP3   OH266964   0.207   0.325   1.101 -0.6062 -0.0028 -0.0743
15158TIP3    H166965   0.236   0.389   1.165 -1.6601 -1.1359  1.6247
15158TIP3    H266966   0.112   0.331   1.102 -0.6688 -0.5615 -1.0013
15159TIP3   OH266967   2.868   5.279   5.571  0.1741  0.1574  0.0123
15159TIP3    H166968   2.961   5.294   5.555 -0.0630 -0.8689 -3.0042
15159TIP3    H266969   2.863   5.250   5.662  2.9846 -0.9651 -0.1095
15160TIP3   OH266970   0.705   1.518  10.969 -0.4587 -0.3685 -0.0386
15160TIP3    H166971   0.757   1.440  10.987  0.9958  0.5317 -0.1759
15160TIP3    H266972   0.627   1.486  10.924 -0.5650 -1.8703  1.1436
15161TIP3   OH266973   4.485   3.479   1.610  0.1909  0.7387 -0.0551
15161TIP3    H166974   4.418   3.418   1.640  2.3095 -1.2723  0.9196
15161TIP3    H266975   4.506   3.449   1.521 -0.2201  1.4222 -0.3941
15162TIP3   OH266976   4.737   1.494  16.569 -0.1535  0.4010 -0.4251
15162TIP3    H166977   4.727   1.538  16.484  0.2597  1.6729  0.1604
15162TIP3    H266978   4.680   1.417  16.563 -1.4758  1.4019 -1.2192
15163TIP3   OH266979   5.601   0.157  17.023  0.2775 -0.6263 -0.3816
15163TIP3    H166980   5.568   0.150  17.112 -0.7369  3.1775 -0.2852
15163TIP3    H266981   5.539   0.106  16.970 -0.1969 -1.3724  0.8634
15164TIP3   OH266982   0.896   2.023   2.665 -0.7572  0.0427  0.4238
15164TIP3    H166983   0.804   2.048   2.657 -0.3238  1.1751 -2.0139
15164TIP3    H266984   0.944   2.105   2.661  0.3971 -0.5941  0.6437
15165TIP3   OH266985   1.339   6.465  11.871  0.5404  0.4153 -0.2453
15165TIP3    H166986   1.386   6.387  11.900 -0.9096 -0.4879 -0.2536
15165TIP3    H266987   1.406   6.518  11.828  1.8880 -0.0694  1.1791
15166TIP3   OH266988   3.470   2.651  12.558  0.1595 -0.2152  0.2132
15166TIP3    H166989   3.502   2.717  12.620  1.6594  0.8335 -1.5738
15166TIP3    H266990   3.516   2.670  12.476 -2.0799 -1.2483 -1.3985
15167TIP3   OH266991   1.273   5.805   3.757 -0.2402  0.2787  0.4141
15167TIP3    H166992   1.188   5.789   3.716 -0.6798  1.1374  0.9595
15167TIP3    H266993   1.333   5.818   3.684 -0.3400 -1.3463 -0.0053
15168TIP3   OH266994   6.387   4.805   3.042 -0.4664  0.2968 -0.5637
15168TIP3    H166995   6.423   4.721   3.013 -0.2855  0.6458 -1.3932
15168TIP3    H266996   6.329   4.783   3.115 -2.6169 -0.9097 -2.5099
15169TIP3   OH266997   2.049   6.865  12.645  0.3778 -0.4524  0.0587
15169TIP3    H166998   2.030   6.957  12.666 -0.1169 -0.4266 -0.4644
15169TIP3    H266999   1.980   6.841  12.583 -0.8436 -1.8197  1.8416
15170TIP3   OH267000   0.138   3.600  16.396 -0.3537 -0.0837  0.5739
15170TIP3    H167001   0.083   3.661  16.445 -0.2879  0.4307  0.0156
15170TIP3    H267002   0.088   3.582  16.317 -0.0296 -0.1569  0.3843
15171TIP3   OH267003   1.781   6.339  13.426 -0.4771  0.4129 -0.5653
15171TIP3    H167004   1.823   6.341  13.512  1.2401 -1.0963 -1.2881
15171TIP3    H267005   1.821   6.263  13.382 -0.6843  1.6149 -2.9756
15172TIP3   OH267006   3.304   6.728  12.122  0.2318  0.2220 -0.2325
15172TIP3    H167007   3.394   6.724  12.152  0.8175  0.5982 -1.8458
15172TIP3    H267008   3.308   6.774  12.038 -1.3182 -0.6531 -0.8387
15173TIP3   OH267009   4.063   4.863   4.575  0.4610 -0.2614 -0.7647
15173TIP3    H167010   4.067   4.929   4.644  1.3340 -0.8001 -0.2900
15173TIP3    H267011   4.140   4.808   4.588 -0.1609 -1.2920 -1.2417
15174TIP3   OH267012   5.050   3.682  11.836 -0.5735 -0.1953 -0.4518
15174TIP3    H167013   5.043   3.706  11.929  3.5702 -1.1503  0.3190
15174TIP3    H267014   5.058   3.766  11.790 -0.3416  0.2378  0.3566
15175TIP3   OH267015   2.189   4.401  14.594  0.0062  0.6756 -0.2721
15175TIP3    H167016   2.241   4.453  14.532 -1.9267  0.5404 -2.1179
15175TIP3    H267017   2.120   4.461  14.623  1.1898  0.9172  2.2866
15176TIP3   OH267018   2.886   0.698  16.563 -0.2974  0.4795 -0.2199
15176TIP3    H167019   2.837   0.738  16.492  1.4944  0.6811 -1.4155
15176TIP3    H267020   2.872   0.757  16.637 -0.0399  1.7753 -1.1631
15177TIP3   OH267021   0.739   3.967   3.303 -0.8277 -0.6733 -0.2469
15177TIP3    H167022   0.657   3.933   3.268 -1.3144  2.2218 -2.2952
15177TIP3    H267023   0.806   3.933   3.244 -1.1287  0.6189 -1.3607
15178TIP3   OH267024   0.840   5.918   3.240  0.2014 -0.3627  0.3431
15178TIP3    H167025   0.928   5.885   3.222 -0.2568 -0.0844 -3.0255
15178TIP3    H267026   0.784   5.840   3.238  0.1968 -0.3982  1.3453
15179TIP3   OH267027   3.633   3.191  14.174 -0.1002  0.4105  0.4402
15179TIP3    H167028   3.550   3.222  14.211 -0.5477  1.4071 -1.2571
15179TIP3    H267029   3.694   3.190  14.248 -0.6567  3.3292  1.0604
15180TIP3   OH267030   3.721   6.108   5.187 -0.1760 -0.0687  0.1249
15180TIP3    H167031   3.676   6.159   5.255 -0.2724 -1.2509  0.9915
15180TIP3    H267032   3.808   6.090   5.224  0.9123  1.7958 -1.3406
15181TIP3   OH267033   6.255   2.106   0.722 -0.0659  0.1174  0.3106
15181TIP3    H167034   6.303   2.151   0.791 -1.1374  2.6496 -0.4720
15181TIP3    H267035   6.319   2.096   0.651  0.2660  0.1874  0.5991
15182TIP3   OH267036   5.925   6.501  11.383 -0.5139 -0.1217 -0.1171
15182TIP3    H167037   5.931   6.593  11.356 -1.3031 -0.3663 -1.1756
15182TIP3    H267038   5.846   6.497  11.436 -0.0088 -0.0276  0.6545
15183TIP3   OH267039   2.530   2.179   6.570 -0.5618 -0.2068  1.2306
15183TIP3    H167040   2.596   2.117   6.539 -1.7257 -2.1705  2.4668
15183TIP3    H267041   2.580   2.257   6.594  1.1392 -1.1434  0.8982
15184TIP3   OH267042   3.977   4.889  16.295 -0.8198 -0.0165 -0.6770
15184TIP3    H167043   4.043   4.958  16.300 -0.5183 -0.2519 -1.3294
15184TIP3    H267044   4.020   4.812  16.332 -0.8422 -0.0842 -0.7904
15185TIP3   OH267045   3.314   0.300   3.825 -0.0696  0.1763  0.0370
15185TIP3    H167046   3.305   0.350   3.743 -0.0033  1.3881  0.7356
15185TIP3    H267047   3.223   0.281   3.850 -0.0825 -0.4429 -0.4443
15186TIP3   OH267048   4.573   4.890  15.262  0.3568  0.3549 -0.1963
15186TIP3    H167049   4.623   4.811  15.239  0.4500  0.1397  0.7136
15186TIP3    H267050   4.638   4.960  15.262  0.4013  0.3142 -0.3531
15187TIP3   OH267051   0.478   5.368  10.704  0.1230 -0.2412  0.0767
15187TIP3    H167052   0.390   5.332  10.696 -0.0082 -0.3035  1.4381
15187TIP3    H267053   0.512   5.369  10.615 -0.9429 -1.0015 -0.3643
15188TIP3   OH267054   3.155   5.814  11.759  0.1019 -0.1243 -0.8121
15188TIP3    H167055   3.152   5.910  11.764  2.4412  0.1248 -2.4882
15188TIP3    H267056   3.065   5.788  11.740 -0.5711  1.7268 -0.4201
15189TIP3   OH267057   5.476   1.980   5.862  0.0579  0.1255 -0.2868
15189TIP3    H167058   5.483   1.933   5.778 -0.4214 -1.4995  0.5465
15189TIP3    H267059   5.526   1.927   5.923  0.3212  1.2519  0.5027
15190TIP3   OH267060   1.231   5.123   6.186  0.1049 -0.1171 -0.0979
15190TIP3    H167061   1.288   5.197   6.166 -0.8264  0.5362 -0.3958
15190TIP3    H267062   1.224   5.122   6.281 -1.4188  1.4018 -0.1482
15191TIP3   OH267063   1.947   3.837   3.715 -0.1756 -0.2304 -0.3504
15191TIP3    H167064   2.015   3.801   3.658  1.2521  0.2090  0.9919
15191TIP3    H267065   1.908   3.761   3.757  1.8000 -0.3827  1.3439
15192TIP3   OH267066   4.925   0.694   1.670 -0.0650 -0.2160 -0.1840
15192TIP3    H167067   4.845   0.680   1.619 -0.6494  1.2854  0.2623
15192TIP3    H267068   4.934   0.789   1.676  2.2364 -0.3122 -0.9248
15193TIP3   OH267069   1.884   3.109   3.898 -0.5475 -0.6015  0.7132
15193TIP3    H167070   1.886   3.086   3.805  2.1662 -0.1349  0.5534
15193TIP3    H267071   1.917   3.032   3.943 -2.8498 -1.2201  1.4868
15194TIP3   OH267072   2.286   4.404   5.987  0.0735 -0.1087  0.0675
15194TIP3    H167073   2.343   4.383   5.913  0.1151 -0.7875  0.2887
15194TIP3    H267074   2.238   4.482   5.958  0.2708 -0.2148 -0.5731
15195TIP3   OH267075   0.149   4.412   2.966  0.2798  0.4191 -0.6714
15195TIP3    H167076   0.069   4.463   2.954 -0.6195 -0.5706  0.7592
15195TIP3    H267077   0.119   4.321   2.974  1.2702  0.2377  1.9846
15196TIP3   OH267078   0.794   1.130  16.343 -0.4727  0.1110 -0.0239
15196TIP3    H167079   0.804   1.037  16.362 -1.7550 -0.3807 -1.5443
15196TIP3    H267080   0.871   1.152  16.290 -0.2585 -0.1344  0.1875
15197TIP3   OH267081   3.265   1.942  15.812  0.6415 -0.2699  0.2387
15197TIP3    H167082   3.356   1.952  15.840  0.3618  0.3426  0.9525
15197TIP3    H267083   3.250   2.016  15.753  0.0057  0.8309  1.7388
15198TIP3   OH267084   6.221   3.471  12.404  1.0486 -0.4014  0.3381
15198TIP3    H167085   6.180   3.448  12.488  0.5071 -0.7251 -0.0073
15198TIP3    H267086   6.301   3.517  12.429 -0.9629  3.0655  1.1161
15199TIP3   OH267087   1.316   3.324  13.455 -0.0974  0.4226 -0.1817
15199TIP3    H167088   1.246   3.276  13.499 -0.2071  0.0230 -0.7745
15199TIP3    H267089   1.323   3.407  13.503  0.8852 -0.6403  1.5905
15200TIP3   OH267090   5.216   3.323  12.659  0.0526  0.3246 -0.3321
15200TIP3    H167091   5.286   3.274  12.703  1.3720  1.9739 -0.4693
15200TIP3    H267092   5.146   3.328  12.724  0.1834 -1.0823 -0.0667
15201TIP3   OH267093   4.083   5.070   4.739 -0.1496  0.2104  0.3883
15201TIP3    H167094   4.032   5.059   4.819  0.5423 -0.5733  0.7334
15201TIP3    H267095   4.124   5.156   4.749  0.5727 -0.2244  1.2475
15202TIP3   OH267096   2.740   0.584  11.967  0.4158  0.5506  0.0086
15202TIP3    H167097   2.715   0.571  11.875 -0.8219 -0.6726  0.4697
15202TIP3    H267098   2.738   0.679  11.980 -0.0510  0.6986 -1.0566
15203TIP3   OH267099   6.671   6.366   1.163  0.1340  0.1593  0.5896
15203TIP3    H167100   6.579   6.361   1.188 -0.0858  0.8216 -0.0628
15203TIP3    H267101   6.716   6.395   1.243 -0.0340 -1.3342  1.2679
15204TIP3   OH267102   0.437   2.810   0.103 -0.5895  0.3354 -0.1761
15204TIP3    H167103   0.510   2.826   0.043  0.2734  1.4072  1.0836
15204TIP3    H267104   0.427   2.893   0.151 -0.1276 -0.9300  2.2834
15205TIP3   OH267105   6.027   5.247   5.034  0.0630  0.1921  0.3382
15205TIP3    H167106   5.950   5.284   4.992  0.2855  0.5256  0.2195
15205TIP3    H267107   6.098   5.262   4.972  0.4049  0.7254  0.8454
15206TIP3   OH267108   3.258   4.603  11.431  0.2608 -0.5277  0.1685
15206TIP3    H167109   3.162   4.597  11.422  0.2920 -2.7304  0.8125
15206TIP3    H267110   3.277   4.696  11.416 -2.0942  0.1835  1.0509
15207TIP3   OH267111   1.924   1.159  12.828 -0.4945  0.0292 -0.5395
15207TIP3    H167112   1.950   1.200  12.910  0.5075 -2.0614  0.2534
15207TIP3    H267113   2.006   1.127  12.790 -0.9191  1.0504 -2.4542
15208TIP3   OH267114   5.134   4.247  16.734 -0.8591 -0.0162  0.1062
15208TIP3    H167115   5.045   4.281  16.724 -0.8061 -0.0701 -0.6012
15208TIP3    H267116   5.188   4.324  16.746 -0.7478  0.1844 -1.4305
15209TIP3   OH267117   3.482   5.615   0.924 -0.3636 -0.0303 -0.6226
15209TIP3    H167118   3.391   5.645   0.924 -0.6357 -0.7609 -2.0010
15209TIP3    H267119   3.498   5.586   1.014 -1.7235 -0.5359 -0.5175
15210TIP3   OH267120   4.416   2.787  16.985 -0.1129  0.2335 -0.0543
15210TIP3    H167121   4.484   2.723  17.006 -0.1403  0.2601  0.1130
15210TIP3    H267122   4.337   2.734  16.970 -0.0726  0.2083 -0.1787
15211TIP3   OH267123   2.049   2.473   1.101  0.1715  0.3361  0.8210
15211TIP3    H167124   1.993   2.395   1.102  0.4578  0.1278  2.1546
15211TIP3    H267125   2.104   2.464   1.179  1.2032  1.1625  0.2168
15212TIP3   OH267126   1.609   2.895  16.055  0.5548 -0.6536 -0.2887
15212TIP3    H167127   1.641   2.821  16.106  1.0424 -0.5186 -0.3887
15212TIP3    H267128   1.687   2.926  16.008 -0.0609 -1.3237 -1.7979
15213TIP3   OH267129   3.352   5.204  16.097 -0.3259 -0.3000  0.1944
15213TIP3    H167130   3.280   5.251  16.056  0.2821  0.0059 -0.5555
15213TIP3    H267131   3.393   5.269  16.155  0.1468 -0.0754 -0.3852
15214TIP3   OH267132   0.412   6.815   3.750  0.1661  0.5813  0.0541
15214TIP3    H167133   0.372   6.807   3.836 -0.4970 -0.3411 -0.3207
15214TIP3    H267134   0.428   6.909   3.739  0.4272  0.6891  1.2458
15215TIP3   OH267135   2.884   0.800   6.281 -0.0978 -0.3465  0.3030
15215TIP3    H167136   2.801   0.837   6.251  0.2737 -0.9810 -1.6206
15215TIP3    H267137   2.907   0.734   6.216  1.1166 -1.3605  1.6735
15216TIP3   OH267138   4.378   6.168  13.606 -0.8346  0.0346  0.2252
15216TIP3    H167139   4.466   6.147  13.573 -1.4142 -1.5477 -0.3975
15216TIP3    H267140   4.379   6.139  13.697  0.2765  3.0138  1.2852
15217TIP3   OH267141   0.806   5.278  15.582 -0.1667 -0.0819 -0.2125
15217TIP3    H167142   0.878   5.308  15.638 -0.3522  2.7870 -1.3377
15217TIP3    H267143   0.809   5.337  15.506 -4.0826  0.6388 -0.0216
15218TIP3   OH267144   3.201   6.210  15.258 -0.3872 -0.6368  0.0157
15218TIP3    H167145   3.193   6.260  15.339 -0.4729 -0.8005  0.1082
15218TIP3    H267146   3.263   6.140  15.279 -0.2409 -0.5500 -0.1242
15219TIP3   OH267147   5.481   6.568   5.351 -0.3307 -0.1418  0.3151
15219TIP3    H167148   5.548   6.636   5.345 -0.5126 -0.0255 -0.5694
15219TIP3    H267149   5.526   6.495   5.394 -0.3149  0.7302  1.8853
15220TIP3   OH267150   0.440   5.839  12.618 -0.8474  1.1460 -0.6542
15220TIP3    H167151   0.408   5.872  12.534 -1.6770  0.5060 -0.6050
15220TIP3    H267152   0.383   5.764  12.637 -0.2157  0.8579  0.1402
15221TIP3   OH267153   6.310   6.228  12.331  0.2636  0.4497 -0.5595
15221TIP3    H167154   6.243   6.295  12.337 -0.1064  0.0365 -0.0472
15221TIP3    H267155   6.290   6.167  12.402  2.4334  1.4463  1.0256
15222TIP3   OH267156   5.223   3.723   3.500  0.3202 -0.1824  0.4259
15222TIP3    H167157   5.128   3.718   3.489  0.3581  0.3743 -0.2735
15222TIP3    H267158   5.252   3.632   3.502 -0.3028 -0.3734  1.4872
15223TIP3   OH267159   4.017   6.394   4.414 -0.0175  0.1851  0.0635
15223TIP3    H167160   4.085   6.370   4.478  0.2922 -0.9191 -0.6446
15223TIP3    H267161   4.051   6.473   4.372  0.4277  0.1228  0.2988
15224TIP3   OH267162   0.122   3.331  12.549  0.4004 -0.0298  0.3562
15224TIP3    H167163   0.131   3.269  12.477 -2.0628  0.3299 -0.3587
15224TIP3    H267164   0.062   3.289  12.610  1.1586  0.3699  1.4037
15225TIP3   OH267165   3.668   4.595   3.242 -0.2436  0.0168  0.0685
15225TIP3    H167166   3.606   4.568   3.175  0.8137  0.1070 -0.9707
15225TIP3    H267167   3.673   4.520   3.302 -0.5393 -0.4074 -0.4346
15226TIP3   OH267168   3.717   2.806  13.575 -0.0108 -0.2170  0.0015
15226TIP3    H167169   3.800   2.760  13.568 -0.1699 -0.4612 -0.2940
15226TIP3    H267170   3.736   2.881  13.632  0.1828 -0.8034  0.7201
15227TIP3   OH267171   5.844   6.740   5.528  0.3385  0.3363 -0.6012
15227TIP3    H167172   5.918   6.689   5.496 -0.8576 -0.0624 -2.9136
15227TIP3    H267173   5.795   6.764   5.450 -2.7677 -0.6143  0.8737
15228TIP3   OH267174   0.195   2.148   3.903 -0.5109  0.3453  0.4913
15228TIP3    H167175   0.254   2.117   3.833 -0.6884 -0.7874  0.8267
15228TIP3    H267176   0.119   2.181   3.856  0.0425  1.1035  0.0874
15229TIP3   OH267177   4.522   3.581  11.502 -0.3347 -0.0379 -0.4953
15229TIP3    H167178   4.539   3.488  11.484 -0.4042  0.1351 -1.5070
15229TIP3    H267179   4.434   3.596  11.467 -0.6012  0.2580  0.2739
15230TIP3   OH267180   4.082   1.350  15.821 -0.0094 -0.5611  0.8969
15230TIP3    H167181   4.058   1.263  15.789  0.2202 -0.9386  1.7175
15230TIP3    H267182   4.079   1.406  15.743 -4.2557 -0.3497  0.9729
15231TIP3   OH267183   2.974   4.512  16.075 -0.3754 -0.7166 -0.3927
15231TIP3    H167184   3.061   4.552  16.081 -0.4796 -0.5502  0.0106
15231TIP3    H267185   2.991   4.419  16.057 -0.1304 -0.5061 -1.3435
15232TIP3   OH267186   3.139   2.371   3.452  0.5463  0.2302  0.2264
15232TIP3    H167187   3.079   2.306   3.415  0.4326  0.4840 -0.0447
15232TIP3    H267188   3.085   2.420   3.514  0.3061  0.8509 -0.4591
15233TIP3   OH267189   5.989   1.659   2.512 -0.5415  0.4863  0.2580
15233TIP3    H167190   6.016   1.647   2.603 -0.3308  0.2655  0.1654
15233TIP3    H267191   5.965   1.752   2.506 -0.7478  0.4576  0.5891
15234TIP3   OH267192   4.721   5.042   3.169 -0.0649  0.2376 -0.2292
15234TIP3    H167193   4.760   5.039   3.081 -0.5710 -2.7570 -0.4693
15234TIP3    H267194   4.651   5.106   3.162  0.6019  0.8516 -1.6801
15235TIP3   OH267195   5.115   1.170  13.904  0.1558 -0.3730 -0.0205
15235TIP3    H167196   5.041   1.164  13.843  0.7571 -0.5426 -0.7471
15235TIP3    H267197   5.147   1.260  13.894  0.9097 -0.7056 -0.7534
15236TIP3   OH267198   6.277   4.397   5.330  0.2973 -0.7638 -0.2275
15236TIP3    H167199   6.243   4.485   5.342 -0.1056 -1.1964  2.3072
15236TIP3    H267200   6.227   4.362   5.257 -1.9643 -0.0167  0.8826
15237TIP3   OH267201   2.729   3.351  10.823  0.1609 -0.0660 -0.2015
15237TIP3    H167202   2.761   3.420  10.880  0.0432  0.9693 -1.3488
15237TIP3    H267203   2.745   3.383  10.734  2.6931 -2.7016 -0.8515
15238TIP3   OH267204   1.080   5.584   2.724 -0.6085 -0.0501  0.0824
15238TIP3    H167205   0.999   5.542   2.754  0.1319 -0.7265  1.2331
15238TIP3    H267206   1.133   5.512   2.691  0.4560  0.0074  1.5502
15239TIP3   OH267207   1.925   6.368  13.070  0.0019 -0.6989 -0.4177
15239TIP3    H167208   1.875   6.409  13.140 -0.3426 -0.0341 -1.0366
15239TIP3    H267209   2.015   6.396  13.084 -0.2363  0.3206 -0.8544
15240TIP3   OH267210   5.395   1.714   1.062  0.4365  0.1668  0.0184
15240TIP3    H167211   5.347   1.700   1.143 -0.6856  0.6125 -0.5528
15240TIP3    H267212   5.483   1.679   1.080 -0.7378 -2.9196  0.2684
15241TIP3   OH267213   5.409   1.870   0.182  0.3721  0.3313 -0.0494
15241TIP3    H167214   5.336   1.816   0.214  1.4874 -1.1131  0.1530
15241TIP3    H267215   5.411   1.855   0.088  0.8379 -0.2001  0.0401
15242TIP3   OH267216   0.129   6.284   0.274  0.2433 -0.6205  0.0527
15242TIP3    H167217   0.050   6.243   0.238  0.0047 -0.1893  0.0763
15242TIP3    H267218   0.151   6.352   0.211  0.5052 -0.6320  0.1318
15243TIP3   OH267219   0.245   4.089   4.634 -0.4141 -0.5256 -0.1440
15243TIP3    H167220   0.295   4.012   4.607 -2.8888 -2.4277  0.3013
15243TIP3    H267221   0.161   4.080   4.589 -0.4067  2.5946 -0.9635
15244TIP3   OH267222   2.920   2.353   5.049  0.5105  0.8890  0.4803
15244TIP3    H167223   2.965   2.435   5.066  0.9332  0.9084 -0.6512
15244TIP3    H267224   2.958   2.321   4.967  1.5377 -1.2601  1.7063
15245TIP3   OH267225   4.489   5.901   2.953  0.4291 -0.3788 -0.3713
15245TIP3    H167226   4.571   5.851   2.950 -0.9482 -2.7803 -0.8662
15245TIP3    H267227   4.475   5.928   2.862  1.3862  1.3667 -0.0336
15246TIP3   OH267228   4.845   5.194   5.986 -0.3549  0.3834  0.3125
15246TIP3    H167229   4.834   5.099   5.979 -1.8338  0.6567 -4.6635
15246TIP3    H267230   4.782   5.220   6.053 -4.1689 -1.8384 -2.0192
15247TIP3   OH267231   2.598   1.266  13.585 -0.1006  0.0084 -0.4845
15247TIP3    H167232   2.652   1.268  13.506  2.6635  2.4322  1.2559
15247TIP3    H267233   2.592   1.174  13.608  3.1794 -0.4439 -0.9600
15248TIP3   OH267234   0.823   6.390  14.038 -0.7742 -0.6624 -0.3320
15248TIP3    H167235   0.836   6.370  14.131  1.1628  0.1124 -0.3827
15248TIP3    H267236   0.818   6.305  13.995 -2.3871 -1.0426  0.5352
15249TIP3   OH267237   5.667   4.930   2.476  0.1010 -0.1340  0.3851
15249TIP3    H167238   5.604   4.880   2.425  1.2846 -1.5732  0.2692
15249TIP3    H267239   5.660   5.019   2.443 -1.8900 -0.2392  0.4267
15250TIP3   OH267240   0.100   5.176   3.529 -0.5520  0.0375  0.1964
15250TIP3    H167241   0.111   5.258   3.577 -2.3104 -0.5141  1.6627
15250TIP3    H267242   0.066   5.203   3.443 -0.2197  0.8845  0.3215
15251TIP3   OH267243   1.151   6.292  13.270  0.6785  0.7877  0.2963
15251TIP3    H167244   1.172   6.232  13.198  0.5740  0.3727  0.6154
15251TIP3    H267245   1.094   6.358  13.229  1.6833  1.3102 -0.3198
15252TIP3   OH267246   5.997   2.529   0.982 -0.0375 -0.5228 -0.0403
15252TIP3    H167247   6.002   2.552   1.075  0.3499 -1.0126  0.0639
15252TIP3    H267248   5.918   2.574   0.951 -0.4630 -0.7697  0.6482
15253TIP3   OH267249   3.390   6.231  14.393 -0.4757  0.2711 -0.2465
15253TIP3    H167250   3.321   6.279  14.346 -1.1909  0.6544  1.1372
15253TIP3    H267251   3.376   6.254  14.485  0.5595 -0.8714  0.2142
15254TIP3   OH267252   2.531   6.426  13.203  0.3415 -0.1211 -0.0494
15254TIP3    H167253   2.583   6.346  13.211 -0.1612 -0.3051  1.6850
15254TIP3    H267254   2.596   6.495  13.194  0.8283 -0.5630 -0.0100
15255TIP3   OH267255   5.924   0.398  14.418  0.1281 -0.4493  0.6236
15255TIP3    H167256   5.887   0.355  14.340  0.8977 -0.4445  0.2515
15255TIP3    H267257   5.854   0.392  14.483 -1.6502  2.0134 -0.8779
15256TIP3   OH267258   0.518   0.552  14.777  0.0304 -0.3319  0.0337
15256TIP3    H167259   0.510   0.638  14.738  1.3478 -0.3306 -0.2853
15256TIP3    H267260   0.441   0.543  14.832 -0.1919  0.9918 -0.0349
15257TIP3   OH267261   6.620   6.055  13.223 -0.2818  0.3022  0.5369
15257TIP3    H167262   6.702   6.026  13.184 -0.0705  0.1814  1.0591
15257TIP3    H267263   6.640   6.142  13.258 -0.5660  0.5556  0.0723
15258TIP3   OH267264   3.678   5.044  11.454 -0.1029 -0.0699 -0.4576
15258TIP3    H167265   3.705   5.134  11.475 -0.8469 -0.1157  0.8045
15258TIP3    H267266   3.584   5.044  11.470  0.2492 -1.7294  2.1620
15259TIP3   OH267267   6.076   6.548   2.631 -0.8622 -0.5542 -0.0183
15259TIP3    H167268   6.083   6.640   2.606 -1.2017  0.0623  1.9612
15259TIP3    H267269   6.152   6.506   2.591 -0.4099  0.7020 -0.5267
15260TIP3   OH267270   2.781   3.812   2.911 -0.2135  0.0697  0.1991
15260TIP3    H167271   2.806   3.854   2.828 -1.0857 -0.3965 -0.3192
15260TIP3    H267272   2.783   3.883   2.975 -0.9234  0.7645 -0.5170
15261TIP3   OH267273   6.761   3.008  11.407  0.1058  0.3648 -0.4837
15261TIP3    H167274   6.741   3.090  11.452 -0.0712  0.1816 -0.2304
15261TIP3    H267275   6.748   3.028  11.314 -3.3439 -0.2883 -0.2805
15262TIP3   OH267276   5.747   5.151  11.927  0.3568  0.2428 -0.1305
15262TIP3    H167277   5.815   5.150  11.860  0.0358  0.9416 -0.4780
15262TIP3    H267278   5.790   5.186  12.005  0.7510 -0.6487  0.0603
15263TIP3   OH267279   3.039   4.015  15.225 -0.2161  0.0084 -0.8191
15263TIP3    H167280   2.984   3.976  15.293 -0.4658  0.2198 -0.9006
15263TIP3    H267281   2.996   4.097  15.202 -0.0486  0.0150 -1.1238
15264TIP3   OH267282   6.105   2.045   5.962  0.0910  0.4944  0.1745
15264TIP3    H167283   6.094   2.063   6.056 -0.6974 -1.7952  0.5769
15264TIP3    H267284   6.130   1.953   5.958 -2.4545 -0.2051 -1.9931
15265TIP3   OH267285   3.010   1.234   1.622 -0.1208  0.5977  0.0432
15265TIP3    H167286   3.013   1.309   1.682  1.8170 -0.6537  1.6393
15265TIP3    H267287   3.003   1.158   1.679 -0.9424 -0.5375 -1.4923
15266TIP3   OH267288   2.592   0.554   2.483  0.5172 -0.4638  0.3202
15266TIP3    H167289   2.643   0.476   2.505  1.2079 -0.3905 -0.9278
15266TIP3    H267290   2.508   0.540   2.525  1.0837 -1.2558  1.2379
15267TIP3   OH267291   2.018   4.516   3.622  0.6653 -0.1671  0.4008
15267TIP3    H167292   1.970   4.599   3.614 -0.5731 -0.8941 -0.0344
15267TIP3    H267293   1.955   4.457   3.664  1.6362 -0.8141  0.9656
15268TIP3   OH267294   2.105   5.595   1.521  0.0103 -0.4782  0.7789
15268TIP3    H167295   2.152   5.564   1.599  0.0280 -1.0906  0.5338
15268TIP3    H267296   2.137   5.684   1.507  0.5602 -0.6335  1.0380
15269TIP3   OH267297   2.433   6.502   2.136  0.3964 -0.1856  0.1813
15269TIP3    H167298   2.438   6.462   2.049 -0.7571 -0.9907  0.4656
15269TIP3    H267299   2.492   6.449   2.190  0.8244  0.0814 -0.0205
15270TIP3   OH267300   5.406   2.977   3.710 -0.1245 -0.4719  0.0413
15270TIP3    H167301   5.385   3.010   3.622  0.9055  0.0840 -0.0118
15270TIP3    H267302   5.502   2.977   3.713 -0.0108  3.5417  2.6023
15271TIP3   OH267303   1.441   6.399   1.015  0.4308  0.1262  0.3629
15271TIP3    H167304   1.495   6.471   1.045  1.5206  0.1653 -1.5440
15271TIP3    H267305   1.368   6.441   0.970 -0.0141  0.0303  0.9690
15272TIP3   OH267306   6.177   6.790   4.180  0.1547  0.0006  0.3856
15272TIP3    H167307   6.126   6.711   4.197  2.1852 -1.2637  0.9316
15272TIP3    H267308   6.184   6.833   4.266 -0.3162  0.4029  0.2294
15273TIP3   OH267309   4.667   1.129   3.082  0.1266  0.3720  0.3099
15273TIP3    H167310   4.727   1.131   3.007  0.3842  0.7480  0.5280
15273TIP3    H267311   4.721   1.149   3.158 -0.3066  0.8930  0.4904
15274TIP3   OH267312   4.752   1.715   4.621  0.5264  0.0438  0.1497
15274TIP3    H167313   4.708   1.765   4.552 -0.8361 -1.8188 -0.3884
15274TIP3    H267314   4.725   1.756   4.703 -0.6867  0.1066 -0.2750
15275TIP3   OH267315   3.070   2.644   5.360  0.1196  0.3449  0.1079
15275TIP3    H167316   3.044   2.736   5.345  1.7142  0.9330  0.7593
15275TIP3    H267317   3.060   2.602   5.274  1.8591  1.7818 -0.8624
15276TIP3   OH267318   3.439   1.847  14.538  0.2194 -0.4317 -0.7114
15276TIP3    H167319   3.498   1.914  14.571 -0.6727 -0.0051  0.0617
15276TIP3    H267320   3.443   1.855  14.443 -0.0395  0.8657 -0.6233
15277TIP3   OH267321   4.992   4.566  12.063 -0.0707 -0.7625  0.2671
15277TIP3    H167322   4.942   4.513  12.002 -1.1997  0.6228 -0.0588
15277TIP3    H267323   5.061   4.606  12.010 -0.4170 -0.3788  0.0996
15278TIP3   OH267324   0.117   0.240   2.347 -0.6523 -0.3919 -0.6570
15278TIP3    H167325   0.202   0.215   2.383 -1.1886 -2.0269 -0.4634
15278TIP3    H267326   0.123   0.335   2.337  1.2868 -0.4902 -0.8943
15279TIP3   OH267327   4.431   5.780  12.288  0.1239 -0.2211  0.8180
15279TIP3    H167328   4.437   5.688  12.312  2.9413 -0.7722 -1.3647
15279TIP3    H267329   4.511   5.819  12.324  2.0331 -0.0795 -3.0105
15280TIP3   OH267330   3.998   0.321  11.681 -0.8424 -0.7237 -0.1870
15280TIP3    H167331   4.043   0.265  11.617 -0.9707  0.6682 -1.5258
15280TIP3    H267332   3.917   0.347  11.639 -1.0543  0.0225  0.6461
15281TIP3   OH267333   4.215   0.933  14.431 -0.0721  0.3215 -0.1778
15281TIP3    H167334   4.160   0.863  14.395  0.1467  0.1787 -0.2327
15281TIP3    H267335   4.174   1.013  14.399 -0.0284  0.2023 -0.5324
15282TIP3   OH267336   2.763   1.859  16.045 -0.3314 -0.8772  0.7354
15282TIP3    H167337   2.757   1.788  15.980 -1.7520 -0.4763  0.4002
15282TIP3    H267338   2.827   1.827  16.109  3.4154 -0.1502 -2.2130
15283TIP3   OH267339   5.115   0.670   6.238 -0.1348 -0.1405  0.3792
15283TIP3    H167340   5.074   0.750   6.272 -1.2922  0.7643 -2.7829
15283TIP3    H267341   5.056   0.640   6.169  2.6082 -0.9412 -1.8092
15284TIP3   OH267342   4.096   0.129  13.829 -0.0377  0.3299 -0.2256
15284TIP3    H167343   4.056   0.174  13.754  1.0895 -0.8385 -1.6005
15284TIP3    H267344   4.162   0.191  13.861  0.2964  0.3831 -0.9849
15285TIP3   OH267345   6.557   1.610   5.369  0.2085 -0.2773  0.3814
15285TIP3    H167346   6.514   1.692   5.392  1.0094  0.1566  0.3638
15285TIP3    H267347   6.490   1.560   5.322  0.4454  1.4298 -1.9393
15286TIP3   OH267348   6.833   2.331   2.952 -0.3651  0.0282 -0.1821
15286TIP3    H167349   6.833   2.346   2.857 -0.9173  1.3019 -0.0031
15286TIP3    H267350   6.914   2.373   2.982 -1.9934  3.1380  0.3427
15287TIP3   OH267351   5.692   1.242   2.424 -0.2983 -0.1561  0.0614
15287TIP3    H167352   5.604   1.256   2.388 -0.2604 -0.3835 -0.1239
15287TIP3    H267353   5.684   1.264   2.517 -0.3134  0.7767 -0.1488
15288TIP3   OH267354   1.342   6.551  16.746  0.6709  0.3421  0.0916
15288TIP3    H167355   1.425   6.597  16.754 -0.1052  1.7925  0.1447
15288TIP3    H267356   1.313   6.538  16.836  1.3957 -1.2534  0.1145
15289TIP3   OH267357   6.574   5.850  11.409 -0.2140 -0.5496  0.2419
15289TIP3    H167358   6.637   5.922  11.403  0.4638 -0.8333  2.8577
15289TIP3    H267359   6.597   5.793  11.335  1.3679  0.2875  0.0341
15290TIP3   OH267360   4.591   4.039   5.159 -0.4117 -0.0869  0.4835
15290TIP3    H167361   4.531   4.096   5.111 -0.3823 -0.9804 -0.6647
15290TIP3    H267362   4.563   4.047   5.250  0.6623  3.0292  0.6490
15291TIP3   OH267363   4.183   2.684   3.192 -0.4763 -0.7566  0.1565
15291TIP3    H167364   4.172   2.664   3.099 -3.1591  0.1052  0.2295
15291TIP3    H267365   4.239   2.762   3.193  0.3395 -1.3130 -0.6650
15292TIP3   OH267366   3.756   3.034  15.538  0.2059 -0.0471 -0.3190
15292TIP3    H167367   3.712   3.110  15.576 -2.3933 -0.3654 -2.4103
15292TIP3    H267368   3.780   2.980  15.614 -0.1408  1.6585  1.0721
15293TIP3   OH267369   1.327   2.755   5.261  0.2963  0.0013  0.7214
15293TIP3    H167370   1.323   2.729   5.353  0.9859  0.2338  0.8247
15293TIP3    H267371   1.405   2.710   5.228  0.4057  0.4208  0.4084
15294TIP3   OH267372   1.533   1.596   0.846  0.4596  0.3681  0.1612
15294TIP3    H167373   1.621   1.585   0.881  0.8952 -0.8328 -1.2034
15294TIP3    H267374   1.496   1.508   0.845 -0.3136  0.6870 -0.3397
15295TIP3   OH267375   5.598   6.116   1.532  0.3900 -0.0061 -0.0126
15295TIP3    H167376   5.620   6.206   1.554  0.8397 -0.4401  1.4064
15295TIP3    H267377   5.632   6.064   1.605 -0.7181 -1.2242 -0.3260
15296TIP3   OH267378   6.783   5.542  13.490  0.4640 -0.0379  0.2845
15296TIP3    H167379   6.767   5.628  13.528 -1.1158 -0.0499 -0.2814
15296TIP3    H267380   6.862   5.511  13.534  0.1738  1.0286  1.6393
15297TIP3   OH267381   2.627   0.369  12.750 -0.2632 -0.0381  0.3622
15297TIP3    H167382   2.663   0.292  12.794 -1.2163 -0.7337 -0.0534
15297TIP3    H267383   2.703   0.412  12.712  0.6142  0.6418  2.7297
15298TIP3   OH267384   3.631   0.737   3.852 -0.5963 -0.0325  0.3496
15298TIP3    H167385   3.682   0.661   3.879  0.6582  0.5374 -0.3240
15298TIP3    H267386   3.599   0.776   3.934  2.1795  1.0269  1.0363
15299TIP3   OH267387   6.125   1.472   3.757  0.1312 -0.1114  0.6906
15299TIP3    H167388   6.114   1.534   3.829  1.8100  1.9440 -0.6671
15299TIP3    H267389   6.122   1.527   3.678  2.1051 -1.6499 -0.5731
15300TIP3   OH267390   2.404   2.419  16.118  0.0414  0.1521  0.2770
15300TIP3    H167391   2.341   2.360  16.159 -0.7757  0.3783 -0.6108
15300TIP3    H267392   2.482   2.414  16.173 -0.0972 -1.5444  0.3527
15301TIP3   OH267393   2.667   3.136   5.761  0.3807  0.8955 -0.4564
15301TIP3    H167394   2.720   3.215   5.763  1.5714  0.1031  0.2719
15301TIP3    H267395   2.597   3.152   5.825 -0.1750  1.8719 -1.2917
15302TIP3   OH267396   2.725   5.617   3.981  0.6383  0.1888 -0.6222
15302TIP3    H167397   2.685   5.547   4.032  0.3638 -0.0413 -1.1472
15302TIP3    H267398   2.746   5.684   4.045 -0.6646  0.3522 -0.3255
15303TIP3   OH267399   5.082   5.083  13.122  0.5958 -0.3454  0.4787
15303TIP3    H167400   5.087   5.050  13.032  0.0671  1.4130 -0.2272
15303TIP3    H267401   5.161   5.049  13.164 -0.0608 -2.7709 -0.0592
15304TIP3   OH267402   3.059   1.364  16.915  0.0427  0.6144  0.3645
15304TIP3    H167403   3.112   1.440  16.941 -0.1790  0.6187  0.8069
15304TIP3    H267404   3.014   1.337  16.995  0.4980 -0.2895  0.3274
15305TIP3   OH267405   3.406   0.020  10.981  0.0626  0.2193  0.1142
15305TIP3    H167406   3.325   0.069  10.990 -0.9411 -1.5624  1.0978
15305TIP3    H267407   3.417   0.009  10.886 -1.5264 -0.5774 -0.0044
15306TIP3   OH267408   3.927   0.301   5.010  0.0038 -0.1028 -0.7588
15306TIP3    H167409   3.848   0.310   4.958  0.2120  0.0846 -1.0399
15306TIP3    H267410   3.897   0.258   5.091 -1.2803  3.9785  1.1851
15307TIP3   OH267411   5.286   5.393  12.268  0.0566 -0.1027  0.4369
15307TIP3    H167412   5.373   5.433  12.261  0.4846 -0.5860  2.4642
15307TIP3    H267413   5.235   5.456  12.318  0.2283 -1.2334  2.1139
15308TIP3   OH267414   6.688   0.487   4.419 -0.0265  0.1818  0.7681
15308TIP3    H167415   6.628   0.491   4.345  0.0260  1.9115  0.7803
15308TIP3    H267416   6.772   0.460   4.381  0.1813  1.7480  0.0444
15309TIP3   OH267417   4.457   1.946   1.645 -0.1401  0.2161 -0.0379
15309TIP3    H167418   4.434   1.895   1.723 -1.7004 -0.3194 -0.8046
15309TIP3    H267419   4.480   1.880   1.579 -0.0872  0.5893 -0.3980
15310TIP3   OH267420   1.389   3.894   4.317 -0.1595 -0.0013 -0.2450
15310TIP3    H167421   1.425   3.859   4.399 -1.2032  0.3554  0.3927
15310TIP3    H267422   1.431   3.842   4.248 -2.3671 -3.3607  0.6488
15311TIP3   OH267423   1.166   4.960   3.865  0.3299 -0.6792 -0.5059
15311TIP3    H167424   1.140   4.946   3.956  0.3469  1.0458 -0.1893
15311TIP3    H267425   1.102   4.911   3.814  0.2763 -1.6181  0.4365
15312TIP3   OH267426   6.512   1.920   5.775 -0.4658 -0.1549 -0.6159
15312TIP3    H167427   6.420   1.923   5.799 -0.1924 -2.2422  1.0907
15312TIP3    H267428   6.558   1.919   5.859  1.0833  0.4055 -1.4270
15313TIP3   OH267429   1.110   5.191  14.312 -0.3779 -0.4594  0.1817
15313TIP3    H167430   1.088   5.098  14.313  1.0513 -0.8274 -0.4082
15313TIP3    H267431   1.196   5.196  14.353  0.2155  0.4051 -1.0837
15314TIP3   OH267432   5.277   2.065  15.404  0.3409  0.7524  0.0323
15314TIP3    H167433   5.346   2.016  15.357  0.2502  0.2081  0.4521
15314TIP3    H267434   5.196   2.041  15.359  0.1907 -0.1743  0.7723
15315TIP3   OH267435   2.198   0.112   2.646 -0.2414 -0.6705 -0.6083
15315TIP3    H167436   2.117   0.061   2.649  0.6076 -2.0739 -0.9641
15315TIP3    H267437   2.227   0.116   2.737 -1.2413  0.7855 -0.3085
15316TIP3   OH267438   2.692   1.755   0.808 -0.0329  0.0259  0.5173
15316TIP3    H167439   2.630   1.688   0.836  0.2271 -0.3057  0.3021
15316TIP3    H267440   2.675   1.766   0.714 -0.3193  0.5218  0.6221
15317TIP3   OH267441   5.727   2.431   4.126 -0.1411 -0.0811  0.1656
15317TIP3    H167442   5.635   2.411   4.109 -1.0823  2.1303  2.1498
15317TIP3    H267443   5.742   2.400   4.215  0.3571  1.5052  0.6682
15318TIP3   OH267444   4.409   4.957   2.354  0.0287  0.0821 -0.1762
15318TIP3    H167445   4.478   4.891   2.358  2.1896  2.2529  1.6018
15318TIP3    H267446   4.449   5.031   2.308 -0.1691  2.2412  2.7924
15319TIP3   OH267447   4.680   5.855  13.297 -0.2797  0.3553  0.0532
15319TIP3    H167448   4.764   5.811  13.281  0.7453  1.8515  1.0066
15319TIP3    H267449   4.672   5.917  13.225 -0.9652 -0.3129 -0.4551
15320TIP3   OH267450   6.223   2.349  12.300  0.3229 -0.5099  0.1031
15320TIP3    H167451   6.273   2.270  12.279 -0.2112 -0.5622 -1.0733
15320TIP3    H267452   6.230   2.358  12.395  1.4059 -1.2834  0.1077
15321TIP3   OH267453   1.610   2.765  15.227  0.4406  0.0043  0.5049
15321TIP3    H167454   1.553   2.817  15.284  0.8988 -0.4492  1.4058
15321TIP3    H267455   1.556   2.746  15.150  0.0044  1.1309  0.5213
15322TIP3   OH267456   4.946   6.134  12.718 -0.2963  0.8355  0.1719
15322TIP3    H167457   4.899   6.120  12.800 -0.1050 -0.9849  0.0017
15322TIP3    H267458   4.942   6.050  12.672 -0.0106  1.6798 -1.4902
15323TIP3   OH267459   4.685   1.007   3.567 -0.5373 -0.0654 -0.0096
15323TIP3    H167460   4.750   0.940   3.584  0.0249  0.2545 -0.8311
15323TIP3    H267461   4.712   1.081   3.621 -0.0817  0.1429 -0.5123
15324TIP3   OH267462   4.198   1.282  16.992 -0.0925 -0.5429  0.0614
15324TIP3    H167463   4.136   1.307  17.060 -1.0091 -0.2088 -0.8556
15324TIP3    H267464   4.263   1.351  16.991 -0.0375 -0.5838  0.6386
15325TIP3   OH267465   5.559   0.841   5.146 -0.1166 -0.0221 -0.3255
15325TIP3    H167466   5.599   0.763   5.106 -0.4451  0.6678 -2.0768
15325TIP3    H267467   5.472   0.812   5.172  0.3984 -0.7074  0.7343
15326TIP3   OH267468   5.540   2.139   4.072 -0.6994 -0.4620  0.3435
15326TIP3    H167469   5.507   2.136   3.982 -0.8507 -0.7430  0.4086
15326TIP3    H267470   5.485   2.205   4.115 -1.0865 -0.8230  0.4133
15327TIP3   OH267471   6.291   3.196  13.326 -0.3533 -0.1503  0.2513
15327TIP3    H167472   6.364   3.179  13.384 -0.2598 -0.2853  0.0931
15327TIP3    H267473   6.233   3.254  13.376  0.5518  1.1451 -0.1470
15328TIP3   OH267474   3.997   2.917   0.770  0.2576 -0.2242 -0.3428
15328TIP3    H167475   4.053   2.977   0.819 -0.0756  0.3493 -0.6424
15328TIP3    H267476   3.988   2.958   0.684  0.2894 -0.8751 -0.6621
15329TIP3   OH267477   6.271   6.070   5.065 -0.2346 -0.2379 -0.4499
15329TIP3    H167478   6.218   6.127   5.121  0.1440  0.4244 -0.7472
15329TIP3    H267479   6.263   6.109   4.978 -0.1249 -0.7557 -0.6913
15330TIP3   OH267480   2.833   0.429  14.296 -0.4073  0.2009  0.5397
15330TIP3    H167481   2.812   0.355  14.239 -1.3615  0.8736  0.0006
15330TIP3    H267482   2.817   0.397  14.385 -1.8957  0.0888  0.2526
15331TIP3   OH267483   6.757   1.571  11.326  0.1093 -0.1004  0.3486
15331TIP3    H167484   6.742   1.665  11.316 -2.1945 -0.3806  0.6492
15331TIP3    H267485   6.846   1.558  11.293  0.3523  2.1114 -0.0600
15332TIP3   OH267486   5.419   1.886   1.326  0.2491 -0.0517  0.6568
15332TIP3    H167487   5.361   1.922   1.393  0.8692  0.3597  0.9876
15332TIP3    H267488   5.380   1.913   1.243  0.6595  1.3711  0.8950
15333TIP3   OH267489   0.115   1.103   1.480  0.2920 -0.8573 -0.0777
15333TIP3    H167490   0.119   1.197   1.500  1.9771 -0.7635 -0.7322
15333TIP3    H267491   0.199   1.083   1.439 -0.5743 -2.3654 -1.2394
15334TIP3   OH267492   4.058   0.032  10.720  0.2027 -0.3126 -0.3817
15334TIP3    H167493   4.052   0.103  10.784 -2.3044 -1.8916  1.3464
15334TIP3    H267494   4.059   0.076  10.635  2.6154  1.8277  0.6262
15335TIP3   OH267495   4.838   2.514  16.930  0.1529 -0.6222 -0.1629
15335TIP3    H167496   4.930   2.532  16.914 -0.1664  1.3941 -0.0412
15335TIP3    H267497   4.800   2.505  16.843 -0.1016  2.1048 -0.4433
15336TIP3   OH267498   5.274   3.670  13.334 -0.1270 -0.5035  0.3896
15336TIP3    H167499   5.301   3.721  13.410 -2.9557  0.9985  0.5490
15336TIP3    H267500   5.216   3.603  13.370  1.5154 -2.2783 -0.1131
15337TIP3   OH267501   5.062   1.921   3.524 -0.1502  0.3340  0.0615
15337TIP3    H167502   5.091   2.004   3.485 -1.1447  0.6557 -0.0246
15337TIP3    H267503   5.111   1.915   3.606  0.6424  0.5321 -0.3874
15338TIP3   OH267504   2.200   3.766   2.236  0.1128 -0.5444  0.2983
15338TIP3    H167505   2.270   3.807   2.186 -1.1023  2.4874  0.8526
15338TIP3    H267506   2.123   3.770   2.179 -0.9568  1.6918  1.7508
15339TIP3   OH267507   1.466   5.328   5.072 -0.1966  0.0652  0.0955
15339TIP3    H167508   1.423   5.375   5.143 -0.3554  0.3716 -0.1987
15339TIP3    H267509   1.394   5.288   5.023 -0.3097  1.9227 -1.3616
15340TIP3   OH267510   3.168   4.587   0.892  0.4294 -0.0749  0.0193
15340TIP3    H167511   3.157   4.572   0.986  0.0188  0.6918  0.0978
15340TIP3    H267512   3.263   4.589   0.879  0.6552  3.6890  1.0927
15341TIP3   OH267513   3.697   3.048   6.414  0.6029 -0.5275  0.5557
15341TIP3    H167514   3.765   3.091   6.363  0.2128 -0.6618 -0.0853
15341TIP3    H267515   3.641   3.119   6.444  1.5281 -0.3105  1.8840
15342TIP3   OH267516   5.419   5.397   4.900  0.2902  0.0428 -0.6027
15342TIP3    H167517   5.344   5.447   4.869 -2.3163 -1.6561  2.4062
15342TIP3    H267518   5.480   5.462   4.934 -1.2226  1.3436 -0.3039
15343TIP3   OH267519   5.296   0.241  12.799 -0.1031 -0.4945 -0.1460
15343TIP3    H167520   5.389   0.260  12.803  0.2454 -1.5594 -2.0471
15343TIP3    H267521   5.261   0.302  12.735 -0.8208  0.1779  0.8555
15344TIP3   OH267522   3.676   3.670   0.608 -0.0237  0.2199  0.0999
15344TIP3    H167523   3.671   3.755   0.565  0.2031  0.1874  0.0083
15344TIP3    H267524   3.759   3.672   0.656 -0.7323  0.6374  1.3435
15345TIP3   OH267525   1.153   0.265  16.486  0.2289 -0.1910 -0.3704
15345TIP3    H167526   1.164   0.301  16.398  0.1312 -0.4002 -0.4687
15345TIP3    H267527   1.220   0.310  16.538  0.0376  0.2151 -0.4647
15346TIP3   OH267528   2.248   6.540   0.308  0.0954 -0.8444 -0.0955
15346TIP3    H167529   2.250   6.610   0.243 -1.9301 -1.1734 -0.5793
15346TIP3    H267530   2.326   6.488   0.290  0.5761  0.1608 -1.0214
15347TIP3   OH267531   5.923   5.967   1.969  0.6065  0.2445 -0.0648
15347TIP3    H167532   5.888   5.996   2.053  1.3291  1.7048 -0.2360
15347TIP3    H267533   5.993   5.906   1.992  0.3986  0.1681  0.3722
15348TIP3   OH267534   4.564   1.586  10.967  0.0042  0.3372 -0.1726
15348TIP3    H167535   4.640   1.591  11.026 -0.0008  0.7569 -0.1945
15348TIP3    H267536   4.490   1.568  11.024 -0.2532  2.2772  0.1815
15349TIP3   OH267537   3.623   2.817  10.930 -0.2575  0.4250 -0.3855
15349TIP3    H167538   3.539   2.838  10.889 -1.1949  0.4506  1.4734
15349TIP3    H267539   3.686   2.823  10.858 -1.5097  2.5134 -1.4224
15350TIP3   OH267540   0.286   0.676   1.935 -0.2899  0.3276  0.0377
15350TIP3    H167541   0.303   0.769   1.948  1.3669  0.3089 -1.5173
15350TIP3    H267542   0.204   0.674   1.884 -0.3293  0.9296  0.0624
15351TIP3   OH267543   3.668   5.337   0.606  0.7062 -0.8020  0.0288
15351TIP3    H167544   3.595   5.294   0.562  0.7377  0.0869 -0.9297
15351TIP3    H267545   3.729   5.266   0.626 -0.7098 -1.6670  1.4979
15352TIP3   OH267546   6.690   1.789  11.799  0.2006 -0.0348 -0.3333
15352TIP3    H167547   6.618   1.851  11.790  0.6307  0.2940 -1.6841
15352TIP3    H267548   6.727   1.809  11.885 -0.1350  1.0716 -0.4215
15353TIP3   OH267549   4.384   0.291  10.739  0.2268 -0.0339 -0.9439
15353TIP3    H167550   4.375   0.354  10.667 -0.4997  0.1768 -0.6680
15353TIP3    H267551   4.309   0.307  10.795 -0.5852 -1.8964 -1.4309
15354TIP3   OH267552   0.472   0.901   0.367 -0.4303  0.0547 -0.0986
15354TIP3    H167553   0.488   0.807   0.358 -0.9889  0.1169 -2.3041
15354TIP3    H267554   0.556   0.938   0.392  0.0340 -0.9215 -0.1863
15355TIP3   OH267555   5.045   6.872  10.272 -0.6736  0.4091 -0.1012
15355TIP3    H167556   5.138   6.889  10.262 -0.6359  0.6452  0.6284
15355TIP3    H267557   5.038   6.777  10.283 -0.2210  0.6273  2.8081
15356TIP3   OH267558   2.492   4.939  14.830  0.0252 -0.3662  0.7194
15356TIP3    H167559   2.529   4.920  14.917  0.4845  0.7631  0.7994
15356TIP3    H267560   2.435   4.865  14.811 -0.0546 -0.6509  1.9755
15357TIP3   OH267561   6.215   0.668  13.498 -0.5855 -0.2457  0.1934
15357TIP3    H167562   6.201   0.762  13.491 -0.5352  0.1225  3.4609
15357TIP3    H267563   6.256   0.643  13.415  0.8906  2.8890 -0.1586
15358TIP3   OH267564   4.527   5.762  15.987 -0.2440 -0.2379 -0.2784
15358TIP3    H167565   4.603   5.805  16.026  0.2562  0.0791 -1.5602
15358TIP3    H267566   4.453   5.790  16.041  0.5906 -0.9988  1.3298
15359TIP3   OH267567   3.225   0.639  11.385 -1.0711 -0.1719 -0.0082
15359TIP3    H167568   3.298   0.681  11.431 -0.3548 -0.4612 -0.8631
15359TIP3    H267569   3.204   0.699  11.314 -1.0906 -0.5052 -0.2840
15360TIP3   OH267570   4.481   3.556   2.776 -0.3563  0.0485 -0.7083
15360TIP3    H167571   4.400   3.606   2.759  1.0476  2.5017 -0.6358
15360TIP3    H267572   4.504   3.579   2.866 -0.7830 -2.5490  0.1463
15361TIP3   OH267573   2.064   5.640  10.995  0.2008 -0.3343  0.5947
15361TIP3    H167574   2.043   5.642  10.902 -0.6695 -0.8966  0.7743
15361TIP3    H267575   2.068   5.547  11.017  2.1603 -0.2599  0.7491
15362TIP3   OH267576   0.427   2.387   4.403  0.1995 -0.5997 -0.0829
15362TIP3    H167577   0.367   2.327   4.447 -0.3978 -0.4558 -0.6953
15362TIP3    H267578   0.509   2.378   4.452 -0.3169 -0.7840  0.7712
15363TIP3   OH267579   4.995   4.087  15.737 -0.1921 -0.0132 -0.3126
15363TIP3    H167580   4.995   4.147  15.812 -0.0956  0.2195 -0.4979
15363TIP3    H267581   4.980   4.144  15.661  0.4559 -0.1477 -0.5510
15364TIP3   OH267582   0.818   1.083  13.359 -0.6625 -0.2711 -0.1103
15364TIP3    H167583   0.725   1.070  13.344 -0.8091 -0.5735  0.9231
15364TIP3    H267584   0.850   1.129  13.282 -1.7085  0.0177 -0.3746
15365TIP3   OH267585   5.556   5.555  13.735 -0.4867 -0.1571  0.2870
15365TIP3    H167586   5.551   5.638  13.688 -1.1070  0.2582  1.0685
15365TIP3    H267587   5.493   5.563  13.806 -1.9956 -2.0333 -0.7418
15366TIP3   OH267588   5.989   3.669  12.366  0.3671 -0.0189 -0.0836
15366TIP3    H167589   6.026   3.614  12.297 -1.6785 -0.9149 -0.5738
15366TIP3    H267590   6.059   3.729  12.390  2.4276 -2.1886 -0.2190
15367TIP3   OH267591   5.441   4.645   5.242 -0.2752 -0.7319 -0.2183
15367TIP3    H167592   5.490   4.662   5.322 -1.1438  1.4563 -0.0911
15367TIP3    H267593   5.434   4.730   5.199 -0.5216 -1.7167 -2.2391
15368TIP3   OH267594   2.332   0.775   1.681 -0.4770  0.0829  0.2416
15368TIP3    H167595   2.376   0.765   1.765  0.5785  1.0164 -0.1775
15368TIP3    H267596   2.304   0.867   1.679  2.2246  0.9796 -1.6406
15369TIP3   OH267597   1.233   0.604   2.143 -0.3812 -0.5898  0.5102
15369TIP3    H167598   1.245   0.670   2.211 -1.0859  2.4601 -2.0488
15369TIP3    H267599   1.139   0.605   2.124 -0.4482 -2.5728  0.5569
15370TIP3   OH267600   4.273   3.707   2.109  0.0107 -0.3374 -0.0657
15370TIP3    H167601   4.337   3.638   2.131 -0.3755 -0.6899 -0.0319
15370TIP3    H267602   4.297   3.735   2.021 -0.6725 -1.4942 -0.6401
15371TIP3   OH267603   5.233   1.670   0.333  0.5661 -0.1961 -0.1848
15371TIP3    H167604   5.192   1.635   0.253  0.1858  2.2874 -1.1729
15371TIP3    H267605   5.177   1.638   0.404 -0.9740  0.0716 -1.2113
15372TIP3   OH267606   4.828   2.842  13.494  0.2679 -0.2980 -0.5219
15372TIP3    H167607   4.779   2.789  13.431 -1.8470  1.6850 -0.6747
15372TIP3    H267608   4.770   2.915  13.514  1.8519  0.3946  1.9593
15373TIP3   OH267609   0.804   0.675  16.946  0.1181  0.3935  0.4799
15373TIP3    H167610   0.798   0.584  16.974 -0.5927  0.1204 -0.5231
15373TIP3    H267611   0.837   0.671  16.856 -0.4011  1.0985  0.2454
15374TIP3   OH267612   0.493   5.177   2.872 -0.2715 -0.1485 -0.4657
15374TIP3    H167613   0.479   5.090   2.909 -1.3836  0.2148 -0.0046
15374TIP3    H267614   0.589   5.188   2.872 -0.0399 -1.8146 -1.6186
15375TIP3   OH267615   5.082   2.826   4.108  0.1217 -0.1803  0.0680
15375TIP3    H167616   4.990   2.850   4.094 -0.2536  0.3485  2.8881
15375TIP3    H267617   5.125   2.906   4.136  1.4005 -0.5032 -0.8618
15376TIP3   OH267618   2.930   0.746  13.395 -0.0130  0.0854 -0.2711
15376TIP3    H167619   2.978   0.752  13.477 -1.9080 -0.4822  0.9323
15376TIP3    H267620   2.928   0.652  13.375 -0.0044  0.1718 -0.6852
15377TIP3   OH267621   0.227   5.941  11.416 -0.2493 -0.2952  0.8731
15377TIP3    H167622   0.166   5.989  11.360 -0.6875  0.0275  1.6071
15377TIP3    H267623   0.171   5.895  11.478  0.2520  0.8392  2.2422
15378TIP3   OH267624   0.599   3.509   0.831  0.2425 -0.2352  0.0061
15378TIP3    H167625   0.575   3.601   0.846 -2.3167 -0.8614  0.2886
15378TIP3    H267626   0.642   3.510   0.745  0.6508  1.2612  0.1857
15379TIP3   OH267627   4.130   1.468   4.655  0.5239 -0.7994  0.6664
15379TIP3    H167628   4.077   1.529   4.706  0.3376  0.0663 -0.5227
15379TIP3    H267629   4.091   1.382   4.672  0.5342 -0.5579  2.0419
15380TIP3   OH267630   1.991   1.206  15.259 -0.0225 -0.9655 -0.3319
15380TIP3    H167631   1.953   1.189  15.173 -2.3687  0.3171  0.3683
15380TIP3    H267632   2.052   1.133  15.273  1.3726 -0.5747 -3.5384
15381TIP3   OH267633   2.775   4.657   2.958 -0.0204 -0.1380  0.6048
15381TIP3    H167634   2.690   4.700   2.964 -0.1044  0.2799 -2.0348
15381TIP3    H267635   2.756   4.575   2.912  0.8236 -0.7410  1.3010
15382TIP3   OH267636   1.896   3.304   2.355  0.4550 -0.1827  0.2406
15382TIP3    H167637   1.829   3.298   2.423 -0.4918 -0.9692 -0.7236
15382TIP3    H267638   1.909   3.398   2.343  0.7762 -0.0301  1.6185
15383TIP3   OH267639   5.873   3.456  12.014 -0.0064 -0.0397  0.5950
15383TIP3    H167640   5.858   3.540  12.059 -0.7939 -0.0119  0.2903
15383TIP3    H267641   5.858   3.390  12.082 -0.7803  0.0177  0.4880
15384TIP3   OH267642   5.673   0.218   5.000  0.1345  0.4754  0.0832
15384TIP3    H167643   5.585   0.207   4.963  0.4836  0.7880 -0.8515
15384TIP3    H267644   5.661   0.277   5.074 -0.9265 -1.7892  1.8830
15385TIP3   OH267645   0.813   2.514  16.441 -0.0690 -0.3783 -0.2005
15385TIP3    H167646   0.856   2.596  16.468 -2.3962  1.2386 -1.0885
15385TIP3    H267647   0.753   2.494  16.512 -1.1674  0.0260 -0.9784
15386TIP3   OH267648   1.394   2.913  16.208  0.3834  0.1435  0.0569
15386TIP3    H167649   1.462   2.914  16.141 -0.1790 -3.0752 -0.7246
15386TIP3    H267650   1.440   2.892  16.289  0.6091  0.5278  0.0330
15387TIP3   OH267651   2.898   1.071  12.078  0.0829 -0.2453  0.0351
15387TIP3    H167652   2.871   1.156  12.043 -0.9599  0.7513  2.9378
15387TIP3    H267653   2.985   1.056  12.040 -0.1290  1.6163 -1.3360
15388TIP3   OH267654   6.240   4.682  15.891  0.0845 -0.0943  0.2062
15388TIP3    H167655   6.222   4.588  15.896 -1.1901  0.1222  0.1906
15388TIP3    H267656   6.189   4.712  15.816  1.4101  0.4321 -0.5102
15389TIP3   OH267657   1.177   2.248   2.878  0.7797  0.2869  0.0922
15389TIP3    H167658   1.144   2.338   2.878 -0.5167 -0.1746  0.8779
15389TIP3    H267659   1.246   2.249   2.811  0.0992  1.6045 -0.6386
15390TIP3   OH267660   5.071   6.590  14.548 -0.4225 -0.1280 -0.0499
15390TIP3    H167661   5.106   6.648  14.616 -2.0168  1.6880 -0.7096
15390TIP3    H267662   5.117   6.507  14.562  0.5997  0.7229  2.0947
15391TIP3   OH267663   5.905   3.182  13.033  0.3699 -0.3306 -0.0124
15391TIP3    H167664   5.939   3.255  13.086 -1.7271 -0.1839  1.2203
15391TIP3    H267665   5.960   3.108  13.057  2.7507  0.7990 -1.5036
15392TIP3   OH267666   3.850   2.228   1.849 -0.2600 -0.2622  0.0618
15392TIP3    H167667   3.766   2.205   1.809 -1.5319  0.1375  2.3252
15392TIP3    H267668   3.910   2.160   1.819 -1.4170 -0.6358 -1.5132
15393TIP3   OH267669   5.819   2.301   2.115 -0.1096 -0.3792 -0.3394
15393TIP3    H167670   5.778   2.281   2.199 -1.8908  2.1677 -0.4888
15393TIP3    H267671   5.750   2.287   2.050  0.4511  0.2276 -1.0904
15394TIP3   OH267672   3.227   2.940  12.405 -0.6545  0.4193  0.6440
15394TIP3    H167673   3.311   2.946  12.359 -0.3027  1.9253  1.4342
15394TIP3    H267674   3.197   3.030  12.411 -1.7761  0.0111  1.4029
15395TIP3   OH267675   5.753   2.348   5.316  0.2194 -0.1354 -0.1782
15395TIP3    H167676   5.657   2.351   5.313  0.1248 -2.0116 -0.6831
15395TIP3    H267677   5.780   2.439   5.327 -1.5917  0.5262 -0.8611
15396TIP3   OH267678   0.649   2.888  11.445 -0.3531  0.0091  0.0953
15396TIP3    H167679   0.557   2.895  11.469 -0.4563  0.5046 -0.4274
15396TIP3    H267680   0.652   2.914  11.353  0.2831 -0.1740  0.0588
15397TIP3   OH267681   1.557   3.303   2.688  0.4843  0.1170 -1.3462
15397TIP3    H167682   1.648   3.286   2.665  0.7780 -1.1035  0.5376
15397TIP3    H267683   1.517   3.217   2.696  0.5064  0.2645  2.7263
15398TIP3   OH267684   0.825   2.663  10.713 -0.3228  0.0538  0.5729
15398TIP3    H167685   0.753   2.725  10.717  0.3321  0.7920  1.1747
15398TIP3    H267686   0.786   2.579  10.738 -1.4431 -0.0292 -1.2103
15399TIP3   OH267687   5.192   3.113  16.072  0.3200  0.2591  0.0844
15399TIP3    H167688   5.151   3.067  16.145  0.5683 -1.1263 -0.6138
15399TIP3    H267689   5.263   3.163  16.113 -1.0123  1.4041  1.0812
15400TIP3   OH267690   3.441   2.506  12.220  0.2417  0.3152  0.1485
15400TIP3    H167691   3.397   2.434  12.175 -1.6074  1.5576 -0.1639
15400TIP3    H267692   3.473   2.467  12.301  2.6593 -1.7110 -1.5913
15401TIP3   OH267693   3.495   1.463  15.152  0.4976  0.9159  0.0676
15401TIP3    H167694   3.442   1.502  15.222 -1.3853  1.1001 -1.3896
15401TIP3    H267695   3.481   1.368  15.161 -1.8292  1.0397 -1.5428
15402TIP3   OH267696   0.478   1.566   2.461  0.0829 -0.9454 -0.0603
15402TIP3    H167697   0.435   1.538   2.542 -1.4929 -1.5090 -1.0474
15402TIP3    H267698   0.548   1.624   2.490 -0.7853 -0.7061  1.6785
15403TIP3   OH267699   0.799   1.518   1.860  0.4256 -0.1897  0.4006
15403TIP3    H167700   0.876   1.463   1.868  0.5882 -0.0251 -0.0178
15403TIP3    H267701   0.830   1.597   1.815 -0.2777 -0.7455 -1.1468
15404TIP3   OH267702   0.667   0.818  15.761  0.4145 -0.3793 -0.3686
15404TIP3    H167703   0.582   0.862  15.762 -0.7968 -2.5584 -0.9526
15404TIP3    H267704   0.710   0.852  15.682 -0.0511  0.4504 -0.2777
15405TIP3   OH267705   1.320   2.118  13.716 -0.0314 -0.6035  0.2185
15405TIP3    H167706   1.279   2.032  13.725 -1.4383 -0.1252 -1.1379
15405TIP3    H267707   1.398   2.102  13.663  0.7708 -1.3022  1.5661
15406TIP3   OH267708   5.856   5.764   4.072  0.2632 -0.6899 -0.3926
15406TIP3    H167709   5.792   5.787   4.140  1.4407 -0.0075  0.5377
15406TIP3    H267710   5.933   5.816   4.094  1.6513 -2.5297 -0.6212
15407TIP3   OH267711   6.348   4.089  11.954  0.1047  0.4988 -0.1735
15407TIP3    H167712   6.375   4.083  12.045 -1.5468  0.1862  0.3146
15407TIP3    H267713   6.355   4.183  11.933  1.0850  0.4899  0.0632
15408TIP3   OH267714   3.965   0.877   3.476 -0.2494  0.2983 -0.2682
15408TIP3    H167715   3.988   0.830   3.556 -0.9625  1.5292  0.7124
15408TIP3    H267716   3.901   0.820   3.432 -0.6933  0.0982  0.6150
15409TIP3   OH267717   5.266   4.070   5.847 -0.1826  0.6474  0.0124
15409TIP3    H167718   5.182   4.060   5.891  0.5247 -2.6777  0.8649
15409TIP3    H267719   5.258   4.018   5.767  0.8882  0.7911 -0.2048
15410TIP3   OH267720   6.602   4.308  16.719  0.1747  0.1735 -0.0563
15410TIP3    H167721   6.549   4.354  16.654 -0.7556 -0.4039  0.2868
15410TIP3    H267722   6.560   4.328  16.803  1.1064  0.5518  0.3385
15411TIP3   OH267723   3.097   2.615  15.379 -0.3494 -0.2076  0.2553
15411TIP3    H167724   3.034   2.637  15.311 -1.1444  0.4570  1.1770
15411TIP3    H267725   3.056   2.543  15.428  0.3589 -0.9063 -0.1466
15412TIP3   OH267726   6.738   0.020   4.648  0.0664  1.0419  0.2176
15412TIP3    H167727   6.762  -0.059   4.697  1.6173  1.5036  0.2688
15412TIP3    H267728   6.736   0.089   4.715  0.0175  1.2814 -0.0309
15413TIP3   OH267729   5.411   5.826   5.043  0.4972  0.5292  0.8907
15413TIP3    H167730   5.320   5.812   5.066  0.7369 -3.1181  0.1961
15413TIP3    H267731   5.454   5.847   5.126 -0.4733 -0.8502  1.7728
15414TIP3   OH267732   0.507   6.190  15.904 -0.0416  0.4119  0.2025
15414TIP3    H167733   0.518   6.247  15.829 -0.1317  0.8960  0.5533
15414TIP3    H267734   0.414   6.196  15.925 -0.0429  0.1718  0.2705
15415TIP3   OH267735   1.399   3.121   1.169  0.4281  0.2278  0.1672
15415TIP3    H167736   1.360   3.112   1.256 -1.8230 -1.6241 -0.9138
15415TIP3    H267737   1.456   3.046   1.160  1.5818  1.0509  0.4411
15416TIP3   OH267738   5.474   4.576  15.979 -0.2167  0.3847  0.1863
15416TIP3    H167739   5.529   4.654  15.974  0.1552  0.0703 -1.0671
15416TIP3    H267740   5.510   4.517  15.913 -0.7069 -0.7125  0.8760
15417TIP3   OH267741   1.405   6.369  12.224  0.8089 -0.5022 -0.5281
15417TIP3    H167742   1.343   6.442  12.216  0.8309 -0.1312  1.8626
15417TIP3    H267743   1.491   6.410  12.229  0.6683 -0.2362  3.7554
15418TIP3   OH267744   4.231   2.232   1.824  0.8586 -0.0275 -0.1010
15418TIP3    H167745   4.228   2.308   1.765  0.8912 -1.4828 -2.0701
15418TIP3    H267746   4.245   2.270   1.911 -0.3950  2.2993 -0.8295
15419TIP3   OH267747   4.372   6.343   6.046  0.6296 -0.2447 -0.7132
15419TIP3    H167748   4.380   6.275   5.980  0.3101 -1.2464  0.2520
15419TIP3    H267749   4.459   6.350   6.084  0.6802 -0.0574 -0.8629
15420TIP3   OH267750   6.472   5.348  15.572  0.3391 -0.1860 -0.0218
15420TIP3    H167751   6.563   5.322  15.580  0.2675 -0.3453  0.2853
15420TIP3    H267752   6.451   5.389  15.656 -0.2140 -1.2346  0.3757
15421TIP3   OH267753   2.253   5.601   5.548  0.0664  0.0264 -0.6449
15421TIP3    H167754   2.296   5.670   5.497  2.2089 -1.0169 -0.3692
15421TIP3    H267755   2.281   5.617   5.638 -1.9658  0.5902 -0.0570
15422TIP3   OH267756   6.107   2.781  12.595 -0.0008 -0.6982  0.2551
15422TIP3    H167757   6.091   2.687  12.585  0.1269 -0.7051  0.1129
15422TIP3    H267758   6.202   2.788  12.598  0.0118 -0.4842 -0.5792
15423TIP3   OH267759   6.283   1.109  15.019  0.5935 -0.3378  0.1516
15423TIP3    H167760   6.350   1.171  14.992 -0.5328  0.5272 -0.7024
15423TIP3    H267761   6.200   1.154  15.004 -0.2830 -2.2376 -1.0029
15424TIP3   OH267762   5.606   1.875  10.280 -0.0393 -0.2722 -0.5079
15424TIP3    H167763   5.527   1.926  10.297 -0.3166 -0.5813 -0.8401
15424TIP3    H267764   5.667   1.937  10.240  0.8013  0.5803  1.9707
15425TIP3   OH267765   0.876   6.706  14.507  0.3413 -0.1362  0.0628
15425TIP3    H167766   0.869   6.795  14.541 -0.9041  0.2546 -1.1398
15425TIP3    H267767   0.961   6.704  14.462  0.7626  0.1632  0.8235
15426TIP3   OH267768   2.777   2.126   2.397 -0.1116  0.0906  0.1399
15426TIP3    H167769   2.737   2.190   2.455 -1.1805 -0.8894  0.5230
15426TIP3    H267770   2.735   2.043   2.420  2.3757 -1.0771  0.7734
15427TIP3   OH267771   3.996   3.765   2.163  0.2351  0.3433 -0.0290
15427TIP3    H167772   3.939   3.690   2.173  0.7619 -0.1281 -0.4966
15427TIP3    H267773   4.085   3.728   2.162  0.5144  0.9942  0.0150
15428TIP3   OH267774   4.814   1.492   1.597 -0.3039  0.2102 -0.5301
15428TIP3    H167775   4.744   1.555   1.613  0.0724  0.5067 -0.0245
15428TIP3    H267776   4.886   1.544   1.562  0.5405  0.3326  1.2786
15429TIP3   OH267777   3.225   0.273  13.887  0.1389  0.0530  0.4705
15429TIP3    H167778   3.281   0.336  13.934  0.1734  0.2643  0.1460
15429TIP3    H267779   3.145   0.269  13.939 -0.5168  1.5822 -0.3464
15430TIP3   OH267780   4.187   1.631   0.567  0.0859 -0.2617  0.1666
15430TIP3    H167781   4.212   1.539   0.581 -0.9032 -0.4298  0.9490
15430TIP3    H267782   4.175   1.638   0.473  0.3477 -0.8886  0.0787
15431TIP3   OH267783   4.558   1.790   3.945  0.2898 -0.6096 -0.1469
15431TIP3    H167784   4.481   1.747   3.981 -0.9443  2.3785  1.1140
15431TIP3    H267785   4.627   1.774   4.010 -1.0127  1.8527  2.0116
15432TIP3   OH267786   3.595   4.813   6.263  0.3272  0.1406  0.2520
15432TIP3    H167787   3.506   4.781   6.281  0.2696  0.6901  1.0188
15432TIP3    H267788   3.652   4.758   6.316  0.3385  0.4970  0.6160
15433TIP3   OH267789   1.387   1.456  12.737 -0.6535  0.3327  0.4056
15433TIP3    H167790   1.345   1.473  12.653  0.1047  1.3246  0.2131
15433TIP3    H267791   1.442   1.378  12.721 -1.1992 -0.0196  0.2363
15434TIP3   OH267792   4.597   5.933  11.853  0.2769 -0.5783 -0.4705
15434TIP3    H167793   4.668   5.937  11.917 -0.1708  0.3164 -0.0105
15434TIP3    H267794   4.529   5.881  11.896  0.0478 -0.1296 -0.2833
15435TIP3   OH267795   5.083   6.023  15.535 -0.6848  0.0145 -0.0961
15435TIP3    H167796   5.177   6.005  15.545 -0.6927  0.3706  0.7194
15435TIP3    H267797   5.075   6.117  15.553 -0.7690  0.7276 -3.2796
15436TIP3   OH267798   0.017   0.099   2.669 -0.4985 -0.8272 -0.4280
15436TIP3    H167799  -0.026   0.014   2.678  0.4123 -1.3640 -1.0089
15436TIP3    H267800  -0.019   0.136   2.589 -2.8996  0.5674  1.1692
15437TIP3   OH267801   4.604   4.076  12.735  0.1953  0.0030  0.0053
15437TIP3    H167802   4.579   4.078  12.643 -0.6772  1.5843  0.2403
15437TIP3    H267803   4.521   4.073  12.783  0.6267 -0.3356  0.7598
15438TIP3   OH267804   4.184   4.583   0.692  0.6113 -0.0502 -0.1079
15438TIP3    H167805   4.246   4.559   0.762 -0.3027  0.4550  0.9002
15438TIP3    H267806   4.199   4.677   0.679 -1.2561  0.5330  1.5358
15439TIP3   OH267807   2.783   1.363   1.492 -0.2049  0.3765  0.0561
15439TIP3    H167808   2.819   1.416   1.420 -0.0579  1.0597  0.6225
15439TIP3    H267809   2.859   1.323   1.533 -0.1590  1.1800  0.7571
15440TIP3   OH267810   3.641   2.651   1.032 -0.0339 -0.2878 -0.3971
15440TIP3    H167811   3.554   2.626   1.062  0.3048  0.7736  1.6317
15440TIP3    H267812   3.673   2.712   1.098  1.8261  0.2141 -1.6707
15441TIP3   OH267813   0.977   5.293  13.767  0.0096  0.0015 -0.1189
15441TIP3    H167814   0.889   5.292  13.728  0.5273 -1.0081 -1.3396
15441TIP3    H267815   0.985   5.208  13.810  1.1646 -0.8943 -1.9592
15442TIP3   OH267816   1.310   0.692   3.701  0.1688 -0.3631  0.1584
15442TIP3    H167817   1.355   0.768   3.740  0.5906  0.8476 -2.5023
15442TIP3    H267818   1.287   0.638   3.776  2.8956  0.7128  1.9312
15443TIP3   OH267819   2.100   3.525  15.329  0.5299 -0.1007  0.2405
15443TIP3    H167820   2.109   3.619  15.343 -1.2766  0.1162  0.1060
15443TIP3    H267821   2.044   3.495  15.400 -0.6047 -0.6960 -0.8602
15444TIP3   OH267822   1.433   2.731   5.822  0.0924  0.5162  0.3226
15444TIP3    H167823   1.525   2.727   5.846  0.0129  1.1093  0.7461
15444TIP3    H267824   1.391   2.662   5.873  0.6864 -1.5227 -1.7810
15445TIP3   OH267825   4.112   6.208   0.586  0.2908  0.0565 -0.2277
15445TIP3    H167826   4.132   6.218   0.679  0.5000 -0.4335 -0.2219
15445TIP3    H267827   4.019   6.189   0.583  0.0624  1.0915 -0.1831
15446TIP3   OH267828   3.323   3.361   0.692 -0.0088  0.4015  0.0084
15446TIP3    H167829   3.325   3.266   0.707 -0.3690  0.2942 -0.5975
15446TIP3    H267830   3.231   3.380   0.674 -0.0178  0.9442  0.6026
15447TIP3   OH267831   2.011   5.612  14.672  0.0428  0.3635  0.1427
15447TIP3    H167832   2.037   5.535  14.622 -1.5897 -0.0391 -0.1581
15447TIP3    H267833   2.019   5.586  14.763  0.8513  0.3261  0.0634
15448TIP3   OH267834   4.556   2.234   3.804  0.3875 -0.2108 -0.1873
15448TIP3    H167835   4.488   2.236   3.872 -0.6315 -1.6213 -1.1026
15448TIP3    H267836   4.637   2.254   3.850 -0.2969 -1.0037  1.4322
15449TIP3   OH267837   6.134   4.398   2.995 -0.8534 -0.5337 -0.4756
15449TIP3    H167838   6.047   4.359   2.998 -1.0324 -0.0892  0.9923
15449TIP3    H267839   6.138   4.439   2.908 -1.6405 -1.5479 -1.0221
15450TIP3   OH267840   0.026   1.500  13.921  0.0386 -0.2505  0.3924
15450TIP3    H167841  -0.037   1.569  13.898  2.4901  2.6142  1.5268
15450TIP3    H267842  -0.021   1.443  13.981 -1.4933  1.7893  1.2437
15451TIP3   OH267843   2.834   2.644   3.239 -0.1199 -0.4344  0.1328
15451TIP3    H167844   2.898   2.611   3.302 -0.7704  0.3390  1.2356
15451TIP3    H267845   2.877   2.633   3.153  1.4846  0.0555  0.8285
15452TIP3   OH267846   3.508   3.558   5.119 -0.0006  0.0858  0.4908
15452TIP3    H167847   3.572   3.581   5.186  0.6912  1.6500 -0.6304
15452TIP3    H267848   3.426   3.598   5.149 -0.0988 -0.6316  1.1944
15453TIP3   OH267849   3.485   5.681  13.057 -0.2636 -0.4527 -0.9738
15453TIP3    H167850   3.538   5.602  13.064 -0.3175 -0.3852  0.4250
15453TIP3    H267851   3.410   5.665  13.116  0.2480  1.0205  0.1256
15454TIP3   OH267852   0.834   3.977   2.055 -0.3678  0.5189 -0.0720
15454TIP3    H167853   0.746   4.003   2.028 -0.1592 -0.1490 -1.4610
15454TIP3    H267854   0.860   3.910   1.992  0.5470 -0.4065  1.2259
15455TIP3   OH267855   6.238   5.023  14.350  0.5282  0.3334 -0.7016
15455TIP3    H167856   6.172   5.039  14.282  0.0484 -1.0627 -0.5871
15455TIP3    H267857   6.221   5.091  14.415 -1.8986 -0.9326  0.1114
15456TIP3   OH267858   3.875   0.345  16.575 -0.2373  0.3083  0.4638
15456TIP3    H167859   3.895   0.407  16.505  0.1599  0.9354  1.1195
15456TIP3    H267860   3.959   0.326  16.616 -0.3882 -0.4985  0.4158
15457TIP3   OH267861   2.382   5.861   1.017  0.8841 -0.1903  0.5071
15457TIP3    H167862   2.340   5.810   1.086 -1.2698  0.8333  0.0406
15457TIP3    H267863   2.341   5.830   0.936  0.9251  0.9444  0.0367
15458TIP3   OH267864   6.398   6.282   4.528 -0.1339  0.8330 -0.3547
15458TIP3    H167865   6.427   6.207   4.475  3.5668  0.5584  1.7310
15458TIP3    H267866   6.328   6.246   4.583 -0.3800 -0.2983 -1.3623
15459TIP3   OH267867   6.799   4.933  14.239 -0.3088  0.1893  0.3688
15459TIP3    H167868   6.885   4.974  14.249  0.2286 -0.3033 -1.6962
15459TIP3    H267869   6.773   4.954  14.149 -3.2305  1.9047  1.4943
15460TIP3   OH267870   3.693   6.806  11.249  0.0884  0.2944  0.3779
15460TIP3    H167871   3.706   6.719  11.288  0.7448  1.1058  2.0258
15460TIP3    H267872   3.742   6.802  11.167  2.4389 -0.0543  1.6927
15461TIP3   OH267873   6.044   4.248  12.872  0.5631  0.2087  0.7613
15461TIP3    H167874   6.067   4.192  12.798 -0.2120  0.5525  0.2470
15461TIP3    H267875   5.957   4.219  12.899  0.1426  1.1563  0.4821
15462TIP3   OH267876   4.471   5.430   1.763 -0.3006 -0.3009 -0.3710
15462TIP3    H167877   4.423   5.432   1.846  1.3596  2.6855  0.6736
15462TIP3    H267878   4.538   5.363   1.774 -0.5220 -0.3894  0.4487
15463TIP3   OH267879   0.976   0.495  12.497  0.0624  0.3225  0.1001
15463TIP3    H167880   0.974   0.402  12.519  1.3029  0.5364  1.2450
15463TIP3    H267881   1.065   0.523  12.518  0.2910  1.3671 -2.0116
15464TIP3   OH267882   6.322   4.648  14.838 -0.1729  0.0244 -0.0395
15464TIP3    H167883   6.263   4.717  14.808 -0.4789 -0.5181 -0.7243
15464TIP3    H267884   6.265   4.573  14.856 -0.1199  0.5544  2.7683
15465TIP3   OH267885   0.518   4.690   3.710 -0.2036  0.1065  0.1165
15465TIP3    H167886   0.598   4.672   3.660  1.1618 -0.5136  2.3936
15465TIP3    H267887   0.519   4.784   3.723  0.9482 -0.0521  1.3286
15466TIP3   OH267888   6.246   4.102   0.887  0.4550 -0.1655  0.5156
15466TIP3    H167889   6.327   4.152   0.895  0.1592  0.5553 -0.7829
15466TIP3    H267890   6.251   4.062   0.801 -0.3829 -0.4534  0.5927
15467TIP3   OH267891   3.386   1.618  13.850  0.3942  0.1344  0.5674
15467TIP3    H167892   3.368   1.595  13.759 -0.2808  0.3602  0.6387
15467TIP3    H267893   3.364   1.540  13.900  0.4386  0.1234  0.5693
15468TIP3   OH267894   3.275   4.046  16.693  0.5856 -0.2982  0.2601
15468TIP3    H167895   3.227   4.081  16.618  1.4734  3.6385  1.3004
15468TIP3    H267896   3.355   4.009  16.656  0.6880  0.9422 -0.8158
15469TIP3   OH267897   5.024   3.814  12.070  0.5195 -0.6548 -0.1579
15469TIP3    H167898   4.946   3.777  12.111 -0.5420  1.1721 -0.3887
15469TIP3    H267899   5.086   3.823  12.142 -0.2950 -0.1079  0.5024
15470TIP3   OH267900   1.708   2.509   4.992 -0.6415 -0.5155 -0.1764
15470TIP3    H167901   1.771   2.576   5.016 -0.7755 -0.4988  0.1304
15470TIP3    H267902   1.761   2.430   4.978 -0.5167 -0.4168 -0.2656
15471TIP3   OH267903   5.329   1.877  14.534 -0.2630  0.0619  0.3429
15471TIP3    H167904   5.285   1.792  14.529  0.4731 -0.3140  0.1339
15471TIP3    H267905   5.320   1.903  14.625 -0.6290 -0.1660  0.3741
15472TIP3   OH267906   2.961   0.984  11.326 -0.0095  0.2008  0.4538
15472TIP3    H167907   2.932   1.015  11.412 -3.0073 -1.5992  0.2487
15472TIP3    H267908   2.918   1.044  11.264 -0.0245 -0.0844  0.1851
15473TIP3   OH267909   0.617   5.098  15.202  0.3608 -0.4159 -0.1171
15473TIP3    H167910   0.526   5.126  15.204  0.5440  0.3444 -1.5172
15473TIP3    H267911   0.659   5.155  15.138  1.6477 -1.2762 -0.0883
15474TIP3   OH267912   3.658   6.597   0.989  0.0426 -0.2745  0.7707
15474TIP3    H167913   3.684   6.653   0.916 -0.0001 -0.6688  0.4507
15474TIP3    H267914   3.575   6.634   1.020 -0.4778 -0.7306 -0.0561
15475TIP3   OH267915   0.846   0.394   3.956 -0.8411  0.5478 -0.3220
15475TIP3    H167916   0.768   0.426   3.911 -1.5918  0.3294  0.7836
15475TIP3    H267917   0.813   0.331   4.020  0.4371 -1.0738 -1.1841
15476TIP3   OH267918   5.507   3.528   0.709 -0.0875  0.0786 -0.8216
15476TIP3    H167919   5.544   3.550   0.623  0.4231 -2.2666 -1.2773
15476TIP3    H267920   5.580   3.488   0.757 -0.6901  0.2446  0.2641
15477TIP3   OH267921   2.265   1.171   4.743  0.1855 -0.2848  0.8216
15477TIP3    H167922   2.302   1.152   4.830 -0.3533 -0.6882  0.9694
15477TIP3    H267923   2.171   1.172   4.757  0.0933 -0.3934  0.2254
15478TIP3   OH267924   3.126   5.086  15.532  0.1067 -0.3757 -0.1457
15478TIP3    H167925   3.143   4.998  15.565  0.1670 -0.3599 -0.1341
15478TIP3    H267926   3.211   5.130  15.536 -0.1118 -0.0163  0.7467
15479TIP3   OH267927   1.006   2.054   2.316  0.2385  0.3963 -0.3209
15479TIP3    H167928   0.925   2.004   2.324  0.4447  0.1550  0.3128
15479TIP3    H267929   0.979   2.146   2.321  0.0630  0.3071  0.4618
15480TIP3   OH267930   3.502   0.942  12.881 -0.1358  0.2874 -0.5431
15480TIP3    H167931   3.412   0.968  12.898 -0.0020  2.7202 -2.7642
15480TIP3    H267932   3.546   0.949  12.965 -1.8763 -0.4231  0.4722
15481TIP3   OH267933   4.517   6.669  15.401  0.0639  0.0618  0.5422
15481TIP3    H167934   4.554   6.589  15.439 -0.7818 -0.1596  0.9228
15481TIP3    H267935   4.594   6.723  15.379  0.6202 -0.5763  0.8718
15482TIP3   OH267936   5.353   6.876   1.626 -0.3303  0.0498 -0.7449
15482TIP3    H167937   5.301   6.887   1.706 -0.3397 -0.1707 -0.7198
15482TIP3    H267938   5.325   6.792   1.592  1.0193 -0.7358  0.0108
15483TIP3   OH267939   5.596   1.350  13.851 -0.0378 -0.1769 -0.7051
15483TIP3    H167940   5.613   1.382  13.763 -1.1139 -0.0954 -0.8958
15483TIP3    H267941   5.542   1.272  13.839  0.1761 -0.4142 -0.1403
15484TIP3   OH267942   2.779   1.620   4.766 -0.3706 -0.1765 -0.0309
15484TIP3    H167943   2.699   1.588   4.724 -0.8632 -0.9058  1.3963
15484TIP3    H267944   2.845   1.555   4.744  0.2824  1.1461 -2.4266
15485TIP3   OH267945   0.174   6.621   2.627  0.0190  0.2632  0.3034
15485TIP3    H167946   0.133   6.636   2.712 -3.2813  0.3080 -1.1254
15485TIP3    H267947   0.202   6.530   2.629  0.5026  0.4143  1.5798
15486TIP3   OH267948   2.779   5.804  12.068  0.3806 -0.0767 -0.4059
15486TIP3    H167949   2.866   5.840  12.086  0.6561 -2.0363  3.3364
15486TIP3    H267950   2.794   5.734  12.005  1.3045  0.4755 -0.8028
15487TIP3   OH267951   1.114   3.155  11.589  0.1146 -0.3347  0.1324
15487TIP3    H167952   1.097   3.088  11.655 -1.8930  1.5684  1.6930
15487TIP3    H267953   1.190   3.202  11.623 -0.1599 -0.1265  0.4637
15488TIP3   OH267954   5.292   3.148   6.540  0.0714 -0.5979 -0.2948
15488TIP3    H167955   5.336   3.114   6.462  0.8907 -0.0199 -0.0925
15488TIP3    H267956   5.297   3.243   6.531 -1.8116 -0.4857 -0.6333
15489TIP3   OH267957   3.621   5.141  16.169  0.5016 -0.5181  0.0677
15489TIP3    H167958   3.604   5.100  16.084  0.4648  1.1050 -0.7486
15489TIP3    H267959   3.537   5.176  16.197  1.1472  2.3127 -1.1367
15490TIP3   OH267960   3.378   3.060  16.744 -0.1586  0.0769 -0.0197
15490TIP3    H167961   3.433   2.982  16.735  0.1789  0.3969 -0.8568
15490TIP3    H267962   3.289   3.029  16.732 -0.2519 -0.5434  1.8867
15491TIP3   OH267963   3.791   6.319  11.200  0.1508  0.2168  0.2814
15491TIP3    H167964   3.782   6.259  11.126  0.6655  0.6063 -0.1014
15491TIP3    H267965   3.822   6.264  11.272 -1.8580 -0.4887  0.6843
15492TIP3   OH267966   5.461   3.959   2.607 -0.2081  0.1928 -0.8396
15492TIP3    H167967   5.476   4.016   2.532  0.1469 -0.1433 -1.0326
15492TIP3    H267968   5.406   4.010   2.666 -1.2167  0.1478 -1.7046
15493TIP3   OH267969   0.850   2.411   6.217  0.0576  0.2058  0.2644
15493TIP3    H167970   0.917   2.442   6.278  2.3386  0.5433 -2.2388
15493TIP3    H267971   0.796   2.488   6.199  1.3605  0.9469 -0.5648
15494TIP3   OH267972   1.972   5.110  15.528  0.5227  0.1706 -0.8424
15494TIP3    H167973   1.955   5.204  15.530 -0.3078  0.0276 -0.6620
15494TIP3    H267974   2.048   5.098  15.585 -0.9619  0.4437  1.3322
15495TIP3   OH267975   3.762   2.914  15.798  0.8520 -0.4802  0.2464
15495TIP3    H167976   3.841   2.864  15.817  0.7299 -0.6511  0.3119
15495TIP3    H267977   3.701   2.889  15.867 -0.1021 -2.2332 -1.1233
15496TIP3   OH267978   4.220   5.880  12.862  0.7093  0.4704 -0.2600
15496TIP3    H167979   4.308   5.883  12.825 -0.1381  1.8351 -2.3487
15496TIP3    H267980   4.163   5.857  12.789 -0.6504 -0.9499  1.1604
15497TIP3   OH267981   5.909   3.677  14.704  0.3043 -0.7993  0.3557
15497TIP3    H167982   5.997   3.659  14.736  0.3529 -0.5830  0.3491
15497TIP3    H267983   5.896   3.770  14.722  0.4202 -0.6169 -0.4534
15498TIP3   OH267984   3.757   6.513  16.167  0.4148  0.5385  0.6622
15498TIP3    H167985   3.724   6.517  16.077 -1.2937 -1.8559  1.1077
15498TIP3    H267986   3.723   6.592  16.208 -4.5421 -1.3461  0.8792
15499TIP3   OH267987   4.179   3.001   3.184 -0.4289  0.0542 -0.0063
15499TIP3    H167988   4.196   2.957   3.268 -1.5501 -3.1858 -1.3316
15499TIP3    H267989   4.087   3.024   3.187 -0.3640  0.3431 -0.1952
15500TIP3   OH267990   0.169   2.391  12.605  0.6664 -0.4582 -0.6725
15500TIP3    H167991   0.074   2.389  12.599  0.6450 -0.0114 -0.4900
15500TIP3    H267992   0.190   2.475  12.646  0.9663 -2.1295  2.9998
15501TIP3   OH267993   5.352   4.542   6.158 -0.8676 -0.5746 -0.3635
15501TIP3    H167994   5.429   4.566   6.106 -1.6502 -0.8090 -1.6656
15501TIP3    H267995   5.281   4.594   6.121 -0.8641  1.9209  2.7140
15502TIP3   OH267996   4.136   1.054  16.840  0.8760  0.2962  0.2583
15502TIP3    H167997   4.144   1.140  16.882  0.6505 -0.1703  1.2629
15502TIP3    H267998   4.134   1.074  16.746 -3.6366  1.8162  0.4327
15503TIP3   OH267999   3.520   4.692  12.807 -0.5031 -0.6904 -1.1569
15503TIP3    H168000   3.552   4.702  12.897  1.7581  1.4340 -2.0918
15503TIP3    H268001   3.471   4.772  12.790  0.7590 -0.1474 -2.4057
15504TIP3   OH268002   1.522   4.832   5.141  0.1171 -0.6397  0.1367
15504TIP3    H168003   1.432   4.838   5.172  0.4526 -1.4073  1.2979
15504TIP3    H268004   1.517   4.861   5.050 -1.3532 -0.9553  0.0839
15505TIP3   OH268005   2.051   2.711  11.290 -0.0831 -0.4189  0.4434
15505TIP3    H168006   1.986   2.770  11.329  0.2811 -0.7125  1.5389
15505TIP3    H268007   2.015   2.690  11.204  0.1953  2.0783 -0.3722
15506TIP3   OH268008   5.063   2.298  11.493 -0.5210 -0.2098 -0.0155
15506TIP3    H168009   5.155   2.313  11.514 -0.6802  1.1220 -0.1709
15506TIP3    H268010   5.015   2.356  11.552 -1.2475 -0.7849 -0.0351
15507TIP3   OH268011   1.124   0.832   4.214 -0.6084  0.0522  0.1229
15507TIP3    H168012   1.095   0.785   4.136  3.1442  0.1789 -1.5449
15507TIP3    H268013   1.156   0.763   4.272 -0.0937  0.1602 -0.0235
15508TIP3   OH268014   0.725   2.647   4.878  0.1469 -0.2358 -0.5412
15508TIP3    H168015   0.720   2.734   4.919  1.4999 -0.5482  0.3328
15508TIP3    H268016   0.703   2.586   4.949 -0.9894 -0.6266 -1.1979
15509TIP3   OH268017   5.229   1.087  14.157 -0.4851 -0.1991 -0.4044
15509TIP3    H168018   5.235   0.991  14.160 -0.1965 -0.1724  0.4856
15509TIP3    H268019   5.181   1.106  14.077 -0.3761 -1.0827 -0.6956
15510TIP3   OH268020   0.340   0.262   3.954 -0.0166 -0.3859 -0.2454
15510TIP3    H168021   0.386   0.316   4.018 -1.0768  0.6138 -0.2924
15510TIP3    H268022   0.247   0.281   3.969 -0.4251 -2.1250 -0.3408
15511TIP3   OH268023   0.842   3.554   0.985 -0.1662  0.3186  1.1020
15511TIP3    H168024   0.876   3.643   0.975  0.2236  0.1051  0.5126
15511TIP3    H268025   0.774   3.546   0.918 -0.1621  0.1507  1.1164
15512TIP3   OH268026   0.327   5.209   1.213  0.2176 -0.5768 -0.4773
15512TIP3    H168027   0.292   5.158   1.140  1.1834  0.0780 -1.4234
15512TIP3    H268028   0.337   5.297   1.179 -1.7376  0.3741  1.2486
15513TIP3   OH268029   3.039   3.069   1.998  0.0172 -0.5969 -0.7189
15513TIP3    H168030   3.090   2.997   1.962  1.2537  0.7532 -1.7822
15513TIP3    H268031   3.083   3.090   2.081  0.2433 -0.4533 -0.8740
15514TIP3   OH268032   1.526   5.383   6.670  0.5889  0.3343 -0.1023
15514TIP3    H168033   1.572   5.330   6.735 -1.6353  0.0411  1.3623
15514TIP3    H268034   1.544   5.473   6.694 -1.0196  0.2435  1.6305
15515TIP3   OH268035   2.549   0.169  12.437  1.5809  0.4113 -0.1696
15515TIP3    H168036   2.578   0.150  12.526  0.7992  1.8318  0.4231
15515TIP3    H268037   2.629   0.167  12.385  2.0941 -0.1330  0.6137
15516TIP3   OH268038   5.267   3.478   2.344  0.1766 -0.3452 -0.4729
15516TIP3    H168039   5.301   3.478   2.255 -0.4966 -0.4475 -0.7324
15516TIP3    H268040   5.297   3.561   2.381 -0.5499  0.2506 -1.1909
15517TIP3   OH268041   0.885   0.643   5.439  0.0855  0.2193  0.4043
15517TIP3    H168042   0.920   0.724   5.402  0.7895 -0.1201  0.2966
15517TIP3    H268043   0.802   0.629   5.394 -0.2729  1.1263  0.7704
15518TIP3   OH268044   2.789   2.652   1.485 -0.9336  0.3403  0.0364
15518TIP3    H168045   2.694   2.664   1.489 -0.8913  0.5512  0.4721
15518TIP3    H268046   2.825   2.734   1.519 -0.6199 -0.4029  1.6042
15519TIP3   OH268047   3.949   4.137   4.287  0.2636  0.7487 -0.2208
15519TIP3    H168048   3.937   4.232   4.288 -1.4862  0.5871 -1.4133
15519TIP3    H268049   3.963   4.114   4.379  1.8384  2.2558 -0.0329
15520TIP3   OH268050   6.318   4.217  14.453  0.5067 -0.7313  0.6758
15520TIP3    H168051   6.252   4.203  14.520  1.6359 -0.6009  1.8626
15520TIP3    H268052   6.352   4.130  14.434 -0.2626 -0.8508 -0.2418
15521TIP3   OH268053   1.736   5.595  13.782  0.3207  0.0545  0.1656
15521TIP3    H168054   1.742   5.524  13.846  1.0796 -1.2294 -1.2600
15521TIP3    H268055   1.809   5.580  13.723 -0.5259  1.0114 -1.1834
15522TIP3   OH268056   0.473   6.677  15.505  0.2425  0.4128 -0.0276
15522TIP3    H168057   0.377   6.672  15.507  0.2237  0.8141  0.0790
15522TIP3    H268058   0.494   6.763  15.542  0.5911  0.8994 -1.2981
15523TIP3   OH268059   6.596   1.437   6.054  0.3056 -0.2669 -0.2542
15523TIP3    H168060   6.579   1.461   6.145  0.4735  1.3260 -0.6216
15523TIP3    H268061   6.586   1.519   6.005  1.2959 -0.8743 -1.5223
15524TIP3   OH268062   1.889   1.461   4.910  0.0478 -0.6806  0.7710
15524TIP3    H168063   1.801   1.428   4.895 -0.7083  2.0841 -2.1020
15524TIP3    H268064   1.876   1.550   4.942  1.7356 -0.1359  0.0942
15525TIP3   OH268065   6.251   2.834   4.686  0.3775 -0.1607 -0.2400
15525TIP3    H168066   6.274   2.741   4.693  1.6695 -0.0953 -2.6544
15525TIP3    H268067   6.322   2.872   4.633 -0.3480  2.1244  0.3362
15526TIP3   OH268068   2.146   0.165   1.809 -1.1208 -0.2391 -0.2133
15526TIP3    H168069   2.231   0.159   1.853 -1.2166  0.3500  0.0714
15526TIP3    H268070   2.115   0.075   1.804  0.1910 -0.6537 -1.6743
15527TIP3   OH268071   0.877   6.489  15.309  0.1075 -0.2081 -0.5998
15527TIP3    H168072   0.970   6.480  15.286 -0.0960 -0.3633 -1.3726
15527TIP3    H268073   0.830   6.475  15.227 -0.5692  0.7489 -0.3912
15528TIP3   OH268074   0.384   0.717  12.495 -0.4413  0.2763  0.3104
15528TIP3    H168075   0.433   0.639  12.519 -0.3621  0.6128  1.2597
15528TIP3    H268076   0.292   0.694  12.510 -0.8677 -0.9867 -3.1439
15529TIP3   OH268077   0.439   2.405   5.239  0.3501 -0.2584 -0.8205
15529TIP3    H168078   0.380   2.478   5.262  0.7296 -0.2967  0.3280
15529TIP3    H268079   0.407   2.375   5.154 -1.0724 -0.0391 -0.3971
15530TIP3   OH268080   5.547   3.591   1.739  0.7189 -0.6067 -0.1544
15530TIP3    H168081   5.452   3.601   1.731  0.8725  1.4740 -0.1152
15530TIP3    H268082   5.560   3.536   1.816 -0.4721  1.8954  1.9821
15531TIP3   OH268083   6.511   6.568   1.620  0.0570 -0.4760 -0.0885
15531TIP3    H168084   6.521   6.544   1.528 -2.5135 -1.7532 -0.1201
15531TIP3    H268085   6.421   6.544   1.642  0.1091  1.1876  2.3737
15532TIP3   OH268086   4.262   6.166   3.666  0.4152 -0.2887 -0.1645
15532TIP3    H168087   4.220   6.081   3.678 -1.0609  0.2757 -1.0747
15532TIP3    H268088   4.255   6.183   3.572  2.7200 -0.1506 -0.3600
15533TIP3   OH268089   0.439   2.086  15.114  0.2026 -0.0032 -0.1550
15533TIP3    H168090   0.402   2.048  15.193  0.1607  2.5053  1.1187
15533TIP3    H268091   0.528   2.051  15.110 -0.0630 -0.7884  0.5234
15534TIP3   OH268092   3.873   5.492   5.480  0.5945  0.6950  0.6202
15534TIP3    H168093   3.817   5.542   5.421 -1.0368 -1.6433  0.0372
15534TIP3    H268094   3.812   5.457   5.546  1.1984 -2.2741 -0.2635
15535TIP3   OH268095   5.078   1.452  13.754 -0.4800 -0.5460  0.3174
15535TIP3    H168096   5.173   1.454  13.768 -0.3242 -0.7222 -0.6759
15535TIP3    H268097   5.059   1.535  13.710 -0.8509 -0.3387  0.8595
15536TIP3   OH268098   0.955   3.564  12.794  0.4659 -0.2305 -0.2908
15536TIP3    H168099   1.037   3.528  12.759  1.0757 -1.8793  2.5107
15536TIP3    H268100   0.887   3.521  12.742  1.2511  1.6705 -3.1238
15537TIP3   OH268101   0.906   2.543   0.621 -0.2667 -0.4974  0.0735
15537TIP3    H168102   0.846   2.564   0.550 -0.0734 -0.3789 -0.0524
15537TIP3    H268103   0.901   2.619   0.680  0.4337 -0.0948 -0.3826
15538TIP3   OH268104   6.634   6.525  15.639 -0.0995 -0.2942  0.1015
15538TIP3    H168105   6.671   6.607  15.606 -2.2687  0.2488 -1.1816
15538TIP3    H268106   6.708   6.466  15.645  1.1647  1.0659 -1.2151
15539TIP3   OH268107   2.410   1.944  16.510 -0.4751 -0.0334 -0.2680
15539TIP3    H168108   2.395   1.859  16.469 -1.4637  0.1667 -0.3366
15539TIP3    H268109   2.323   1.983  16.517  0.0043  1.1477 -0.6273
15540TIP3   OH268110   5.635   0.642  15.143  0.1772 -0.3383 -0.2430
15540TIP3    H168111   5.651   0.730  15.109 -0.6510  0.1314  0.5430
15540TIP3    H268112   5.539   0.633  15.142  0.1807 -0.6605  1.0605
15541TIP3   OH268113   5.835   1.673  13.729 -0.1809 -0.0478  0.3931
15541TIP3    H168114   5.914   1.657  13.677 -1.6432  0.1983 -2.0641
15541TIP3    H268115   5.835   1.603  13.794  1.5508 -0.6306 -0.1597
15542TIP3   OH268116   6.484   4.954  15.462 -0.1454 -0.0803 -0.5110
15542TIP3    H168117   6.576   4.936  15.441  0.0590  0.3049  0.0481
15542TIP3    H268118   6.480   4.952  15.557 -0.0265  3.1357 -0.3304
15543TIP3   OH268119   0.901   5.486   0.622  0.1694  0.1167 -0.0593
15543TIP3    H168120   0.832   5.453   0.563  0.0606 -0.1192  0.2020
15543TIP3    H268121   0.864   5.477   0.710  1.1319 -1.4880  0.2145
15544TIP3   OH268122   2.655   1.675   1.803  0.4009  0.1542 -0.0559
15544TIP3    H168123   2.622   1.749   1.854  1.4328  0.8788 -0.4113
15544TIP3    H268124   2.711   1.626   1.863  1.8382  1.1616 -0.5264
15545TIP3   OH268125   0.138   4.384  14.419 -0.1267  0.0905 -0.1732
15545TIP3    H168126   0.142   4.413  14.328  0.9147  2.3238  0.5008
15545TIP3    H268127   0.225   4.402  14.453 -1.1038  1.3925  1.8148
15546TIP3   OH268128   4.646   3.714   1.683 -0.4402  0.2397  0.4143
15546TIP3    H168129   4.644   3.722   1.778 -0.6896 -1.7927  0.6275
15546TIP3    H268130   4.582   3.645   1.663 -0.3928  0.6154 -1.2282
15547TIP3   OH268131   6.201   0.220  14.141 -0.5207  0.0205  0.2711
15547TIP3    H168132   6.136   0.288  14.119  0.2018  1.3921  2.0930
15547TIP3    H268133   6.149   0.141  14.156 -1.6483  0.7447  0.3352
15548TIP3   OH268134   5.760   3.265  11.762 -0.1250 -0.4922 -0.4722
15548TIP3    H168135   5.716   3.349  11.773  0.4947 -0.2000 -0.1529
15548TIP3    H268136   5.711   3.204  11.818  1.0023  0.2518  1.4215
15549TIP3   OH268137   3.902   5.303  15.595 -0.1776 -0.4522 -0.0240
15549TIP3    H168138   3.922   5.236  15.529 -0.8375 -0.6871  0.0086
15549TIP3    H268139   3.969   5.292  15.662  0.7500  0.0539 -0.8425
15550TIP3   OH268140   6.615   6.101   2.215 -0.2889 -0.1898 -0.3128
15550TIP3    H168141   6.629   6.195   2.204 -0.5411 -0.0236  0.6857
15550TIP3    H268142   6.536   6.083   2.163 -0.8441  0.3575  0.3164
15551TIP3   OH268143   1.726   4.673  11.306  0.6811 -0.8181  0.3591
15551TIP3    H168144   1.702   4.737  11.239  3.9981  0.1421 -0.1283
15551TIP3    H268145   1.754   4.596  11.257  0.5321 -1.1396  0.7703
15552TIP3   OH268146   5.274   6.020   1.986  0.5195  0.6943 -0.2726
15552TIP3    H168147   5.250   6.033   2.077  0.7389  0.7718 -0.2247
15552TIP3    H268148   5.370   6.016   1.986  0.6196  2.2927 -0.6922
15553TIP3   OH268149   1.507   3.693   5.765 -0.6723 -0.1170  0.2731
15553TIP3    H168150   1.561   3.639   5.708 -0.1425 -1.0079  1.5860
15553TIP3    H268151   1.422   3.649   5.766 -0.5173 -0.4136  0.6003
15554TIP3   OH268152   3.761   0.603  15.792  0.2680 -0.3616  0.1132
15554TIP3    H168153   3.746   0.524  15.843  0.9812  0.5116  1.7569
15554TIP3    H268154   3.755   0.675  15.855 -1.1989  1.0073 -1.4687
15555TIP3   OH268155   5.169   4.590   0.261  0.4994  0.3749 -0.3936
15555TIP3    H168156   5.180   4.589   0.356 -0.8058  3.3210 -0.1280
15555TIP3    H268157   5.098   4.651   0.245 -1.6583 -2.5051 -3.1566
15556TIP3   OH268158   0.407   6.216   2.386  0.1388 -0.0598 -0.2937
15556TIP3    H168159   0.394   6.123   2.404  0.7458 -0.6892 -2.7271
15556TIP3    H268160   0.501   6.223   2.367 -0.0316  0.8811 -0.8554
15557TIP3   OH268161   5.482   3.557  14.608 -0.3057  0.0936  0.1052
15557TIP3    H168162   5.513   3.639  14.647  0.4820 -0.3959  0.5198
15557TIP3    H268163   5.558   3.499  14.609 -0.5305 -0.2656 -1.2654
15558TIP3   OH268164   2.801   4.037  11.644  0.0750  0.5401 -0.1826
15558TIP3    H168165   2.893   4.012  11.642  0.7418  2.7905 -1.2690
15558TIP3    H268166   2.758   3.968  11.695  2.3901 -0.3997  0.6191
15559TIP3   OH268167   1.764   5.866   6.051  0.1112  0.0345 -0.7685
15559TIP3    H168168   1.671   5.862   6.073 -0.5108  1.3880 -2.8308
15559TIP3    H268169   1.786   5.959   6.056  0.2725  0.2818 -3.9765
15560TIP3   OH268170   6.871   5.817   3.661  0.0541  0.2259  0.5141
15560TIP3    H168171   6.883   5.723   3.675  0.0598  0.6159  4.0158
15560TIP3    H268172   6.956   5.856   3.682  0.8967  0.9796 -3.4748
15561TIP3   OH268173   3.782   3.644  13.033  0.0004  0.2448  0.1213
15561TIP3    H168174   3.872   3.652  13.066  0.5635  0.4074 -1.3412
15561TIP3    H268175   3.764   3.550  13.035  1.2551 -0.1255 -2.0411
15562TIP3   OH268176   6.184   1.873   2.148  0.2401 -0.0885 -0.1421
15562TIP3    H168177   6.149   1.785   2.166  0.4385  0.1051  1.3093
15562TIP3    H268178   6.256   1.883   2.210  0.2555  1.0767 -0.3266
15563TIP3   OH268179   0.863   0.112  14.990 -0.2124 -0.1122  0.0642
15563TIP3    H168180   0.877   0.165  15.068 -0.3081 -0.1853  0.1315
15563TIP3    H268181   0.814   0.169  14.931  1.6679  0.7068 -0.8020
15564TIP3   OH268182   0.860   4.055  14.313 -0.8612  0.7818  0.1253
15564TIP3    H168183   0.883   4.141  14.348 -0.9625  1.3083 -1.0585
15564TIP3    H268184   0.944   4.017  14.286 -1.0595  1.7414 -2.0384
15565TIP3   OH268185   2.034   2.196  15.387 -0.0022  0.2698 -0.3846
15565TIP3    H168186   1.951   2.240  15.408  0.4848  0.6547  0.8713
15565TIP3    H268187   2.085   2.204  15.467  1.0534 -0.4352 -0.9688
15566TIP3   OH268188   5.991   5.834   3.234  0.0108 -0.1089 -0.5333
15566TIP3    H168189   6.003   5.848   3.140 -0.8486 -2.1863 -1.0067
15566TIP3    H268190   6.045   5.757   3.254 -0.7737 -0.4358  0.4073
15567TIP3   OH268191   1.443   2.145   2.724  0.2256  0.4882  0.3921
15567TIP3    H168192   1.403   2.062   2.748 -0.5132  0.8425  0.4264
15567TIP3    H268193   1.493   2.126   2.644 -0.9903  0.2738 -0.3449
15568TIP3   OH268194   3.339   4.536  16.932  0.1278 -0.1547  0.2621
15568TIP3    H168195   3.267   4.480  16.903 -1.6482  1.5742  1.0461
15568TIP3    H268196   3.316   4.559  17.022  1.2903  1.0261  0.2872
15569TIP3   OH268197   5.575   0.255  13.767 -0.4615  0.0121  0.3935
15569TIP3    H168198   5.557   0.177  13.715  0.0075 -1.1812  1.9279
15569TIP3    H268199   5.658   0.235  13.811 -0.9517  0.8390  1.7598
15570TIP3   OH268200   4.397   5.686   4.624  0.2609  0.3878 -0.1802
15570TIP3    H168201   4.476   5.656   4.670 -0.3753 -1.1010  0.0076
15570TIP3    H268202   4.399   5.781   4.631  1.2962  0.2919  1.0667
15571TIP3   OH268203   4.069   0.503   0.061  1.5999 -0.2625  0.2766
15571TIP3    H168204   4.128   0.550   0.002  1.4467 -0.2854  0.1037
15571TIP3    H268205   4.085   0.411   0.042  0.0598 -0.2710 -1.2437
15572TIP3   OH268206   6.604   6.777   2.258  0.2436  0.3339 -0.8430
15572TIP3    H168207   6.518   6.807   2.227 -0.0952 -0.8052 -1.0290
15572TIP3    H268208   6.657   6.857   2.261 -1.1139  1.2517  0.3092
15573TIP3   OH268209   6.589   6.090  15.508  0.5348 -0.0221 -0.1599
15573TIP3    H168210   6.544   6.036  15.443 -0.6479 -0.1433  0.7158
15573TIP3    H268211   6.645   6.148  15.457 -0.2569 -0.2098 -1.2803
15574TIP3   OH268212   1.310   5.004  12.600 -0.3213  0.0107 -0.4853
15574TIP3    H168213   1.240   5.029  12.660 -0.6067 -0.4156 -0.6353
15574TIP3    H268214   1.328   5.084  12.549 -0.6061  0.1569 -0.3564
15575TIP3   OH268215   3.638   5.339   2.899  0.1551 -0.0940  0.0301
15575TIP3    H168216   3.713   5.351   2.957  1.4211 -1.4728 -1.2371
15575TIP3    H268217   3.627   5.245   2.892 -2.8593  0.0323  1.5210
15576TIP3   OH268218   0.171   2.389  13.935 -0.5957  0.1371  0.3992
15576TIP3    H168219   0.220   2.307  13.935  0.0480  0.5101  0.2952
15576TIP3    H268220   0.213   2.443  13.868 -2.3229 -0.1858 -1.0151
15577TIP3   OH268221   3.543   3.447  14.316  0.3893 -0.3188 -0.3074
15577TIP3    H168222   3.475   3.419  14.378  1.5359 -0.7568  0.7954
15577TIP3    H268223   3.615   3.477  14.371  0.9196  0.6046 -1.4619
15578TIP3   OH268224   0.544   2.281   3.738 -0.3302  0.1017 -0.2217
15578TIP3    H168225   0.500   2.201   3.709  0.0887 -0.5587  0.8958
15578TIP3    H268226   0.477   2.348   3.732 -1.2621 -0.7136  0.6201
15579TIP3   OH268227   5.186   0.521   2.915 -0.3534  0.1652 -0.2409
15579TIP3    H168228   5.144   0.585   2.974  0.4905  0.8845 -0.3948
15579TIP3    H268229   5.184   0.562   2.829  0.8819  0.3424 -0.2076
15580TIP3   OH268230   4.321   1.151   4.237 -0.1923  0.1981 -0.2063
15580TIP3    H168231   4.355   1.089   4.173  0.3714  0.5584 -0.2656
15580TIP3    H268232   4.307   1.099   4.316  0.9595  0.1198 -0.0315
15581TIP3   OH268233   5.085   1.366   4.505  0.3572 -0.4753  0.4866
15581TIP3    H168234   5.124   1.307   4.569  0.4454 -0.4779  0.4299
15581TIP3    H268235   5.041   1.433   4.558 -0.2830 -0.9418  0.5539
15582TIP3   OH268236   3.784   6.592  13.614 -0.4689  0.0368  0.0537
15582TIP3    H168237   3.874   6.571  13.640  0.1454  1.3645 -0.8876
15582TIP3    H268238   3.786   6.685  13.593 -1.7564 -0.1932 -1.2425
15583TIP3   OH268239   6.815   1.282   2.152  0.6064  0.2694 -0.5362
15583TIP3    H168240   6.751   1.246   2.090  0.0824  2.3755 -1.2903
15583TIP3    H268241   6.899   1.276   2.107  0.3882  0.7974 -1.0173
15584TIP3   OH268242   5.990   6.013   6.182  0.2257  0.2327  0.1744
15584TIP3    H168243   5.950   6.096   6.155 -1.1905 -0.2598  0.6716
15584TIP3    H268244   6.083   6.025   6.164 -0.1214  1.4281 -1.0414
15585TIP3   OH268245   5.147   5.289   2.528 -0.8372 -0.1876 -0.1145
15585TIP3    H168246   5.230   5.243   2.535 -0.0324  1.1514 -0.5293
15585TIP3    H268247   5.111   5.262   2.444 -1.7345 -2.1436  0.8086
15586TIP3   OH268248   0.119   3.137  10.768  0.0446  0.3224 -0.2925
15586TIP3    H168249   0.183   3.180  10.712  2.4264 -1.7435  0.6249
15586TIP3    H268250   0.086   3.207  10.824  0.6311  1.6710 -1.5652
15587TIP3   OH268251   1.422   5.384  11.042  0.2260  0.0302 -0.5633
15587TIP3    H168252   1.389   5.321  11.106 -0.4057  0.4581 -0.4614
15587TIP3    H268253   1.442   5.463  11.094 -2.0209  1.0384 -1.0992
15588TIP3   OH268254   2.191   4.769   0.717  0.7641  0.0931 -0.2152
15588TIP3    H168255   2.220   4.826   0.788 -1.7886 -0.2046  1.1762
15588TIP3    H268256   2.219   4.681   0.744 -1.2196 -0.1927  1.1139
15589TIP3   OH268257   4.122   3.045  11.175  0.4520  0.2293 -0.0973
15589TIP3    H168258   4.085   3.016  11.258  3.5166 -0.9238  1.0384
15589TIP3    H268259   4.059   3.016  11.109 -2.4883  1.8908  1.7456
15590TIP3   OH268260   5.434   0.594   4.436  0.2137 -0.4520  0.8726
15590TIP3    H168261   5.373   0.534   4.394  0.9341 -0.6108  0.0287
15590TIP3    H268262   5.402   0.681   4.414  1.3913 -0.5066 -1.2911
15591TIP3   OH268263   4.295   4.681  13.987  0.4104 -0.3312 -0.0851
15591TIP3    H168264   4.361   4.707  13.923 -1.0044  2.0280 -0.6735
15591TIP3    H268265   4.222   4.650  13.935  0.0264 -0.3548  0.4642
15592TIP3   OH268266   0.926   2.305   4.094 -0.8023 -0.3848  0.0885
15592TIP3    H168267   0.885   2.385   4.061 -0.3399  0.1202  0.6935
15592TIP3    H268268   0.864   2.273   4.160 -0.2306  0.4039  1.0366
15593TIP3   OH268269   5.877   6.313   6.100 -0.0501  0.0400  0.5582
15593TIP3    H168270   5.794   6.360   6.094 -0.6400 -0.7775  1.8572
15593TIP3    H268271   5.943   6.382   6.107 -0.7728  0.6817  1.1934
15594TIP3   OH268272   2.018   1.468  13.609  0.5209 -0.0236 -0.3389
15594TIP3    H168273   2.089   1.494  13.668  2.1920  0.5505 -2.5037
15594TIP3    H268274   2.008   1.542  13.549  0.2045 -1.3264 -1.9678
15595TIP3   OH268275   2.085   0.173   1.109  0.3313 -0.2908 -0.3997
15595TIP3    H168276   2.154   0.222   1.154 -1.3311  0.8747  1.0361
15595TIP3    H268277   2.099   0.191   1.016  1.7307  0.2043 -0.1116
15596TIP3   OH268278   2.002   4.874  12.975  0.4673 -0.2372  0.0029
15596TIP3    H168279   1.908   4.857  12.982  0.3891  0.6318  2.0483
15596TIP3    H268280   2.021   4.932  13.050  3.0125 -2.1857  1.0211
15597TIP3   OH268281   4.118   2.039   1.233 -0.0900  0.7518  0.2092
15597TIP3    H168282   4.188   1.990   1.276  1.5294  2.0057 -0.8649
15597TIP3    H268283   4.038   1.994   1.259  1.1191 -0.9320  1.2466
15598TIP3   OH268284   4.719   1.845  16.996  0.3492  0.3991 -0.0161
15598TIP3    H168285   4.647   1.800  16.953 -0.0188  0.6899  0.2828
15598TIP3    H268286   4.699   1.938  16.986  0.4745  0.4753  0.4081
15599TIP3   OH268287   1.341   0.716   6.424  0.0927  0.1292  0.7539
15599TIP3    H168288   1.283   0.719   6.500  1.9186  1.1633  2.1850
15599TIP3    H268289   1.384   0.630   6.430  0.2148  0.1986  0.8703
15600TIP3   OH268290   1.270   1.789   3.894  0.0398 -0.2907 -0.4597
15600TIP3    H168291   1.277   1.874   3.938 -2.6040 -0.4481  0.3963
15600TIP3    H268292   1.221   1.807   3.814  0.1484 -0.8848 -0.6622
15601TIP3   OH268293   0.959   1.176   1.180 -0.5556  0.4522 -0.0645
15601TIP3    H168294   0.940   1.227   1.101 -0.7969  1.1092  0.4143
15601TIP3    H268295   1.053   1.160   1.176 -0.4397  1.1408 -0.0979
15602TIP3   OH268296   1.976   2.629   5.586 -0.2281 -0.0752  1.0347
15602TIP3    H168297   1.977   2.591   5.674 -0.1303  0.5549  1.3091
15602TIP3    H268298   1.883   2.641   5.566 -0.2179  1.0749  1.6235
15603TIP3   OH268299   1.125   6.643   1.472  0.1546 -0.5895  0.0330
15603TIP3    H168300   1.149   6.716   1.528 -2.9965  1.6785 -1.2675
15603TIP3    H268301   1.046   6.606   1.512 -1.2142  0.0526 -1.8785
15604TIP3   OH268302   2.721   3.736  12.887 -0.4873  0.4206 -0.0191
15604TIP3    H168303   2.707   3.676  12.960  1.4551 -0.4455 -0.2989
15604TIP3    H268304   2.633   3.754  12.853 -1.1801 -1.6296  0.5642
15605TIP3   OH268305   3.667   2.385   3.093 -0.0488  0.1255 -0.4003
15605TIP3    H168306   3.740   2.346   3.045 -0.2151  0.5684 -1.0364
15605TIP3    H268307   3.612   2.310   3.118  2.0573 -0.5600  2.7051
15606TIP3   OH268308   4.485   0.494  14.595  0.2286  0.3371 -0.5078
15606TIP3    H168309   4.421   0.423  14.585 -0.3667  0.7313  0.3799
15606TIP3    H268310   4.488   0.537  14.510 -0.6545  0.2830 -0.5698
15607TIP3   OH268311   6.569   0.458  13.056  0.3607 -0.0767  0.4755
15607TIP3    H168312   6.499   0.507  13.013  0.3034 -0.5634  0.0049
15607TIP3    H268313   6.629   0.434  12.985 -0.5403 -2.2377  0.3705
15608TIP3   OH268314   6.611   0.436   2.706 -0.4334  0.3952 -0.1901
15608TIP3    H168315   6.653   0.458   2.623 -0.5657  2.3839  0.2210
15608TIP3    H268316   6.525   0.401   2.681 -0.2795  0.5221 -0.9054
15609TIP3   OH268317   0.328   6.820   4.734 -0.0283 -0.5935 -0.1249
15609TIP3    H168318   0.304   6.732   4.764  1.6705 -1.3017 -0.6870
15609TIP3    H268319   0.274   6.879   4.786 -0.5684 -1.9397  0.9062
15610TIP3   OH268320   1.310   1.088   5.223  0.3300 -0.6676 -0.0458
15610TIP3    H168321   1.301   1.148   5.149 -0.0345  1.3205  1.4944
15610TIP3    H268322   1.282   1.140   5.299 -0.5896 -3.0141  1.3329
15611TIP3   OH268323   1.071   5.989   2.578  0.1900  0.2447  0.1231
15611TIP3    H168324   1.115   5.962   2.498 -0.4907 -1.0773  0.1639
15611TIP3    H268325   1.141   6.012   2.638  0.7178  1.0050 -0.7496
15612TIP3   OH268326   0.435   2.168   0.844 -0.3063 -0.4174  0.1186
15612TIP3    H168327   0.413   2.151   0.753  2.3763 -0.6941 -0.5462
15612TIP3    H268328   0.433   2.264   0.852 -0.6881 -0.3995 -0.1690
15613TIP3   OH268329   1.154   5.597  15.443 -0.3444 -0.1035 -0.6187
15613TIP3    H168330   1.149   5.609  15.348 -0.3777 -1.8499 -0.8705
15613TIP3    H268331   1.106   5.515  15.459  3.5991 -2.5102  0.2552
15614TIP3   OH268332   3.427   4.354   3.367  0.1551  0.2499  0.3675
15614TIP3    H168333   3.518   4.349   3.395  0.4198  2.2618 -0.0113
15614TIP3    H268334   3.383   4.401   3.438 -0.9230 -1.8716  1.1942
15615TIP3   OH268335   6.538   0.706  13.706 -0.0870  0.5042 -0.6193
15615TIP3    H168336   6.632   0.698  13.687  0.0957  3.0801 -1.1998
15615TIP3    H268337   6.496   0.680  13.624  0.0770 -0.6993 -0.3461
15616TIP3   OH268338   6.867   4.756  15.153  0.7726 -0.0639  0.4553
15616TIP3    H168339   6.898   4.837  15.111  2.3216 -0.7020  0.3191
15616TIP3    H268340   6.880   4.688  15.087 -0.9314 -0.3927  0.4071
15617TIP3   OH268341   1.676   3.891  15.895 -0.3589  0.0969 -0.1410
15617TIP3    H168342   1.720   3.907  15.978 -0.5389 -0.1150 -0.0037
15617TIP3    H268343   1.703   3.964  15.839  1.0335 -0.6015 -0.4232
15618TIP3   OH268344   3.764   3.875  15.844  0.2188 -0.2246 -0.0199
15618TIP3    H168345   3.840   3.917  15.804  0.7240  0.1937  1.3096
15618TIP3    H268346   3.739   3.806  15.783  1.0775  0.2483 -0.9265
15619TIP3   OH268347   2.276   6.362   3.424  0.3447  0.4953 -0.3552
15619TIP3    H168348   2.361   6.355   3.382  0.1436  2.0306 -1.0875
15619TIP3    H268349   2.296   6.383   3.516  0.8482  4.0166 -1.1282
15620TIP3   OH268350   1.066   3.821  11.564 -0.2351  0.5271  0.1220
15620TIP3    H168351   1.036   3.738  11.600  3.7690 -1.2360 -0.1066
15620TIP3    H268352   1.015   3.832  11.483 -3.1612  0.1239  1.7721
15621TIP3   OH268353   4.714   0.042   3.677 -0.6896 -0.2515 -0.2051
15621TIP3    H168354   4.751   0.127   3.700  0.9977 -0.9668 -0.1268
15621TIP3    H268355   4.645   0.062   3.614 -0.2462  1.1572 -0.2758
15622TIP3   OH268356   2.120   4.677  16.352 -0.6817 -0.5037  0.0200
15622TIP3    H168357   2.157   4.760  16.382 -0.3239 -0.5512 -0.2840
15622TIP3    H268358   2.193   4.615  16.355 -1.0126 -0.8781  0.5129
15623TIP3   OH268359   4.640   3.847  16.635  0.5131 -0.4495 -0.3335
15623TIP3    H168360   4.696   3.771  16.644  0.4519 -0.4165  0.3676
15623TIP3    H268361   4.667   3.887  16.552  2.1701  0.0940  0.4275
15624TIP3   OH268362   5.897   0.390  13.132  0.1102  0.3297 -1.0276
15624TIP3    H168363   5.943   0.462  13.175 -1.7458  0.5632  0.7056
15624TIP3    H268364   5.963   0.350  13.076  1.9799  1.5959  0.1457
15625TIP3   OH268365   1.462   4.128   1.804  0.2629  0.8042  0.3332
15625TIP3    H168366   1.433   4.131   1.895  0.7842 -1.7282  0.6615
15625TIP3    H268367   1.547   4.084   1.807  1.4842  2.8590 -1.1770
15626TIP3   OH268368   2.137   0.724  16.987  0.1129 -0.3117 -0.4075
15626TIP3    H168369   2.111   0.816  16.978  1.4169  0.0431 -0.8294
15626TIP3    H268370   2.225   0.728  17.024  0.1220 -1.4072 -0.2851
15627TIP3   OH268371   5.467   1.992   5.229 -0.2509 -0.4237 -0.0544
15627TIP3    H168372   5.397   1.929   5.248 -0.3504 -0.6200 -1.0088
15627TIP3    H268373   5.425   2.057   5.172 -0.1150  0.4464  0.8147
15628TIP3   OH268374   1.320   0.015   2.146 -0.2222 -0.7798 -0.6960
15628TIP3    H168375   1.241  -0.034   2.124 -1.1487  0.5999 -0.5303
15628TIP3    H268376   1.289   0.102   2.170  1.2830 -0.4324  0.1359
15629TIP3   OH268377   1.734   5.296   4.524 -0.2272 -0.3636  0.2119
15629TIP3    H168378   1.728   5.205   4.552  0.3969 -1.4072 -2.7454
15629TIP3    H268379   1.828   5.312   4.515 -0.3671 -0.5306 -2.2822
15630TIP3   OH268380   1.557   4.041   1.138  0.1435  0.5950  0.4208
15630TIP3    H168381   1.588   4.103   1.072  0.7598  2.8186  2.6135
15630TIP3    H268382   1.600   3.959   1.116  0.8493  1.4233 -1.5213
15631TIP3   OH268383   4.550   6.441   6.257 -0.0984 -0.3753  0.2818
15631TIP3    H168384   4.542   6.521   6.309  1.0290  0.9505 -1.4619
15631TIP3    H268385   4.596   6.379   6.314  0.7793  0.9074  1.0116
15632TIP3   OH268386   0.334   0.958  15.403  0.7012  0.0659 -0.0521
15632TIP3    H168387   0.339   0.927  15.313 -0.4580  0.3212 -0.2188
15632TIP3    H268388   0.346   1.053  15.397 -1.7370  0.4141 -0.2366
15633TIP3   OH268389   4.604   3.808  15.397  0.3286 -0.1958  0.4250
15633TIP3    H168390   4.677   3.870  15.388  0.9936 -1.2544 -2.3214
15633TIP3    H268391   4.611   3.777  15.487  2.2691  0.9365  0.7341
15634TIP3   OH268392   4.693   4.435  16.151  0.5238  0.2704 -0.1881
15634TIP3    H168393   4.743   4.474  16.222  0.6055  1.1116 -0.6916
15634TIP3    H268394   4.686   4.505  16.086  1.3060 -0.7951 -1.4484
15635TIP3   OH268395   2.450   3.901   3.133  0.0244  0.4355  0.1334
15635TIP3    H168396   2.427   3.836   3.066 -0.4294  1.5364 -0.8270
15635TIP3    H268397   2.457   3.984   3.084 -1.4081  1.4825  1.6104
15636TIP3   OH268398   3.131   5.427  16.914  0.0468  0.3073 -0.7184
15636TIP3    H168399   3.116   5.358  16.850  1.3903 -0.3305 -0.3858
15636TIP3    H268400   3.150   5.505  16.863 -1.9919  0.6041 -1.1097
15637TIP3   OH268401   6.639   2.037   3.167  0.5201 -0.0732  0.1656
15637TIP3    H168402   6.705   2.058   3.233  0.7238 -0.1098 -0.0263
15637TIP3    H268403   6.689   2.026   3.086  0.3941 -1.0315  0.2024
15638TIP3   OH268404   3.309   2.263  12.171  0.7319  0.7335  0.8511
15638TIP3    H168405   3.332   2.206  12.245 -0.5904  0.1508  0.8380
15638TIP3    H268406   3.219   2.289  12.188 -0.2301 -0.7900 -1.3718
15639TIP3   OH268407   1.333   3.673  12.177 -0.2381  0.7869  0.6459
15639TIP3    H168408   1.352   3.753  12.129  0.8175  0.8788  1.1846
15639TIP3    H268409   1.418   3.642  12.208 -0.3193 -1.7058 -1.3099
15640TIP3   OH268410   6.509   4.192   5.391  1.1630  0.2889 -0.2380
15640TIP3    H168411   6.593   4.215   5.432  1.0960  1.4994 -0.7182
15640TIP3    H268412   6.464   4.276   5.381  0.9451 -0.0163 -2.2500
15641TIP3   OH268413   3.889   6.709  14.509  0.5331  0.1984 -0.4388
15641TIP3    H168414   3.979   6.678  14.519 -0.0890 -1.2469  1.3528
15641TIP3    H268415   3.845   6.640  14.459 -0.0264 -0.1193  0.4623
15642TIP3   OH268416   3.035   1.922   2.376  0.0027  0.2154 -0.5530
15642TIP3    H168417   2.982   1.842   2.374 -1.2673  0.9337  1.4278
15642TIP3    H268418   3.112   1.901   2.323 -0.5368 -2.1357 -0.5195
15643TIP3   OH268419   0.587   4.074   6.598  0.4761  0.2903 -0.4995
15643TIP3    H168420   0.604   4.168   6.603 -0.9575  0.6133 -1.0766
15643TIP3    H268421   0.603   4.052   6.506 -2.8060  0.8162 -1.3405
15644TIP3   OH268422   1.548   5.366   2.359 -0.3751  0.0916 -0.0154
15644TIP3    H168423   1.476   5.305   2.349 -0.3816  0.4447 -3.2053
15644TIP3    H268424   1.540   5.399   2.448 -2.4964 -1.8709  0.5983
15645TIP3   OH268425   6.711   5.568  15.818 -0.0378  0.1582 -0.2962
15645TIP3    H168426   6.805   5.569  15.838  0.4043 -0.9091 -2.0592
15645TIP3    H268427   6.684   5.477  15.835 -1.3217  0.9534  2.3613
15646TIP3   OH268428   0.495   1.741   0.348  0.2927 -0.2359 -0.7007
15646TIP3    H168429   0.497   1.815   0.288  1.8348  1.2660  1.0764
15646TIP3    H268430   0.410   1.748   0.393  1.0713  1.4898  0.6008
15647TIP3   OH268431   2.511   4.220   4.444  0.2873  0.2672  0.2437
15647TIP3    H168432   2.467   4.201   4.527  0.2841 -2.2042 -0.2707
15647TIP3    H268433   2.496   4.143   4.390 -0.2956  2.0730 -2.3610
15648TIP3   OH268434   0.335   5.576   4.083 -0.9187  0.0064  0.3257
15648TIP3    H168435   0.400   5.594   4.151 -1.3989 -1.3500  1.1912
15648TIP3    H268436   0.357   5.635   4.012  0.7835  0.1155  0.9073
15649TIP3   OH268437   2.512   3.717   1.714 -0.2765  0.1715  0.6169
15649TIP3    H168438   2.594   3.756   1.747  0.0213 -0.5153  0.7106
15649TIP3    H268439   2.495   3.763   1.632  0.7045 -0.2947  0.1251
15650TIP3   OH268440   5.605   5.955  13.905  0.4371 -0.1439 -0.0627
15650TIP3    H168441   5.672   5.903  13.948 -0.7400 -0.4687  1.4787
15650TIP3    H268442   5.543   5.976  13.974 -2.0598 -1.4469 -1.7589
15651TIP3   OH268443   1.529   5.676  14.587 -0.4158 -0.1932 -0.1421
15651TIP3    H168444   1.508   5.583  14.581  0.4109 -0.3586 -0.5923
15651TIP3    H268445   1.471   5.710  14.656  0.8291 -1.4996  1.6389
15652TIP3   OH268446   3.390   3.758  11.984 -0.0646  0.0874  0.3083
15652TIP3    H168447   3.447   3.725  11.915  0.1849  1.9053 -0.4089
15652TIP3    H268448   3.385   3.686  12.048 -0.4447 -1.7300 -1.6460
15653TIP3   OH268449   6.648   1.355   4.570 -0.4977  0.1966 -0.8523
15653TIP3    H168450   6.674   1.402   4.491  2.0994 -0.4376 -0.4746
15653TIP3    H268451   6.619   1.269   4.539 -1.1664  0.5575 -1.2313
15654TIP3   OH268452   1.202   1.051   1.801 -0.2664  0.0252 -0.0115
15654TIP3    H168453   1.261   0.980   1.828 -1.3536 -0.8324  0.1885
15654TIP3    H268454   1.119   1.031   1.845 -1.0932  0.4734 -1.3260
15655TIP3   OH268455   3.940   1.242  16.528  0.2376  0.8270 -0.8343
15655TIP3    H168456   3.847   1.237  16.548  0.7489 -0.9006  1.6194
15655TIP3    H268457   3.971   1.151  16.535  1.8576  1.0805 -3.2728
15656TIP3   OH268458   1.635   5.504   2.947 -0.6286 -0.1305  0.7795
15656TIP3    H168459   1.635   5.414   2.915 -0.4184 -0.2364  1.0793
15656TIP3    H268460   1.725   5.520   2.976 -0.4092  0.5083 -0.1913
15657TIP3   OH268461   6.304   6.506  11.880 -0.8360 -0.0537  0.1008
15657TIP3    H168462   6.242   6.508  11.807  0.4038  1.1014 -0.9584
15657TIP3    H268463   6.305   6.596  11.913  0.0707 -0.1228  0.2884
15658TIP3   OH268464   4.002   5.120   1.492 -0.0459 -0.7831  0.9801
15658TIP3    H168465   3.912   5.090   1.481 -0.0995 -0.4068  0.3505
15658TIP3    H268466   3.998   5.181   1.566 -0.5400  0.1298  0.2328
15659TIP3   OH268467   0.661   2.261   2.169 -0.5452 -0.2682 -0.6457
15659TIP3    H168468   0.642   2.170   2.147  0.4290 -0.8074  0.5889
15659TIP3    H268469   0.752   2.273   2.143 -0.3367  0.0080  0.1834
15660TIP3   OH268470   3.451   4.949  16.965 -0.1347 -0.0011  0.3301
15660TIP3    H168471   3.518   4.913  16.907  0.7218  0.3916  1.0528
15660TIP3    H268472   3.375   4.962  16.908 -0.5970 -3.0808  0.0395
15661TIP3   OH268473   2.941   3.803   2.522 -0.0759 -0.2626  0.5793
15661TIP3    H168474   2.846   3.794   2.531  0.0074  0.3851  3.1861
15661TIP3    H268475   2.957   3.897   2.534  0.9613 -0.5720  1.8847
15662TIP3   OH268476   3.663   4.624  12.077 -0.3714  0.0398  0.3665
15662TIP3    H168477   3.592   4.560  12.075  0.2091 -0.6295  0.6984
15662TIP3    H268478   3.635   4.689  12.140 -1.1860  0.3802 -0.3315
15663TIP3   OH268479   5.044   2.984   6.398  0.4236 -0.0818 -0.7699
15663TIP3    H168480   5.093   3.040   6.339 -1.2906 -0.3026 -2.5194
15663TIP3    H268481   5.078   3.004   6.485  1.2971  2.1212 -1.5596
15664TIP3   OH268482   5.136   6.127   2.893  0.1778  0.4270 -0.0540
15664TIP3    H168483   5.164   6.147   2.804  0.0342 -0.0797 -0.2175
15664TIP3    H268484   5.202   6.167   2.949  0.8028 -0.0764 -0.4179
15665TIP3   OH268485   5.398   4.373  16.607 -0.4541 -0.1846  0.2083
15665TIP3    H168486   5.375   4.466  16.618 -1.4082 -0.3570 -0.1771
15665TIP3    H268487   5.480   4.374  16.559 -0.9569  0.4591 -0.6633
15666TIP3   OH268488   3.990   0.551  12.968 -0.6814 -0.4617 -0.6554
15666TIP3    H168489   3.975   0.554  12.874  0.9832 -0.8383 -0.9671
15666TIP3    H268490   4.076   0.509  12.978 -1.6756 -2.2756  1.1292
15667TIP3   OH268491   2.990   0.656   4.155  0.4755 -0.1162  0.2753
15667TIP3    H168492   3.050   0.683   4.084 -0.9278  0.4418 -0.7476
15667TIP3    H268493   2.923   0.725   4.157 -0.7157 -1.2482  0.6612
15668TIP3   OH268494   0.620   4.704  13.990 -0.2663 -0.5793  0.0280
15668TIP3    H168495   0.604   4.612  14.013 -3.1298 -0.2755 -0.4685
15668TIP3    H268496   0.623   4.749  14.074 -1.3798 -0.7908  0.1934
15669TIP3   OH268497   3.221   5.844  14.516  0.6546  0.1442  0.2036
15669TIP3    H168498   3.294   5.785  14.499 -0.1562 -1.0661  0.8200
15669TIP3    H268499   3.174   5.850  14.433  1.4869  1.0071 -0.2227
15670TIP3   OH268500   3.921   1.909   2.002  0.1199  0.1561  0.6839
15670TIP3    H168501   3.958   1.973   1.941 -0.8039  0.9167  0.8944
15670TIP3    H268502   3.906   1.959   2.083  3.0454 -1.2477  2.2298
15671TIP3   OH268503   5.369   5.495   5.559  0.1037 -0.2081 -0.0283
15671TIP3    H168504   5.320   5.467   5.481 -0.8493  0.6859  0.2256
15671TIP3    H268505   5.306   5.547   5.609  0.5449 -1.1915  1.6121
15672TIP3   OH268506   2.401   0.207   5.867  0.0988  0.6662 -0.6665
15672TIP3    H168507   2.418   0.239   5.956 -2.5290 -0.1278  0.2338
15672TIP3    H268508   2.401   0.112   5.875  0.6606  0.5628 -1.7227
15673TIP3   OH268509   5.254   0.794  15.057 -0.3271 -0.2359  0.6231
15673TIP3    H168510   5.315   0.761  15.123 -1.0156 -0.5936  1.0910
15673TIP3    H268511   5.168   0.767  15.088 -0.7488  0.4353  0.0742
15674TIP3   OH268512   4.035   5.555  15.842 -0.1959 -0.4669 -0.1011
15674TIP3    H168513   3.956   5.536  15.792 -0.1326 -1.1109  0.0344
15674TIP3    H268514   4.049   5.477  15.896 -0.7423  0.5242  1.5708
15675TIP3   OH268515   3.510   6.091  16.120 -0.3627  0.4957 -0.1229
15675TIP3    H168516   3.460   6.031  16.175  1.5324  0.4616  1.6940
15675TIP3    H268517   3.489   6.066  16.031 -2.0103 -0.7950  0.5791
15676TIP3   OH268518   2.437   3.820   4.829 -0.8912 -0.4804  0.1903
15676TIP3    H168519   2.471   3.909   4.820 -0.7055 -0.5375  0.3296
15676TIP3    H268520   2.379   3.824   4.905  0.1149 -0.7755  0.9965
15677TIP3   OH268521   4.650   4.000  13.859  0.1196 -0.0748 -0.5808
15677TIP3    H168522   4.614   4.043  13.781 -4.0644 -1.6109  0.2679
15677TIP3    H268523   4.696   3.924  13.825 -0.2132  0.1802 -1.6356
15678TIP3   OH268524   1.996   6.762  15.296  0.2865 -0.4242 -0.3336
15678TIP3    H168525   2.027   6.790  15.210  0.9079 -0.7514 -0.2200
15678TIP3    H268526   1.963   6.673  15.281  1.8235 -1.0849  0.0679
15679TIP3   OH268527   0.040   6.656   3.401  0.5721  0.4635 -0.1560
15679TIP3    H168528  -0.026   6.715   3.438  0.8866  0.3578  0.5917
15679TIP3    H268529   0.115   6.664   3.460  1.0197  0.1485 -0.6753
15680TIP3   OH268530   4.062   2.954   2.677 -0.2564 -0.4840 -0.4428
15680TIP3    H168531   4.015   2.889   2.626 -1.4295 -0.8948  1.0773
15680TIP3    H268532   3.994   3.010   2.714  0.2364 -1.6945  2.6581
15681TIP3   OH268533   0.666   2.502   0.078 -0.0488 -0.7029  0.3839
15681TIP3    H168534   0.693   2.593   0.089 -1.3356 -0.3514  0.8336
15681TIP3    H268535   0.740   2.459   0.034 -0.7120  1.3670 -3.1910
15682TIP3   OH268536   4.861   3.308  11.853 -0.0287  0.4261  0.7378
15682TIP3    H168537   4.835   3.400  11.860  0.3518  0.6765 -0.7615
15682TIP3    H268538   4.790   3.267  11.803 -0.2914 -0.1473  1.5664
15683TIP3   OH268539   6.814   4.904   5.231 -0.7417  0.2566 -0.2410
15683TIP3    H168540   6.869   4.848   5.175  2.2400  1.5650  1.1366
15683TIP3    H268541   6.833   4.874   5.320 -0.2504  2.3646  0.4231
15684TIP3   OH268542   0.935   3.874  11.351 -0.4566  0.5926  0.1890
15684TIP3    H168543   0.862   3.846  11.406 -0.7921  1.4287  0.1878
15684TIP3    H268544   0.911   3.962  11.323 -0.0955  0.3406 -0.9619
15685TIP3   OH268545   5.004   1.569  11.004  0.1089  0.2908 -0.0536
15685TIP3    H168546   5.058   1.495  11.032 -2.0201 -1.9898 -1.5133
15685TIP3    H268547   4.926   1.565  11.060 -0.3167  1.0351 -0.5687
15686TIP3   OH268548   3.316   0.631   4.373  0.1467 -0.0927 -0.2529
15686TIP3    H168549   3.267   0.571   4.317 -0.6093  0.8868 -0.6734
15686TIP3    H268550   3.408   0.616   4.350 -0.1066 -0.2850 -1.1853
15687TIP3   OH268551   3.060   5.015   2.080 -0.4208 -0.2615 -0.3006
15687TIP3    H168552   3.152   5.035   2.067 -0.4142 -0.4259 -0.5173
15687TIP3    H268553   3.017   5.100   2.084 -0.5141 -0.1843 -2.1075
15688TIP3   OH268554   5.092   0.264  13.695  0.3920  0.2887  0.0093
15688TIP3    H168555   5.169   0.225  13.738  0.2067  0.7763  0.7988
15688TIP3    H268556   5.128   0.336  13.643  0.8267 -1.2623 -1.9928
15689TIP3   OH268557   2.395   4.542  10.374 -0.3284  0.5887  0.0100
15689TIP3    H168558   2.354   4.465  10.414 -1.1477  1.3590  0.7027
15689TIP3    H268559   2.340   4.563  10.299  0.1062  0.2946 -0.3994
15690TIP3   OH268560   0.722   4.722   2.785 -0.0889  0.3556  0.0662
15690TIP3    H168561   0.770   4.665   2.726  1.1540  2.4882 -1.1052
15690TIP3    H268562   0.630   4.712   2.760 -0.0004 -1.6774  0.4506
15691TIP3   OH268563   2.400   3.940   3.950 -0.3660 -0.5823 -0.5083
15691TIP3    H168564   2.480   3.897   3.918  1.0476  0.4430  1.4200
15691TIP3    H268565   2.414   4.032   3.930 -0.7365 -0.3091  0.4495
15692TIP3   OH268566   3.432   2.421  16.468 -0.0278 -0.2277 -0.3024
15692TIP3    H168567   3.506   2.440  16.526 -0.2898 -0.5740  0.1585
15692TIP3    H268568   3.378   2.500  16.471 -0.2288 -0.3786  0.2268
15693TIP3   OH268569   6.032   1.023  15.220 -0.0428  0.2630 -0.3540
15693TIP3    H168570   6.019   0.984  15.306 -1.1560  0.7656 -0.2743
15693TIP3    H268571   6.069   0.953  15.167 -1.0154 -0.5961  0.0670
15694TIP3   OH268572   6.782   4.556  14.098 -0.0912  0.0028 -1.2723
15694TIP3    H168573   6.859   4.602  14.064  0.8064 -0.1962  0.3581
15694TIP3    H268574   6.812   4.466  14.111 -0.1664  0.1893  0.5327
15695TIP3   OH268575   3.670   6.024  11.289  0.6316  0.2372  0.0222
15695TIP3    H168576   3.730   6.076  11.237 -1.3725  1.6481 -1.0256
15695TIP3    H268577   3.721   5.948  11.317  3.1194  1.8066  0.0206
15696TIP3   OH268578   0.947   1.497  14.609 -0.4031 -0.4489  0.6131
15696TIP3    H168579   0.897   1.475  14.530  0.7530 -1.1019  0.0389
15696TIP3    H268580   0.918   1.585  14.632 -2.4819 -1.1286  0.8364
15697TIP3   OH268581   3.999   1.995   5.507  0.1772 -0.1581 -0.0610
15697TIP3    H168582   4.001   2.009   5.602  0.3402  0.1217 -0.1047
15697TIP3    H268583   4.079   2.036   5.475  0.4676 -0.8573 -0.2443
15698TIP3   OH268584   5.129   4.685   3.227 -0.5096  0.2061  0.1603
15698TIP3    H168585   5.149   4.771   3.190 -0.9903  0.2350 -0.0466
15698TIP3    H268586   5.199   4.668   3.290 -0.0161  0.4289 -0.3232
15699TIP3   OH268587   1.860   2.264   5.031  0.1715 -0.8103  0.0819
15699TIP3    H168588   1.932   2.248   5.092  0.2587 -0.1155  0.1706
15699TIP3    H268589   1.903   2.292   4.950  0.0029  2.2160  0.9004
15700TIP3   OH268590   4.913   0.607  15.482  0.3681  0.4749  0.0248
15700TIP3    H168591   4.842   0.575  15.537  1.6620 -1.5932  0.6150
15700TIP3    H268592   4.910   0.551  15.404  1.6440 -0.0443  0.3146
15701TIP3   OH268593   2.268   3.384  10.777 -0.0681  1.0012 -0.2868
15701TIP3    H168594   2.251   3.473  10.810 -1.3768  0.9054 -0.6434
15701TIP3    H268595   2.227   3.382  10.690 -1.2781 -0.3414  0.2617
15702TIP3   OH268596   4.796   0.732   0.584  0.6741  0.0072  0.2063
15702TIP3    H168597   4.775   0.825   0.571  0.7742 -0.0192 -0.1469
15702TIP3    H268598   4.713   0.687   0.572  0.9088 -0.0898 -1.1118
15703TIP3   OH268599   2.375   2.722  13.900 -0.0111 -0.8362  0.2447
15703TIP3    H168600   2.416   2.699  13.817  1.5455  2.6940 -0.1546
15703TIP3    H268601   2.439   2.696  13.967  1.7979  2.0374 -0.2021
15704TIP3   OH268602   3.008   0.079  12.505  0.5548 -0.2179 -0.0823
15704TIP3    H168603   2.934   0.050  12.452  1.8225 -2.7174 -0.6116
15704TIP3    H268604   2.970   0.098  12.591 -0.7594 -0.9512 -0.4811
15705TIP3   OH268605   0.477   2.144  11.452 -0.2688 -0.3610  0.1844
15705TIP3    H168606   0.522   2.226  11.472 -0.8530 -0.1365  0.6122
15705TIP3    H268607   0.539   2.095  11.399 -0.3992  0.8963 -1.1972
15706TIP3   OH268608   6.791   5.220  13.198 -0.0780  0.6423 -0.1727
15706TIP3    H168609   6.695   5.220  13.205 -0.0546  0.9170  0.1896
15706TIP3    H268610   6.819   5.150  13.257 -0.0933 -0.0481 -0.9609
15707TIP3   OH268611   6.000   4.309  11.826 -0.3234  0.1405 -0.0025
15707TIP3    H168612   5.990   4.240  11.760  1.5081 -1.3199  1.1508
15707TIP3    H268613   5.967   4.387  11.783 -1.3196 -1.1993 -1.8230
15708TIP3   OH268614   6.817   6.755   2.534  0.7220  0.2843  0.4319
15708TIP3    H168615   6.809   6.788   2.445  0.7457  1.1909  0.7482
15708TIP3    H268616   6.902   6.710   2.535  1.3701  1.4351  0.3258
15709TIP3   OH268617   5.311   6.186  16.590 -0.0831  0.3710  0.5848
15709TIP3    H168618   5.374   6.126  16.630  2.4521 -0.0615 -3.4552
15709TIP3    H268619   5.335   6.272  16.622  0.2551 -0.1375  1.7461
15710TIP3   OH268620   0.134   3.183  12.307  0.0774 -0.7781  0.2049
15710TIP3    H168621   0.086   3.100  12.301  0.1085 -0.8148  0.4575
15710TIP3    H268622   0.223   3.157  12.329 -0.0052 -0.6547  0.6961
15711TIP3   OH268623   3.357   5.697  14.293  0.1027  0.4981  0.4473
15711TIP3    H168624   3.379   5.733  14.207 -1.8533  0.1678 -0.2270
15711TIP3    H268625   3.440   5.699  14.341  1.1709  0.9914 -1.3177
15712TIP3   OH268626   3.049   3.804   1.001  0.1509  0.1752  0.6120
15712TIP3    H168627   3.093   3.792   1.085  3.1904  1.1745 -0.6536
15712TIP3    H268628   3.106   3.864   0.953  0.1476 -2.4399 -3.1778
15713TIP3   OH268629   6.051   1.199  16.457  0.6152  0.4468  0.2078
15713TIP3    H168630   6.055   1.111  16.418 -0.1661  0.4538  0.1018
15713TIP3    H268631   6.135   1.239  16.433  0.8992 -0.2016  0.0911
15714TIP3   OH268632   2.278   2.279   0.539  0.6574 -0.0503  0.0923
15714TIP3    H168633   2.303   2.189   0.560  1.1320  0.1599  0.4328
15714TIP3    H268634   2.257   2.319   0.624  0.7201  0.2412 -0.0283
15715TIP3   OH268635   3.284   6.512  14.455  0.0284  0.4184  0.2944
15715TIP3    H168636   3.232   6.474  14.385  1.2416  0.6315 -0.7568
15715TIP3    H268637   3.350   6.566  14.411 -0.3747  2.1453  1.6651
15716TIP3   OH268638   0.986   0.201   0.770  0.3480  0.0905  0.8759
15716TIP3    H168639   1.032   0.125   0.733 -0.1291 -0.1404  0.7445
15716TIP3    H268640   1.055   0.253   0.812  0.7082 -0.3149  0.7959
15717TIP3   OH268641   1.146   0.567   4.868  0.1363  0.3571 -0.0775
15717TIP3    H168642   1.093   0.563   4.947  0.9310  0.3093  0.4699
15717TIP3    H268643   1.199   0.646   4.878  1.3930 -0.4761  0.2133
15718TIP3   OH268644   4.634   2.373  12.299 -0.2025  0.0806 -0.1419
15718TIP3    H168645   4.630   2.305  12.366  1.0277 -0.9068 -1.0348
15718TIP3    H268646   4.549   2.371  12.257 -0.0114 -1.2826 -0.5007
15719TIP3   OH268647   6.261   1.657   0.649  0.1023  0.0211  0.1531
15719TIP3    H168648   6.223   1.646   0.562  1.7209  2.1713 -0.9208
15719TIP3    H268649   6.353   1.632   0.639  0.1832 -0.2765  1.4167
15720TIP3   OH268650   1.181   0.095   6.330 -0.2858  0.7018  0.2072
15720TIP3    H168651   1.237   0.172   6.341  1.8062 -0.6123 -0.6411
15720TIP3    H268652   1.242   0.022   6.318 -2.1848 -0.7128 -1.6687
15721TIP3   OH268653   1.070   3.021  16.974 -0.6406 -0.3075 -0.2923
15721TIP3    H168654   0.997   3.051  17.029 -1.5022 -0.3480 -1.3853
15721TIP3    H268655   1.147   3.034  17.029 -1.4843 -0.5096  0.9930
15722TIP3   OH268656   4.660   6.141  12.669 -0.3560  0.1384 -0.8247
15722TIP3    H168657   4.729   6.205  12.655  1.3488 -1.3561  0.3058
15722TIP3    H268658   4.616   6.170  12.749  1.2164 -0.7036  0.3987
15723TIP3   OH268659   2.053   6.631   1.132 -0.3659  0.0659 -0.1033
15723TIP3    H168660   2.119   6.692   1.164  0.3138 -0.8983  0.3559
15723TIP3    H268661   1.988   6.627   1.202 -0.7952  0.8150 -0.4461
15724TIP3   OH268662   4.072   6.746   2.855 -0.2298 -0.2965 -0.1824
15724TIP3    H168663   4.007   6.696   2.805 -0.7321  1.4127 -1.3373
15724TIP3    H268664   4.069   6.833   2.817  0.7918  0.5667  1.5870
15725TIP3   OH268665   0.496   0.735   4.922  0.0633 -0.1052 -0.1454
15725TIP3    H168666   0.402   0.729   4.904  0.0756 -1.5510  0.1167
15725TIP3    H268667   0.538   0.686   4.851  0.5371 -0.3760  0.3113
15726TIP3   OH268668   1.033   3.925   2.400 -0.6965 -0.1030 -0.4271
15726TIP3    H168669   1.007   4.012   2.369  0.6456  0.8972  1.0772
15726TIP3    H268670   0.953   3.873   2.400 -1.3281  0.7948 -2.3816
15727TIP3   OH268671   4.685   3.750  11.668 -0.3193 -0.1895 -0.0571
15727TIP3    H168672   4.645   3.835  11.687  0.4290 -0.2578  2.1964
15727TIP3    H268673   4.621   3.705  11.613 -1.2562  1.3811 -0.3104
15728TIP3   OH268674   5.126   5.495   1.947  0.7675  0.1092 -0.0760
15728TIP3    H168675   5.199   5.543   1.985 -0.7691  0.4384  2.7127
15728TIP3    H268676   5.108   5.542   1.865  2.0426  1.6084  0.4432
15729TIP3   OH268677   2.633   4.522  15.130 -0.3055  0.8778  0.9063
15729TIP3    H168678   2.721   4.516  15.093 -1.1527  0.1363 -1.0913
15729TIP3    H268679   2.588   4.444  15.098 -1.9077  1.6030  1.3004
15730TIP3   OH268680   3.469   5.297  13.369 -0.7956  0.1189  0.1266
15730TIP3    H168681   3.415   5.355  13.315 -0.3844  0.4522  0.0730
15730TIP3    H268682   3.541   5.352  13.400  0.1381 -0.5699 -0.7205
15731TIP3   OH268683   3.777   1.506  13.053 -0.5047 -0.2394  0.2402
15731TIP3    H168684   3.736   1.592  13.054  1.7916  0.9183  0.0653
15731TIP3    H268685   3.778   1.481  12.961 -0.1645  0.0421  0.1698
15732TIP3   OH268686   0.528   5.766  14.368 -0.3429  0.1088  0.3647
15732TIP3    H168687   0.451   5.776  14.313 -0.9450 -1.0750  0.9624
15732TIP3    H268688   0.526   5.841  14.428  0.4666  1.5628 -1.3403
15733TIP3   OH268689   6.137   2.163   1.138  0.4079 -0.4145 -0.1630
15733TIP3    H168690   6.089   2.195   1.061  0.9248 -0.7855 -0.6454
15733TIP3    H268691   6.173   2.242   1.178 -1.5647  0.0221  0.8954
15734TIP3   OH268692   5.432   2.376   0.745  0.4883  0.2291 -0.0049
15734TIP3    H168693   5.468   2.344   0.662  2.7162  0.2526  0.8945
15734TIP3    H268694   5.416   2.469   0.730 -2.2428 -0.3629 -1.3747
15735TIP3   OH268695   5.273   6.118  12.108 -0.0771 -0.4643 -0.6517
15735TIP3    H168696   5.353   6.106  12.057  0.3582 -0.0098 -0.0958
15735TIP3    H268697   5.297   6.089  12.196 -0.0324  1.1321 -0.0987
15736TIP3   OH268698   5.601   1.233   3.239 -0.0918 -0.3690  0.2431
15736TIP3    H168699   5.516   1.277   3.243  0.3684  0.5020  0.6941
15736TIP3    H268700   5.582   1.143   3.265 -1.1888 -0.6896 -1.4702
15737TIP3   OH268701   4.120   4.153  16.199  0.1246 -0.2826  0.0055
15737TIP3    H168702   4.211   4.142  16.170 -0.9931 -3.2109 -3.0877
15737TIP3    H268703   4.096   4.067  16.233 -1.3238  0.6527  1.4524
15738TIP3   OH268704   4.858   1.330  10.241  0.1220  0.3977  0.5104
15738TIP3    H168705   4.935   1.386  10.243  0.6903 -0.3364  0.0407
15738TIP3    H268706   4.893   1.241  10.232 -0.7831  0.2222 -2.3242
15739TIP3   OH268707   2.796   6.323  11.288 -0.1222 -0.2664 -0.0601
15739TIP3    H168708   2.822   6.266  11.216  1.3020  1.2945 -0.8447
15739TIP3    H268709   2.854   6.299  11.360  0.5887  0.2565 -0.4408
15740TIP3   OH268710   3.820   4.235  11.473 -0.0432 -0.1298  0.3408
15740TIP3    H168711   3.765   4.182  11.532  0.2415 -1.8081 -0.8095
15740TIP3    H268712   3.896   4.179  11.455  0.4198  0.7990 -0.7028
15741TIP3   OH268713   1.422   4.369  11.171  0.1105  0.2502  0.0700
15741TIP3    H168714   1.458   4.308  11.106  0.6741 -0.6623  1.1869
15741TIP3    H268715   1.487   4.439  11.177  0.5304 -0.1541  0.3261
15742TIP3   OH268716   0.554   4.680   3.059  0.4743 -0.4959 -0.2117
15742TIP3    H168717   0.547   4.591   3.093 -3.0693 -0.7105 -1.0702
15742TIP3    H268718   0.611   4.672   2.982  2.7187 -1.3314  1.4400
15743TIP3   OH268719   2.984   1.361  14.033  0.3777  0.2082 -0.6924
15743TIP3    H168720   2.942   1.394  14.113  0.7412 -0.8047 -0.0663
15743TIP3    H268721   3.076   1.351  14.056  0.4303 -0.3897 -1.1356
15744TIP3   OH268722   5.980   1.129  14.299 -0.3945  0.0928 -0.0473
15744TIP3    H168723   5.941   1.173  14.375 -1.0577  0.3667 -0.5406
15744TIP3    H268724   5.958   1.037  14.312  0.8806 -0.1105  0.9157
15745TIP3   OH268725   3.731   1.102   1.038 -0.1525 -0.2800 -0.1159
15745TIP3    H168726   3.732   1.070   1.129 -1.1635  2.1164  0.8293
15745TIP3    H268727   3.812   1.153   1.030  0.1754 -0.8868 -0.7398
15746TIP3   OH268728   0.997   2.266  13.261 -0.0715  0.1990  0.2028
15746TIP3    H168729   0.974   2.271  13.168  0.1543  1.7024  0.1924
15746TIP3    H268730   1.020   2.356  13.284 -0.2790 -0.1192  1.7597
15747TIP3   OH268731   5.524   0.467  13.578  0.1462  0.3860  1.0633
15747TIP3    H168732   5.541   0.402  13.646 -0.3597 -1.2248 -0.2670
15747TIP3    H268733   5.584   0.444  13.507 -0.9240  0.5506  0.0701
15748TIP3   OH268734   3.846   3.075  10.798 -0.0212  0.3875 -0.0862
15748TIP3    H168735   3.786   3.147  10.781 -1.0018 -0.5949 -0.9038
15748TIP3    H268736   3.809   3.000  10.750  1.1544 -0.5712  0.4426
15749TIP3   OH268737   5.654   1.990   2.574 -0.0551 -0.2969  0.2986
15749TIP3    H168738   5.641   1.977   2.668  1.2493  0.6678  0.6372
15749TIP3    H268739   5.741   1.954   2.556 -0.5085 -0.9806 -0.6709
15750TIP3   OH268740   6.574   4.658  11.463 -0.2010 -0.3850  0.3152
15750TIP3    H168741   6.544   4.748  11.469 -1.3589 -0.8327  2.0525
15750TIP3    H268742   6.541   4.626  11.379  2.0828  1.3811 -1.3787
15751TIP3   OH268743   1.487   3.573  10.989 -0.0693 -0.1977  0.1494
15751TIP3    H168744   1.535   3.538  11.064 -0.9907 -0.9420  0.4158
15751TIP3    H268745   1.528   3.531  10.913  1.0315  0.7495  0.2008
15752TIP3   OH268746   2.955   2.976  15.331  0.2795 -0.1481  0.0590
15752TIP3    H168747   2.868   2.945  15.307  0.7132 -0.4037 -1.2696
15752TIP3    H268748   2.963   3.062  15.288  1.4066 -1.0072 -1.5787
15753TIP3   OH268749   1.234   3.123   2.765 -0.2873  0.8755 -0.3494
15753TIP3    H168750   1.248   3.158   2.853  1.3969 -1.1647  0.2796
15753TIP3    H268751   1.322   3.116   2.729 -0.6969 -1.1356 -1.0344
15754TIP3   OH268752   4.799   4.035   1.039  0.2291  0.1781  0.2548
15754TIP3    H168753   4.749   3.988   0.972  0.2018 -0.2358  0.5690
15754TIP3    H268754   4.859   3.971   1.074 -1.5581 -0.3817  2.5134
15755TIP3   OH268755   3.592   0.331  13.531  0.1451 -0.0537 -0.3245
15755TIP3    H168756   3.581   0.420  13.563  0.3612 -0.6050  1.3640
15755TIP3    H268757   3.523   0.280  13.574  2.9646 -1.6437  2.8306
15756TIP3   OH268758   0.532   2.947  14.120  0.0749  0.6309 -0.3221
15756TIP3    H168759   0.493   2.972  14.204  0.8606  0.1713  0.2002
15756TIP3    H268760   0.554   2.854  14.130 -0.9488  0.2429 -1.4941
15757TIP3   OH268761   3.351   2.297   6.340 -0.0503 -0.3349 -0.2848
15757TIP3    H168762   3.296   2.364   6.300  1.7212  0.5965 -1.3076
15757TIP3    H268763   3.307   2.276   6.422 -0.2492  2.7542  0.5215
15758TIP3   OH268764   0.489   2.342  13.274 -0.0584 -0.0062  0.3560
15758TIP3    H168765   0.496   2.438  13.276 -0.2909  0.0163  0.1073
15758TIP3    H268766   0.460   2.322  13.185 -1.7865 -0.1779  0.9206
15759TIP3   OH268767   3.649   4.237   0.939  0.0485  0.1391 -0.5804
15759TIP3    H168768   3.714   4.172   0.913  0.5080 -0.0264  0.8757
15759TIP3    H268769   3.689   4.321   0.916  1.0441  0.0668  0.7755
15760TIP3   OH268770   4.720   4.682  15.204  0.1904 -0.3395 -0.4114
15760TIP3    H168771   4.814   4.666  15.201  0.2399 -0.7433  1.5277
15760TIP3    H268772   4.681   4.600  15.176  0.4001 -0.1422 -1.3103
15761TIP3   OH268773   5.832   5.981  11.193 -0.7993  0.1951 -0.6657
15761TIP3    H168774   5.859   5.928  11.268 -0.5448  2.1338  0.6798
15761TIP3    H268775   5.883   5.946  11.120  1.2229  0.1610  0.6817
15762TIP3   OH268776   0.384   1.582   4.091  0.1880  0.1122  0.2135
15762TIP3    H168777   0.339   1.510   4.135  0.1463  0.3174  0.5094
15762TIP3    H268778   0.460   1.541   4.049 -1.2916 -0.6052 -1.9428
15763TIP3   OH268779   0.930   6.431   5.739  0.2791 -0.1488 -0.2287
15763TIP3    H168780   0.873   6.357   5.760 -0.7882  1.0675  1.4471
15763TIP3    H268781   0.893   6.504   5.789  3.1031  0.7905  0.6333
15764TIP3   OH268782   0.644   5.007  13.153  0.3706  0.0176 -0.1076
15764TIP3    H168783   0.564   4.986  13.104  1.4431  1.9995 -2.9639
15764TIP3    H268784   0.693   4.924  13.153 -0.2123 -0.3595 -1.3575
15765TIP3   OH268785   4.484   0.123   3.958 -0.3186 -0.0269 -0.3868
15765TIP3    H168786   4.485   0.081   3.872 -0.3559  0.3059 -0.5529
15765TIP3    H268787   4.403   0.092   3.999  0.5604 -1.5860  0.2450
15766TIP3   OH268788   6.267   5.753  16.246  0.0926 -0.1652 -0.9653
15766TIP3    H168789   6.320   5.803  16.308  1.2744  0.7913 -2.6276
15766TIP3    H268790   6.269   5.806  16.166 -2.1921 -0.8510 -1.5481
15767TIP3   OH268791   0.943   4.628  16.364  0.3654 -0.9751  0.1559
15767TIP3    H168792   0.996   4.703  16.338 -2.2133  1.0141  0.2883
15767TIP3    H268793   0.968   4.612  16.455  0.4061  0.2820  0.3897
15768TIP3   OH268794   0.386   4.459  13.597 -0.0984  0.4383  0.0692
15768TIP3    H168795   0.311   4.454  13.656  0.9712  0.5975  1.4833
15768TIP3    H268796   0.444   4.389  13.626 -0.3037 -0.6445 -1.9400
15769TIP3   OH268797   6.434   1.214   1.074 -0.1419  0.2884  0.5309
15769TIP3    H168798   6.528   1.210   1.055 -0.1406 -1.0947  0.7293
15769TIP3    H268799   6.401   1.283   1.016  0.8184  0.0730 -0.3021
15770TIP3   OH268800   6.343   1.460  15.337 -0.3880  0.0581 -0.5304
15770TIP3    H168801   6.364   1.465  15.430 -2.0609 -0.7042 -0.0683
15770TIP3    H268802   6.400   1.391  15.303  0.0128  0.1215  0.0045
15771TIP3   OH268803   4.431   1.757  16.931 -0.3894 -0.0468 -0.1264
15771TIP3    H168804   4.383   1.744  17.013 -2.6634  0.5609 -1.2774
15771TIP3    H268805   4.384   1.704  16.867  0.4950  0.5498 -1.3149
15772TIP3   OH268806   2.981   4.821   5.912  0.1483  0.6247  0.1453
15772TIP3    H168807   2.989   4.756   5.982 -0.7434 -0.0219 -0.3375
15772TIP3    H268808   2.895   4.861   5.926  1.1732  2.6441  1.2005
15773TIP3   OH268809   2.530   2.694  12.751  0.0018  0.0624 -0.0941
15773TIP3    H168810   2.523   2.612  12.801  2.0496 -0.1786 -0.1246
15773TIP3    H268811   2.547   2.761  12.817  3.6087 -0.3820 -0.3383
15774TIP3   OH268812   6.156   0.636   2.637 -0.2659  0.0403  0.0169
15774TIP3    H168813   6.238   0.634   2.587 -0.4329 -0.4543 -0.2394
15774TIP3    H268814   6.088   0.655   2.572 -0.2122  1.8880  0.4381
15775TIP3   OH268815   6.346   0.834  11.947  0.0603  0.1221  0.1712
15775TIP3    H168816   6.282   0.891  11.990  0.4631 -0.2195  1.2509
15775TIP3    H268817   6.431   0.875  11.966  0.2030  0.3994 -0.9853
15776TIP3   OH268818   6.174   4.190  14.016  0.0971  0.0642  0.2643
15776TIP3    H168819   6.269   4.199  14.007  0.3343 -0.3228  1.9760
15776TIP3    H268820   6.138   4.267  13.972  1.1987  0.2569 -0.3325
15777TIP3   OH268821   6.234   4.974   5.930 -0.1816 -0.4115  0.6277
15777TIP3    H168822   6.147   4.961   5.892 -0.5906  4.0643 -0.5179
15777TIP3    H268823   6.218   5.013   6.015  0.6687  0.4929  0.3964
15778TIP3   OH268824   1.958   5.483  13.629 -0.1324  0.6699 -0.6762
15778TIP3    H168825   1.903   5.406  13.643  2.2923 -1.2316 -0.7911
15778TIP3    H268826   2.046   5.455  13.655  1.0211  3.1471 -1.5312
15779TIP3   OH268827   0.770   4.425  11.263 -0.5753 -0.4007 -0.2414
15779TIP3    H168828   0.809   4.491  11.205 -1.4970  1.1061  0.7900
15779TIP3    H268829   0.753   4.471  11.345 -0.6250 -2.1162  0.7688
15780TIP3   OH268830   5.754   5.738   5.409  0.6669 -0.5476 -0.5184
15780TIP3    H168831   5.681   5.681   5.435  0.9071  0.1857  1.9652
15780TIP3    H268832   5.784   5.701   5.326 -0.6503 -2.6584 -0.1381
15781TIP3   OH268833   4.870   3.133   5.464  0.1867  0.0568 -0.3370
15781TIP3    H168834   4.856   3.095   5.551  0.7710  0.0195 -0.2558
15781TIP3    H268835   4.946   3.086   5.429  0.5002  0.6823 -0.5075
15782TIP3   OH268836   4.008   0.670   1.366  0.0757 -0.0891  0.1932
15782TIP3    H168837   3.989   0.577   1.356  0.6601 -0.1079 -1.0296
15782TIP3    H268838   3.929   0.707   1.403  0.3330 -1.2841  2.0553
15783TIP3   OH268839   6.601   1.105  11.699 -0.0018  0.5141 -0.0086
15783TIP3    H168840   6.568   1.194  11.686  0.9829  0.8018 -0.6728
15783TIP3    H268841   6.668   1.114  11.767  1.0734  0.5408 -1.0419
15784TIP3   OH268842   6.229   4.414  16.089  0.0524 -0.3143  0.6371
15784TIP3    H168843   6.219   4.374  16.175 -1.9776 -1.1018  0.0927
15784TIP3    H268844   6.141   4.445  16.067  0.5696  0.0292 -1.0835
15785TIP3   OH268845   6.088   6.449  16.748  0.2547 -0.1059  0.3407
15785TIP3    H168846   6.120   6.496  16.825  0.6888  1.4766 -0.7693
15785TIP3    H268847   6.084   6.515  16.679  1.5052 -1.8073 -1.4749
15786TIP3   OH268848   5.382   6.067   3.701  0.3076  0.2630  0.2429
15786TIP3    H168849   5.317   6.125   3.661  2.0208  1.9581 -0.2077
15786TIP3    H268850   5.447   6.053   3.633  0.8151 -0.8339  0.9151
15787TIP3   OH268851   6.476   6.078  14.095 -0.8545  0.1722  0.4780
15787TIP3    H168852   6.474   6.109  14.185 -1.2082  3.9787 -0.6560
15787TIP3    H268853   6.385   6.085  14.065 -0.4721  0.6400 -0.6286
15788TIP3   OH268854   2.630   0.535  15.136 -0.0402  0.2312 -0.5937
15788TIP3    H168855   2.646   0.589  15.214 -0.7473 -0.8456  0.3211
15788TIP3    H268856   2.627   0.446  15.169 -0.8919 -0.2015 -1.7885
15789TIP3   OH268857   6.284   4.034   1.713  0.1640 -0.4098  0.0381
15789TIP3    H168858   6.210   4.095   1.724 -0.7801 -1.3690 -0.7409
15789TIP3    H268859   6.248   3.949   1.738  1.0520 -0.8834 -0.2658
15790TIP3   OH268860   4.890   0.811   3.507 -0.3598  0.3909 -0.0954
15790TIP3    H168861   4.945   0.772   3.575  0.3610  1.6096  0.0552
15790TIP3    H268862   4.950   0.869   3.459 -0.8582 -0.3962 -1.7351
15791TIP3   OH268863   5.921   0.128   0.022 -0.0174  1.1861 -0.7386
15791TIP3    H168864   5.841   0.111  -0.029 -0.5214  0.6991  0.1947
15791TIP3    H268865   5.897   0.201   0.079 -0.1032  0.4332  0.2050
15792TIP3   OH268866   1.816   4.460   4.979  0.1044 -0.0484  0.4582
15792TIP3    H168867   1.743   4.409   5.014  0.6841 -1.5149 -0.3716
15792TIP3    H268868   1.876   4.394   4.944 -0.2431  1.2070 -2.8971
15793TIP3   OH268869   1.050   6.023   5.654 -0.3221 -0.0861  0.2740
15793TIP3    H168870   1.134   6.017   5.699 -0.3265 -1.0039  0.1712
15793TIP3    H268871   1.005   5.942   5.676 -0.9223  0.1140 -0.1936
15794TIP3   OH268872   6.599   4.956   1.525 -0.2757 -0.4179 -0.4883
15794TIP3    H168873   6.549   4.893   1.577 -0.6860 -0.9554 -1.5207
15794TIP3    H268874   6.582   4.931   1.434 -0.7741  1.4440 -0.9316
15795TIP3   OH268875   4.070   6.447   0.335 -0.1399  0.0803  0.0902
15795TIP3    H168876   3.982   6.457   0.371 -0.6631 -1.5994 -0.6220
15795TIP3    H268877   4.063   6.373   0.274  1.8780 -0.3989  0.3678
15796TIP3   OH268878   0.143   4.079   3.658 -0.1460 -0.4875 -0.3643
15796TIP3    H168879   0.238   4.092   3.655 -0.3663  1.5511 -0.1458
15796TIP3    H268880   0.132   3.988   3.686  1.7251 -0.9661 -1.0205
15797TIP3   OH268881   3.757   4.415   2.484  0.0320 -0.3492 -0.5537
15797TIP3    H168882   3.772   4.486   2.547 -0.2353 -1.3045  0.6395
15797TIP3    H268883   3.669   4.431   2.450  0.3364  0.4068 -1.0122
15798TIP3   OH268884   3.000   4.210   0.579  0.4768  0.2273 -0.3596
15798TIP3    H168885   3.045   4.129   0.603  1.5013  0.1237 -2.4070
15798TIP3    H268886   3.024   4.225   0.488 -0.1544  2.5506 -0.2147
15799TIP3   OH268887   1.371   2.739   2.841 -0.1817 -0.2282  0.1842
15799TIP3    H168888   1.448   2.737   2.783  0.7574 -0.5733  1.3884
15799TIP3    H268889   1.378   2.823   2.887  0.9153 -1.2694  2.0813
15800TIP3   OH268890   4.659   0.379  16.481 -0.4020  0.1436  0.1450
15800TIP3    H168891   4.580   0.345  16.438 -1.0098  1.2551  0.3402
15800TIP3    H268892   4.731   0.338  16.434 -1.0891 -1.1686  0.1878
15801TIP3   OH268893   0.334   1.006   5.060  0.0311  0.0928  0.1434
15801TIP3    H168894   0.361   0.985   5.149 -1.3062 -1.3563  0.2557
15801TIP3    H268895   0.332   1.102   5.057  0.5651  0.1619  1.5150
15802TIP3   OH268896   3.921   6.422  13.343 -0.0622  0.5093  0.7077
15802TIP3    H168897   3.846   6.433  13.401  1.4073 -1.0571  3.1016
15802TIP3    H268898   3.975   6.499  13.358 -0.0281  0.4503  0.8908
15803TIP3   OH268899   6.521   1.408   4.870 -0.0260 -0.5630 -0.1747
15803TIP3    H168900   6.602   1.447   4.837 -0.6998  0.5474 -0.5358
15803TIP3    H268901   6.452   1.447   4.817 -1.0422  0.4568  1.8055
15804TIP3   OH268902   0.808   4.991   4.664 -0.0128  0.2910  0.0477
15804TIP3    H168903   0.788   4.986   4.570  0.3678 -0.0722 -0.0142
15804TIP3    H268904   0.776   5.078   4.690 -2.0808 -0.4098  0.0490
15805TIP3   OH268905   6.756   4.223  12.716 -0.3449  0.7919 -0.0898
15805TIP3    H168906   6.834   4.243  12.664 -0.4727  1.7332  0.0582
15805TIP3    H268907   6.763   4.280  12.792 -1.4476  1.2938 -0.3401
15806TIP3   OH268908   6.032   0.575  16.427  0.0081 -0.7694  0.1929
15806TIP3    H168909   6.065   0.658  16.459  2.9914 -0.9097 -2.1009
15806TIP3    H268910   5.938   0.590  16.413  0.0528  1.4819  1.7711
15807TIP3   OH268911   1.285   4.000  15.219 -0.3168 -0.2400 -0.0188
15807TIP3    H168912   1.219   4.040  15.162 -0.9733 -0.2618  0.7154
15807TIP3    H268913   1.363   4.054  15.206 -0.6088  0.0675 -0.5446
15808TIP3   OH268914   6.602   6.678  12.433 -0.6174 -0.5011 -0.5717
15808TIP3    H168915   6.628   6.742  12.367  0.6559 -0.8319 -0.4149
15808TIP3    H268916   6.521   6.639  12.398 -1.1950  0.8914 -0.8540
15809TIP3   OH268917   4.302   0.589  16.979 -0.5000  0.0721  0.2888
15809TIP3    H168918   4.329   0.681  16.977  1.6654 -0.5024  0.3629
15809TIP3    H268919   4.305   0.565  17.071 -0.6188 -0.1926  0.2247
15810TIP3   OH268920   4.809   4.332  16.706 -0.0995  0.8255 -0.1759
15810TIP3    H168921   4.807   4.340  16.801 -6.0783  0.5175  0.0999
15810TIP3    H268922   4.801   4.422  16.674  0.2150  0.7963 -0.3439
15811TIP3   OH268923   6.123   3.530   0.043  0.0402 -0.5166  0.2312
15811TIP3    H168924   6.054   3.470   0.017  0.1242 -0.3924 -0.2930
15811TIP3    H268925   6.083   3.617   0.036  0.6147 -0.3401 -1.3570
15812TIP3   OH268926   6.757   4.064   1.868 -0.7749 -0.3970 -0.5713
15812TIP3    H168927   6.850   4.071   1.893  0.1044 -0.9955 -3.2999
15812TIP3    H268928   6.737   3.971   1.879 -0.6010 -0.5264 -1.2658
15813TIP3   OH268929   0.264   0.089  14.948  0.0024 -0.7876  0.1193
15813TIP3    H168930   0.182   0.132  14.973 -0.5955 -0.9185 -1.5249
15813TIP3    H268931   0.281   0.028  15.020 -1.6866 -1.1956  0.2275
15814TIP3   OH268932   3.762   0.179  13.797  0.3869 -0.3424 -0.2480
15814TIP3    H168933   3.778   0.140  13.882 -1.2460 -1.8345 -0.5738
15814TIP3    H268934   3.774   0.273  13.811 -0.9950 -0.4354  1.9246
15815TIP3   OH268935   3.365   6.018  14.738 -0.3434  0.2280  0.4435
15815TIP3    H168936   3.274   5.999  14.760  0.1267  0.1713  2.5333
15815TIP3    H268937   3.395   5.940  14.690 -1.3524  0.2317 -0.2367
15816TIP3   OH268938   6.462   6.078   1.627  0.2454 -0.1316 -0.3222
15816TIP3    H168939   6.497   6.117   1.707 -0.9302  0.8727 -0.2810
15816TIP3    H268940   6.539   6.070   1.570  1.3065 -1.7575  1.1937
15817TIP3   OH268941   3.346   2.757  14.841 -0.3939  0.1693  0.1364
15817TIP3    H168942   3.272   2.695  14.843 -0.0729 -0.2922 -1.2111
15817TIP3    H268943   3.415   2.709  14.796 -0.2654  1.6456 -1.3094
15818TIP3   OH268944   1.766   6.454   2.821  0.6511  0.1376 -0.7203
15818TIP3    H168945   1.699   6.430   2.885  0.3124 -2.1750 -1.8182
15818TIP3    H268946   1.728   6.529   2.774 -0.6498 -0.3379 -0.4826
15819TIP3   OH268947   3.764   5.335  12.250 -0.2695  0.0379 -0.0121
15819TIP3    H168948   3.674   5.356  12.226 -0.3779  1.4871  1.4447
15819TIP3    H268949   3.802   5.420  12.275  1.5956 -0.4926 -0.8715
15820TIP3   OH268950   4.458   2.297   4.997 -0.6655 -0.5413  0.0392
15820TIP3    H168951   4.453   2.234   4.925 -2.2359 -1.5863  0.9923
15820TIP3    H268952   4.456   2.244   5.076 -0.7579  0.6544  0.8756
15821TIP3   OH268953   2.880   3.190  11.914 -0.2996 -0.3891  0.0227
15821TIP3    H168954   2.965   3.223  11.944 -0.3386  0.3274 -0.6339
15821TIP3    H268955   2.900   3.104  11.876 -0.1261 -0.9440  1.3203
15822TIP3   OH268956   4.223   2.448   3.848 -0.1819 -0.1944 -0.2084
15822TIP3    H168957   4.153   2.451   3.913  0.8412  0.2638  0.9186
15822TIP3    H268958   4.225   2.536   3.811 -0.6794 -0.4190 -0.7863
15823TIP3   OH268959   2.559   3.840   6.000  0.0211  0.1105  0.5814
15823TIP3    H168960   2.585   3.751   6.023  1.0896  0.7337  1.9929
15823TIP3    H268961   2.464   3.840   6.005 -0.1263 -1.3859 -1.2814
15824TIP3   OH268962   5.848   4.134  12.532 -0.4811  0.1634  0.1406
15824TIP3    H168963   5.830   4.046  12.497 -0.1154  0.4338 -0.7375
15824TIP3    H268964   5.828   4.126  12.625  1.1950 -1.3434  0.4358
15825TIP3   OH268965   6.189   4.023  15.772 -0.1670 -0.7045  0.2390
15825TIP3    H168966   6.155   4.111  15.757 -0.1081 -0.5088  1.1862
15825TIP3    H268967   6.121   3.979  15.823 -0.0922 -1.1260 -0.0210
15826TIP3   OH268968   4.143   3.221   4.603  0.2289  0.0146  0.5009
15826TIP3    H168969   4.122   3.152   4.667  1.5027  0.4379  1.4207
15826TIP3    H268970   4.060   3.268   4.590  0.2219  0.8581  3.0372
15827TIP3   OH268971   1.018   4.259   3.609  0.2738  0.1578 -0.0349
15827TIP3    H168972   1.022   4.192   3.541  1.6710 -2.6699  2.6342
15827TIP3    H268973   1.064   4.221   3.684 -1.5138  2.8940  2.6931
15828TIP3   OH268974   6.277   2.602   0.948 -0.6497 -0.0394 -0.1790
15828TIP3    H168975   6.249   2.673   1.005 -0.2993 -0.5175  0.6113
15828TIP3    H268976   6.198   2.549   0.935 -0.6838 -0.0386  0.0258
15829TIP3   OH268977   2.888   4.626  14.777  0.4213 -0.1940  0.0285
15829TIP3    H168978   2.829   4.608  14.704  1.1115  0.2645 -0.6637
15829TIP3    H268979   2.969   4.653  14.735  0.6982  0.4796  0.9768
15830TIP3   OH268980   1.655   1.478   4.267  0.2949 -0.0674  0.4415
15830TIP3    H168981   1.749   1.485   4.286  0.2391 -0.2025  0.7719
15830TIP3    H268982   1.646   1.512   4.178  1.1900 -3.3946 -1.0723
15831TIP3   OH268983   2.447   4.224   3.836  0.0445  0.1424 -0.6883
15831TIP3    H168984   2.468   4.309   3.796 -0.8963  0.3649 -0.7238
15831TIP3    H268985   2.430   4.244   3.928  0.4820 -0.1200 -0.5423
15832TIP3   OH268986   6.070   1.355   0.813 -0.1584  0.1191 -0.0206
15832TIP3    H168987   6.135   1.409   0.858 -0.4835  1.2792 -0.8985
15832TIP3    H268988   5.989   1.370   0.863 -0.1859  0.2357 -0.0992
15833TIP3   OH268989   2.207   6.340   5.163  0.2512 -0.2749  0.2320
15833TIP3    H168990   2.274   6.407   5.150  0.2156 -0.6143 -2.1279
15833TIP3    H268991   2.249   6.274   5.218  1.5089  0.0159 -0.3483
15834TIP3   OH268992   5.369   4.899   3.401 -0.1225 -0.4887  0.0836
15834TIP3    H168993   5.361   4.806   3.382  2.1845 -0.6558 -0.3252
15834TIP3    H268994   5.409   4.903   3.488  0.5002  0.0752 -0.2140
15835TIP3   OH268995   3.436   1.404   4.942 -0.1859  0.0378  0.0785
15835TIP3    H168996   3.517   1.408   4.994 -1.2591  0.8148  1.7607
15835TIP3    H268997   3.395   1.322   4.969  0.3728 -0.7903 -1.3998
15836TIP3   OH268998   2.708   2.443   5.894 -0.4570  0.4648  0.5981
15836TIP3    H168999   2.774   2.408   5.954 -0.7459 -1.1046  0.0317
15836TIP3    H269000   2.625   2.407   5.925 -0.4726 -1.4346 -1.4367
15837TIP3   OH269001   1.459   1.376  13.196  0.2056  0.0026  0.1619
15837TIP3    H169002   1.527   1.354  13.260  0.1658 -1.2223 -0.1900
15837TIP3    H269003   1.404   1.440  13.241  0.7186 -0.1282  1.0073
15838TIP3   OH269004   2.661   5.196   4.764  0.4760 -0.5360 -0.4937
15838TIP3    H169005   2.606   5.203   4.686 -2.0648 -0.2077  1.2123
15838TIP3    H269006   2.633   5.115   4.806  0.0579  0.4730  1.2701
15839TIP3   OH269007   1.564   2.048   2.953 -0.0102 -0.2518 -0.0918
15839TIP3    H169008   1.652   2.086   2.957  0.0479 -0.1908 -1.4265
15839TIP3    H269009   1.525   2.086   2.875 -1.2243 -0.3175  0.4586
15840TIP3   OH269010   1.746   0.674   1.953 -0.0583 -0.2647 -0.9246
15840TIP3    H169011   1.787   0.589   1.969 -0.3543 -0.3556 -0.6191
15840TIP3    H269012   1.673   0.654   1.894 -1.2440 -0.5301  0.5577
15841TIP3   OH269013   3.126   2.102  11.535 -0.2570 -0.1911 -0.0359
15841TIP3    H169014   3.076   2.067  11.609 -0.9776  1.7840  0.4719
15841TIP3    H269015   3.212   2.121  11.571 -0.4824  0.3873  0.2178
15842TIP3   OH269016   4.836   3.198  12.158 -0.6372  0.0714 -0.3275
15842TIP3    H169017   4.862   3.268  12.097 -2.3000  0.7706 -0.3097
15842TIP3    H269018   4.756   3.162  12.118  0.1021 -1.7181 -0.2389
15843TIP3   OH269019   0.607   6.593   0.754  0.1831 -0.4089  0.1649
15843TIP3    H169020   0.654   6.511   0.746 -0.0539 -0.5707  0.4215
15843TIP3    H269021   0.670   6.660   0.727  1.7210 -0.2637  3.6207
15844TIP3   OH269022   6.006   2.095  12.276 -0.0428 -0.1942 -0.2287
15844TIP3    H169023   5.963   2.165  12.228  1.4674  0.2477 -1.0008
15844TIP3    H269024   5.938   2.059  12.332 -1.4210  0.4250 -1.4315
15845TIP3   OH269025   2.137   6.485   1.443 -0.3353 -0.3327  0.2434
15845TIP3    H169026   2.122   6.415   1.380 -0.3938  0.0646 -0.1901
15845TIP3    H269027   2.202   6.542   1.400 -0.5194  0.0413  0.4581
15846TIP3   OH269028   1.858   5.911   5.142 -0.1665  0.0744  0.3686
15846TIP3    H169029   1.945   5.880   5.167  0.3598  0.4881 -0.8669
15846TIP3    H269030   1.841   5.869   5.057  0.5891  3.0167 -1.3815
15847TIP3   OH269031   1.935   2.465   4.525 -0.3356 -0.0229 -0.1916
15847TIP3    H169032   1.895   2.379   4.511 -1.5120  0.7428 -1.7407
15847TIP3    H269033   2.029   2.449   4.516 -0.5960 -0.9982 -1.3508
15848TIP3   OH269034   5.261   3.314   0.250  0.0291 -0.1143  0.1753
15848TIP3    H169035   5.206   3.351   0.320  0.5503  1.0281 -0.0036
15848TIP3    H269036   5.328   3.380   0.234  0.9236 -1.0943 -0.2557
15849TIP3   OH269037   4.746   3.693   1.105 -0.0849  0.1001 -0.0612
15849TIP3    H169038   4.837   3.719   1.120 -0.1866 -0.5944  2.0134
15849TIP3    H269039   4.735   3.613   1.156 -1.2255 -1.1876 -2.1907
15850TIP3   OH269040   3.124   6.682  16.222 -0.1955 -0.2755 -0.6067
15850TIP3    H169041   3.200   6.635  16.254  0.5500  1.2441 -0.0321
15850TIP3    H269042   3.154   6.724  16.141 -0.8032 -0.6586 -1.0427
15851TIP3   OH269043   2.532   5.770  15.896  0.4763  0.4141  0.6299
15851TIP3    H169044   2.488   5.833  15.840  0.3706  0.0477  0.2955
15851TIP3    H269045   2.625   5.781  15.878  0.5571  1.3289  1.4819
15852TIP3   OH269046   5.195   5.359   4.462 -0.3162 -0.4158 -0.3125
15852TIP3    H169047   5.120   5.303   4.483 -0.5879  1.0130  3.1560
15852TIP3    H269048   5.175   5.443   4.504  1.7431  1.1346 -2.1825
15853TIP3   OH269049   2.961   2.719  11.986 -0.1473  0.3606  0.1364
15853TIP3    H169050   3.011   2.678  11.915  0.5385 -1.3326  1.5104
15853TIP3    H269051   2.887   2.659  12.001  0.2730  0.1373  1.4754
15854TIP3   OH269052   5.025   1.871  14.489  0.3699 -0.1912  0.0600
15854TIP3    H169053   5.050   1.796  14.434  0.8433 -0.0811  0.1269
15854TIP3    H269054   5.056   1.948  14.441  2.0352 -0.1577  1.1281
15855TIP3   OH269055   2.735   0.493  15.771 -0.5301  0.0008  0.0614
15855TIP3    H169056   2.738   0.419  15.832 -0.1839 -0.9661 -1.0944
15855TIP3    H269057   2.771   0.459  15.690 -3.5536  0.4327 -1.5755
15856TIP3   OH269058   4.997   6.745   4.476  0.1416 -0.2586  0.3837
15856TIP3    H169059   5.077   6.778   4.437  0.0232 -1.2525 -0.7540
15856TIP3    H269060   4.969   6.674   4.418 -0.8613 -0.7886  1.4645
15857TIP3   OH269061   1.146   3.505  12.296 -0.1535  0.1033 -0.5092
15857TIP3    H169062   1.209   3.562  12.252 -0.0348  0.3735  0.0024
15857TIP3    H269063   1.192   3.421  12.305  0.0323  0.2188 -0.3806
15858TIP3   OH269064   4.145   3.339  12.751  0.7058  0.2234  0.1982
15858TIP3    H169065   4.213   3.397  12.787 -1.3796  2.1511  1.2298
15858TIP3    H269066   4.174   3.321  12.662  2.5219  1.0373  0.5656
15859TIP3   OH269067   5.681   1.375  13.520 -0.1224  0.3733  0.1886
15859TIP3    H169068   5.706   1.288  13.551 -0.5787  0.5466  1.0914
15859TIP3    H269069   5.713   1.379  13.430 -0.2015 -0.7724  0.0968
15860TIP3   OH269070   0.307   0.551   6.886 -0.5833  0.6599 -0.6704
15860TIP3    H169071   0.328   0.556   6.792 -0.7457  1.1816 -0.6818
15860TIP3    H269072   0.256   0.630   6.903  0.9202  1.5001  0.2203
15861TIP3   OH269073   6.068   0.842  12.945 -0.2276  0.7740 -0.6523
15861TIP3    H169074   6.088   0.820  12.854 -2.3616 -0.5440 -0.8457
15861TIP3    H269075   6.003   0.912  12.940 -0.1578  0.8902 -0.1132
15862TIP3   OH269076   2.847   3.072  13.397 -0.5276 -0.2150 -0.4024
15862TIP3    H169077   2.927   3.032  13.363  0.3187  0.3462  0.8549
15862TIP3    H269078   2.828   3.144  13.336 -1.6805 -2.0163 -2.2905
15863TIP3   OH269079   4.596   5.812  11.614  0.2188 -0.0255 -0.4655
15863TIP3    H169080   4.691   5.807  11.603  0.3237  2.4597 -1.3051
15863TIP3    H269081   4.584   5.867  11.691 -0.5445 -0.2583 -0.4141
15864TIP3   OH269082   2.856   5.415  13.085  0.0217 -0.3042  0.1644
15864TIP3    H169083   2.913   5.491  13.093 -0.0961  0.0262 -1.6775
15864TIP3    H269084   2.769   5.449  13.106 -0.0613  0.1412 -0.8415
15865TIP3   OH269085   0.518   3.655   1.753  0.1050  0.2810  0.5641
15865TIP3    H169086   0.464   3.669   1.830 -0.7519 -1.9606  0.4588
15865TIP3    H269087   0.516   3.738   1.705 -0.4779  1.2640  2.2373
15866TIP3   OH269088   4.403   0.590  15.085  0.1276  0.5096 -0.0266
15866TIP3    H169089   4.446   0.576  15.001  0.1057 -0.0251  0.0463
15866TIP3    H269090   4.461   0.548  15.149  0.1594  0.9357  0.2306
15867TIP3   OH269091   6.104   0.873   1.356  0.0347  0.4186  0.3644
15867TIP3    H169092   6.186   0.921   1.346 -0.3496  0.7134 -1.7075
15867TIP3    H269093   6.114   0.796   1.301 -1.4242  0.9716 -0.7486
15868TIP3   OH269094   6.279   4.138   4.599  0.2275  0.5827 -0.0336
15868TIP3    H169095   6.238   4.071   4.544 -0.2907 -0.3719  1.4618
15868TIP3    H269096   6.266   4.220   4.551 -0.2606 -0.2077 -1.2903
15869TIP3   OH269097   0.033   1.613  17.033 -1.1533 -0.1954 -0.4033
15869TIP3    H169098  -0.032   1.613  17.104 -2.1484  0.2946 -1.2877
15869TIP3    H269099   0.114   1.642  17.075 -1.3769 -1.2505  0.8262
15870TIP3   OH269100   4.915   5.739   3.501  0.1541  0.2500 -0.0364
15870TIP3    H169101   4.967   5.672   3.547  0.3468  0.7219  0.4490
15870TIP3    H269102   4.955   5.822   3.528  1.8134  0.5197 -2.8582
15871TIP3   OH269103   5.674   1.247  12.762  0.3592  0.1957 -0.0602
15871TIP3    H169104   5.696   1.314  12.698  1.0648  0.5446  0.5380
15871TIP3    H269105   5.629   1.294  12.832  0.8748  0.0591  0.3702
15872TIP3   OH269106   3.382   1.152  11.524 -0.0158 -0.0572 -0.3607
15872TIP3    H169107   3.438   1.113  11.591  0.3561 -0.9057 -1.1422
15872TIP3    H269108   3.313   1.087  11.510 -0.5138  0.4477 -0.2739
15873TIP3   OH269109   5.233   2.565  16.644 -0.7999  0.5234  0.0252
15873TIP3    H169110   5.235   2.644  16.697  2.3326 -0.7203  2.0739
15873TIP3    H269111   5.266   2.592  16.559 -0.1269  1.5010  0.5804
15874TIP3   OH269112   2.040   0.418  15.573  0.2033 -0.3019 -0.2786
15874TIP3    H169113   1.981   0.343  15.563 -0.0834 -0.1089 -0.0484
15874TIP3    H269114   1.987   0.493  15.547  0.2011 -0.0699  0.3754
15875TIP3   OH269115   5.136   4.278  12.274  0.6466  0.0953  0.2979
15875TIP3    H169116   5.180   4.299  12.192  0.1270 -1.2906 -0.3605
15875TIP3    H269117   5.138   4.183  12.280 -1.1780  0.0493  0.8315
15876TIP3   OH269118   0.466   0.634   0.363  0.5443 -0.5323  0.0828
15876TIP3    H169119   0.450   0.649   0.269  1.0401 -2.8049 -0.4306
15876TIP3    H269120   0.393   0.580   0.392 -0.1430  0.9754  1.3186
15877TIP3   OH269121   4.751   3.127   4.166 -0.5510 -0.0172  0.4398
15877TIP3    H169122   4.809   3.104   4.239  0.9703  0.7809 -0.4619
15877TIP3    H269123   4.663   3.127   4.205  0.2453  0.9483  2.4239
15878TIP3   OH269124   2.030   4.199   2.698  0.0924 -0.3549  0.1177
15878TIP3    H169125   1.991   4.188   2.611 -0.7012  2.4545  0.0005
15878TIP3    H269126   2.124   4.200   2.682 -0.0535  0.6760 -0.8605
15879TIP3   OH269127   1.569   0.154  10.652 -0.2077  0.7579  0.4081
15879TIP3    H169128   1.562   0.058  10.654 -0.7915  0.6872 -1.9509
15879TIP3    H269129   1.663   0.171  10.659  0.2147 -0.1847 -2.0316
15880TIP3   OH269130   6.351   3.941  13.691 -0.1223  0.4200 -0.3077
15880TIP3    H169131   6.342   4.034  13.668  0.6023  1.3479  2.7596
15880TIP3    H269132   6.425   3.938  13.751 -0.8914 -1.9614  0.6400
15881TIP3   OH269133   4.813   5.795   0.543 -0.5452  0.2342 -0.1408
15881TIP3    H169134   4.795   5.705   0.568 -0.0178  0.1197 -0.1679
15881TIP3    H269135   4.836   5.840   0.624  4.6760 -0.9411 -0.6327
15882TIP3   OH269136   5.325   3.301  16.581 -0.0783  0.2955 -0.1358
15882TIP3    H169137   5.391   3.253  16.632  0.8893  0.5697 -1.0833
15882TIP3    H269138   5.345   3.280  16.490 -0.8846  0.9296 -0.4726
15883TIP3   OH269139   3.093   4.037   2.585 -0.5148 -0.0573  0.7941
15883TIP3    H169140   3.168   3.987   2.552 -0.6528 -0.6678  1.3896
15883TIP3    H269141   3.130   4.120   2.615 -0.1334 -0.2119  0.7492
15884TIP3   OH269142   4.869   4.030  12.630  0.8735 -0.0545  0.4232
15884TIP3    H169143   4.918   4.105  12.664  0.1966  1.0358 -0.8852
15884TIP3    H269144   4.779   4.043  12.660  0.4555  0.4492 -0.9427
15885TIP3   OH269145   5.190   6.606   3.005  0.5276 -0.4881  0.4303
15885TIP3    H169146   5.154   6.672   3.065 -1.8224 -1.0580 -0.2272
15885TIP3    H269147   5.176   6.523   3.050 -0.0738 -0.8155 -0.3350
15886TIP3   OH269148   6.299   0.342   1.819  0.2803  0.1093 -0.0402
15886TIP3    H169149   6.299   0.430   1.857  0.2794 -1.0058  2.7324
15886TIP3    H269150   6.364   0.294   1.870  1.7773 -1.0418 -2.8058
15887TIP3   OH269151   0.220   3.688  12.700 -0.8291  0.3204 -0.5154
15887TIP3    H169152   0.168   3.722  12.772 -0.3455  0.3503 -0.1705
15887TIP3    H269153   0.225   3.594  12.717  0.1470  0.4611  0.0788
15888TIP3   OH269154   3.179   5.744   5.538 -0.2769  0.0197 -0.7003
15888TIP3    H169155   3.197   5.777   5.626  1.0944  1.0693 -1.3426
15888TIP3    H269156   3.094   5.781   5.515 -1.7877 -2.1196  1.0204
15889TIP3   OH269157   1.601   0.546  13.953  0.0776  0.5463 -0.0359
15889TIP3    H169158   1.591   0.527  14.047 -1.5086 -0.0063 -0.2818
15889TIP3    H269159   1.521   0.594  13.930  0.6930  1.1494 -1.0144
15890TIP3   OH269160   4.773   5.936  11.262 -0.3927 -0.2274  0.2852
15890TIP3    H169161   4.865   5.962  11.266  0.2968 -1.8406 -2.4247
15890TIP3    H269162   4.740   5.977  11.182 -1.0251 -2.3277 -0.6106
15891TIP3   OH269163   4.562   3.113   1.626  0.1564 -0.3056 -0.1079
15891TIP3    H169164   4.585   3.168   1.701 -2.2929  1.2759 -0.4087
15891TIP3    H269165   4.481   3.069   1.652 -0.3519 -0.2842 -1.5521
15892TIP3   OH269166   2.749   5.675  11.693  0.4569 -0.6128 -0.1371
15892TIP3    H169167   2.796   5.614  11.637  0.0880 -1.9780  0.9689
15892TIP3    H269168   2.781   5.656  11.781  0.1174  0.6043  0.2686
15893TIP3   OH269169   2.409   0.963  11.620 -0.5233 -0.1427 -0.5063
15893TIP3    H169170   2.361   1.044  11.605  0.5978  0.9476  1.3342
15893TIP3    H269171   2.501   0.989  11.620 -0.1789 -1.1299  1.3372
15894TIP3   OH269172   3.047   1.589  16.562 -0.0635  0.3791  0.2628
15894TIP3    H169173   3.076   1.531  16.492 -0.3541 -1.0795  1.2966
15894TIP3    H269174   2.962   1.554  16.589  0.1688  0.7276  1.5199
15895TIP3   OH269175   0.205   0.229  12.518  0.1279 -0.1299 -0.0227
15895TIP3    H169176   0.215   0.160  12.583 -1.8405 -0.0987  0.3824
15895TIP3    H269177   0.133   0.199  12.462 -0.0215  1.0800 -0.5118
15896TIP3   OH269178   5.853   0.105  15.644 -0.3117 -0.6771  0.3252
15896TIP3    H169179   5.929   0.055  15.616  0.0829  0.0607  0.0599
15896TIP3    H269180   5.797   0.040  15.688  1.7775 -0.7060  3.2105
15897TIP3   OH269181   4.955   3.713  14.184  0.1789  0.4393 -0.1215
15897TIP3    H169182   5.035   3.672  14.215  0.7638 -0.1065 -2.2097
15897TIP3    H269183   4.930   3.773  14.254  0.8672 -1.3822  1.7706
15898TIP3   OH269184   0.975   3.601  16.059  0.3036 -0.3911  0.0195
15898TIP3    H169185   0.977   3.694  16.080 -3.8344 -0.2670  0.8223
15898TIP3    H269186   0.946   3.598  15.968 -2.4403 -0.7451  0.8208
15899TIP3   OH269187   5.597   0.028  15.094  0.1535  0.1366  0.2577
15899TIP3    H169188   5.582   0.081  15.172 -0.8996  0.1447  0.0636
15899TIP3    H269189   5.692   0.015  15.092  0.0842 -1.2616  2.4593
15900TIP3   OH269190   6.033   4.805  13.534 -0.2311 -0.1795 -0.6256
15900TIP3    H169191   5.950   4.813  13.487  0.4460  2.4307 -1.5573
15900TIP3    H269192   6.094   4.770  13.469 -0.9204 -4.2659  0.6501
15901TIP3   OH269193   6.432   6.245  14.540  0.3450 -0.2717  0.2736
15901TIP3    H169194   6.416   6.189  14.616 -2.1940  1.5771  1.2828
15901TIP3    H269195   6.357   6.230  14.483  1.2495 -0.2090 -0.9632
15902TIP3   OH269196   1.487   2.594   0.930 -0.1994 -0.2355 -0.0093
15902TIP3    H169197   1.580   2.615   0.938  0.0388 -0.2219 -2.0838
15902TIP3    H269198   1.442   2.677   0.939  0.0111 -0.2015  0.7379
15903TIP3   OH269199   0.856   3.772  14.113 -0.0721 -0.6723  0.1330
15903TIP3    H169200   0.900   3.690  14.093 -0.1089 -0.7586  0.4054
15903TIP3    H269201   0.911   3.812  14.181  0.6786  0.1461 -0.9203
15904TIP3   OH269202   2.862   1.943   0.296  0.0490  0.0274 -0.1426
15904TIP3    H169203   2.897   2.032   0.283 -0.8645  0.6078  1.1685
15904TIP3    H269204   2.795   1.934   0.229 -0.1753  0.5164  0.0128
15905TIP3   OH269205   5.938   2.871  10.876 -0.0831 -0.2392 -0.0792
15905TIP3    H169206   5.987   2.862  10.957 -1.1707 -0.6395  0.5495
15905TIP3    H269207   5.996   2.834  10.809  0.4002 -0.8539  0.6630
15906TIP3   OH269208   5.165   2.744   0.602 -0.0880 -0.6811  0.0731
15906TIP3    H169209   5.210   2.777   0.679  1.8313 -3.6680  0.4032
15906TIP3    H269210   5.142   2.822   0.552  1.7093  1.2031  1.9762
15907TIP3   OH269211   2.451   4.454  12.361 -0.5321 -0.4069  0.3307
15907TIP3    H169212   2.371   4.486  12.319 -0.4861 -0.9564 -0.1957
15907TIP3    H269213   2.428   4.367  12.394 -0.0332 -0.7600 -0.2275
15908TIP3   OH269214   3.450   1.097  11.977 -0.0304 -0.1442  0.5575
15908TIP3    H169215   3.365   1.059  11.956  0.4917 -0.4530 -1.1616
15908TIP3    H269216   3.429   1.185  12.010 -1.0410 -0.4222  0.6886
15909TIP3   OH269217   2.817   5.089   2.336 -0.6767 -0.2820  0.1349
15909TIP3    H169218   2.863   5.012   2.371  0.6797 -0.6788 -2.2895
15909TIP3    H269219   2.833   5.158   2.400  0.5590 -1.2752  0.9476
15910TIP3   OH269220   2.427   3.089  15.425  0.2590  0.0421 -0.3838
15910TIP3    H169221   2.342   3.130  15.442  1.4164  1.6506  2.2659
15910TIP3    H269222   2.455   3.126  15.341 -2.0054 -1.2714 -1.7984
15911TIP3   OH269223   6.880   1.688   5.985 -0.3978 -0.0409 -0.4207
15911TIP3    H169224   6.847   1.770   6.022  1.4318  0.7044 -0.3252
15911TIP3    H269225   6.855   1.621   6.048 -0.4526  0.6996  0.3658
15912TIP3   OH269226   5.442   0.465   0.873 -0.1309 -0.2731  0.3731
15912TIP3    H169227   5.357   0.426   0.853 -0.5960  0.7459  0.3486
15912TIP3    H269228   5.440   0.551   0.832 -0.1264  0.8510  2.6222
15913TIP3   OH269229   1.754   3.069   2.397 -0.1760 -0.4915  0.1787
15913TIP3    H169230   1.667   3.050   2.363 -0.2146  1.2120 -0.7669
15913TIP3    H269231   1.814   3.040   2.329  0.0630 -1.9944  0.9771
15914TIP3   OH269232   1.490   6.454  13.539 -0.6013  0.3604 -0.3885
15914TIP3    H169233   1.566   6.426  13.487 -0.7060  1.7039 -1.3326
15914TIP3    H269234   1.508   6.423  13.627  0.5829 -0.1945 -0.8057
15915TIP3   OH269235   4.757   6.004  16.827  0.1122 -0.6255 -0.3840
15915TIP3    H169236   4.740   6.046  16.912 -0.8616  1.5337 -1.5560
15915TIP3    H269237   4.852   6.011  16.815 -0.0418  1.6127 -0.6576
15916TIP3   OH269238   2.349   6.128   3.691  0.4500  0.8625  0.2642
15916TIP3    H169239   2.434   6.100   3.726  0.0818 -0.1359  0.4157
15916TIP3    H269240   2.341   6.219   3.717  2.8812  2.0242 -2.4991
15917TIP3   OH269241   0.011   2.393  11.121 -0.2234 -0.1136  0.2736
15917TIP3    H169242   0.045   2.309  11.153 -0.8122 -0.2335  0.5920
15917TIP3    H269243   0.084   2.453  11.131  0.3201 -0.6683 -0.2914
15918TIP3   OH269244   2.129   6.630   4.180 -0.4042  0.2165  0.6827
15918TIP3    H169245   2.150   6.635   4.274 -2.0213 -0.3931  1.1069
15918TIP3    H269246   2.055   6.689   4.169 -1.6969 -1.4177  0.2703
15919TIP3   OH269247   0.819   4.076   6.045 -0.4146  0.2890 -0.6266
15919TIP3    H169248   0.853   4.091   6.133  2.1595  0.6721 -1.5909
15919TIP3    H269249   0.724   4.084   6.054 -0.2993 -0.4575  2.2243
15920TIP3   OH269250   0.875   1.474  12.166  0.0798 -0.2675 -0.3796
15920TIP3    H169251   0.829   1.534  12.224  1.0195  1.2558 -1.1466
15920TIP3    H269252   0.953   1.522  12.138  2.1712 -2.6946  0.8266
15921TIP3   OH269253   0.085   2.344   6.528  0.5216 -0.8002 -0.0945
15921TIP3    H169254   0.099   2.256   6.563  1.4155 -0.4979  0.3236
15921TIP3    H269255   0.167   2.366   6.484 -0.9089 -1.6010 -3.4480
15922TIP3   OH269256   0.848   3.441   0.649  0.1143 -0.4829  0.2643
15922TIP3    H169257   0.921   3.401   0.696 -0.2307 -0.8359  0.5057
15922TIP3    H269258   0.889   3.504   0.589  0.6705 -1.2540 -0.1800
15923TIP3   OH269259   0.600   6.162   5.344  0.4952  0.5047 -0.3574
15923TIP3    H169260   0.590   6.072   5.311  2.6853 -0.1247  0.5227
15923TIP3    H269261   0.596   6.217   5.266 -2.3098 -0.1408 -0.7905
15924TIP3   OH269262   2.551   1.464  13.280 -0.2304 -0.3312 -0.3398
15924TIP3    H169263   2.564   1.526  13.352  0.2227  0.0933 -0.7821
15924TIP3    H269264   2.516   1.386  13.322 -1.6785  0.5313  0.1146
15925TIP3   OH269265   4.990   4.199   0.231  0.5207 -0.4118 -0.6400
15925TIP3    H169266   4.925   4.135   0.204 -0.5406  0.9430 -1.4485
15925TIP3    H269267   5.005   4.180   0.324 -1.1896 -0.6405 -0.3752
15926TIP3   OH269268   3.969   4.979  15.449 -0.0158  0.1922 -0.3525
15926TIP3    H169269   3.961   4.986  15.544 -0.4119  0.4522 -0.4059
15926TIP3    H269270   4.063   4.989  15.433 -0.0510  1.0982 -0.0657
15927TIP3   OH269271   1.701   5.534  11.740 -0.3961  0.2028  0.0972
15927TIP3    H169272   1.723   5.441  11.732 -0.1960  0.1038  1.4525
15927TIP3    H269273   1.606   5.535  11.752 -0.1233 -0.1168  2.9791
15928TIP3   OH269274   3.733   2.027  12.135 -0.4491  0.0299 -0.0436
15928TIP3    H169275   3.641   2.032  12.160 -0.0753 -0.6305  1.5856
15928TIP3    H269276   3.773   1.973  12.202  0.8160 -1.1507 -1.6711
15929TIP3   OH269277   4.795   4.109  16.550  0.1586  0.4575 -0.7554
15929TIP3    H169278   4.806   4.192  16.596 -0.3590 -0.5361  1.2536
15929TIP3    H269279   4.700   4.093  16.552  0.4263 -1.2987  1.0385
15930TIP3   OH269280   0.018   0.911   2.937 -0.0329 -0.4249 -0.6442
15930TIP3    H169281  -0.025   0.826   2.923 -0.8220 -0.2612  0.6381
15930TIP3    H269282   0.020   0.951   2.850 -0.6132 -1.3059 -1.0814
15931TIP3   OH269283   1.402   0.724  13.797  0.0164  0.5298  0.1963
15931TIP3    H169284   1.451   0.650  13.761 -0.7705 -1.2637  2.5728
15931TIP3    H269285   1.468   0.792  13.808  1.0846 -0.3239 -0.6422
15932TIP3   OH269286   4.439   3.466  11.790  0.8191 -0.0148 -0.4512
15932TIP3    H169287   4.388   3.476  11.871  2.5553 -0.4724  0.7733
15932TIP3    H269288   4.424   3.547  11.742  0.6779  0.7906  0.9021
15933TIP3   OH269289   1.604   0.711  13.222  0.1256 -0.8572  0.1676
15933TIP3    H169290   1.509   0.720  13.213  0.1881 -0.1853  0.1295
15933TIP3    H269291   1.632   0.791  13.267  0.6264 -1.2228  0.5087
15934TIP3   OH269292   0.283   4.515   0.524 -0.1080 -0.1306 -0.6342
15934TIP3    H169293   0.376   4.493   0.534  0.0318  0.7549  0.0973
15934TIP3    H269294   0.240   4.473   0.599 -0.3592 -0.7726 -1.1193
15935TIP3   OH269295   2.939   6.604   1.550 -0.7585  0.1887  0.0008
15935TIP3    H169296   2.977   6.544   1.486 -0.8668  1.3620 -1.1871
15935TIP3    H269297   2.847   6.612   1.525 -0.9560  0.1750  0.6878
15936TIP3   OH269298   6.249   1.950  14.947  0.0076 -0.3639 -0.2444
15936TIP3    H169299   6.283   2.038  14.929  0.4311 -0.6831 -1.0521
15936TIP3    H269300   6.183   1.936  14.879  0.4529 -0.9517 -0.5532
15937TIP3   OH269301   3.697   1.000   5.718  0.4217 -0.1017 -0.2534
15937TIP3    H169302   3.727   1.069   5.659  2.2595 -0.5135  0.1322
15937TIP3    H269303   3.705   0.919   5.668 -2.2113 -0.0782 -0.8818
15938TIP3   OH269304   0.333   6.839   4.467 -0.1977 -0.2210  0.0727
15938TIP3    H169305   0.403   6.780   4.493 -0.3318 -0.0854  0.7810
15938TIP3    H269306   0.303   6.878   4.550 -0.2780  0.6431 -0.3453
15939TIP3   OH269307   2.022   4.739  13.499  0.1470 -0.2362  0.1836
15939TIP3    H169308   2.023   4.834  13.486  0.5303 -0.1778  0.5917
15939TIP3    H269309   2.004   4.728  13.592 -0.5604 -0.5840  0.0117
15940TIP3   OH269310   0.168   2.474  16.764  0.1819 -0.2538  0.0068
15940TIP3    H169311   0.191   2.535  16.694 -0.9350 -0.0071 -0.1664
15940TIP3    H269312   0.151   2.529  16.840  0.2153 -0.4278  0.1409
15941TIP3   OH269313   4.375   2.091  12.929 -0.1734 -0.2931  0.2004
15941TIP3    H169314   4.296   2.054  12.968  0.8548 -2.0741  0.7124
15941TIP3    H269315   4.421   2.016  12.892  0.4570  0.9349 -1.6512
15942TIP3   OH269316   0.695   2.560  15.242 -0.1612 -0.3742 -0.4751
15942TIP3    H169317   0.726   2.603  15.322  0.8220  2.0360 -2.0119
15942TIP3    H269318   0.611   2.601  15.223  0.0631 -0.2200 -1.1684
15943TIP3   OH269319   6.733   0.001  16.223  0.4762  0.1919 -0.1993
15943TIP3    H169320   6.659   0.042  16.178  1.2479  2.5671  0.5609
15943TIP3    H269321   6.777  -0.050  16.155 -0.8330  0.1892 -1.0771
15944TIP3   OH269322   4.109   5.261  11.865 -0.8416  0.0246 -0.4286
15944TIP3    H169323   4.024   5.227  11.837 -0.2189  0.1288 -2.6585
15944TIP3    H269324   4.169   5.187  11.855 -0.3770  0.3990 -0.4628
15945TIP3   OH269325   2.554   1.759  16.193  0.2011  0.1004 -0.0436
15945TIP3    H169326   2.597   1.813  16.126  1.0301 -1.7531 -1.0707
15945TIP3    H269327   2.618   1.753  16.264  1.0939 -1.4303 -0.9379
15946TIP3   OH269328   1.709   0.546  10.537  0.5531 -0.1390  0.3783
15946TIP3    H169329   1.685   0.632  10.572  1.4280 -0.5034  1.9769
15946TIP3    H269330   1.677   0.547  10.447 -0.8800  1.2585  0.8488
15947TIP3   OH269331   5.492   2.887  12.286 -0.3656  0.1255 -0.8127
15947TIP3    H169332   5.477   2.970  12.330  0.7442 -0.1735  0.1882
15947TIP3    H269333   5.463   2.901  12.196 -2.6502  0.7745 -0.0379
15948TIP3   OH269334   2.448   2.214  11.108 -0.8057 -0.4042 -0.2549
15948TIP3    H169335   2.541   2.213  11.087 -0.0194  0.0119  2.7857
15948TIP3    H269336   2.406   2.247  11.029  1.7732  0.8925 -1.1963
15949TIP3   OH269337   4.979   5.617  14.378  0.1163  0.4260  0.5063
15949TIP3    H169338   4.950   5.534  14.416  2.6939  0.7527  3.7010
15949TIP3    H269339   5.075   5.609  14.376  0.3368  2.7145 -0.7027
15950TIP3   OH269340   5.818   4.459   1.230  0.2492  0.1780 -0.1609
15950TIP3    H169341   5.892   4.514   1.259  0.5313 -0.2775 -0.0004
15950TIP3    H269342   5.810   4.477   1.137  0.1391  0.7274 -0.0487
15951TIP3   OH269343   1.321   2.460   3.091 -0.4050  0.1598  0.9778
15951TIP3    H169344   1.261   2.443   3.163  0.0533 -0.4391  1.2263
15951TIP3    H269345   1.281   2.419   3.015 -1.0006  0.9868  0.8369
15952TIP3   OH269346   6.840   5.398   1.421  0.4849 -0.2127  0.1579
15952TIP3    H169347   6.915   5.458   1.423  0.6419 -0.4155  0.8908
15952TIP3    H269348   6.785   5.427   1.494  0.8389 -1.2960  0.8812
15953TIP3   OH269349   3.353   3.782   4.027  0.6289 -0.0465 -0.7243
15953TIP3    H169350   3.342   3.779   4.122  2.3861 -0.4038 -0.4917
15953TIP3    H269351   3.320   3.868   4.001 -2.0218 -0.8004 -0.1535
15954TIP3   OH269352   5.756   0.683   4.142 -0.1550 -0.1901 -0.1548
15954TIP3    H169353   5.709   0.621   4.086 -1.4368  0.6245 -0.0242
15954TIP3    H269354   5.718   0.671   4.229 -1.0716  1.3493 -0.2942
15955TIP3   OH269355   1.489   3.078  11.880  0.5765  0.0106 -0.0128
15955TIP3    H169356   1.426   3.019  11.839  0.3070 -0.1708  0.6533
15955TIP3    H269357   1.564   3.022  11.902  0.6045  0.0542  0.0026
15956TIP3   OH269358   4.319   5.415  12.612 -0.3145  0.2295 -0.9613
15956TIP3    H169359   4.266   5.479  12.658 -0.3969 -0.3919 -0.1539
15956TIP3    H269360   4.407   5.454  12.608 -0.5118  0.6674 -1.0763
15957TIP3   OH269361   6.733   6.278   4.419 -0.0651  0.1405  0.2465
15957TIP3    H169362   6.798   6.333   4.376  0.4527  0.4399  1.3706
15957TIP3    H269363   6.750   6.190   4.385  1.8685 -0.0410  1.5061
15958TIP3   OH269364   4.492   5.614  11.449 -0.3074 -0.3761 -0.2782
15958TIP3    H169365   4.444   5.674  11.392  1.4968 -0.3318 -1.8779
15958TIP3    H269366   4.538   5.671  11.511 -2.3743 -0.4297  1.4094
15959TIP3   OH269367   0.942   0.299   5.356 -0.0975  0.2096  0.8242
15959TIP3    H169368   0.981   0.360   5.417  2.5595  0.0979 -0.6282
15959TIP3    H269369   1.009   0.232   5.341 -2.4402 -2.5045  1.4524
15960TIP3   OH269370   1.045   1.133  11.355 -0.1265 -0.2281 -0.1612
15960TIP3    H169371   0.961   1.107  11.316 -0.3647 -0.0150  0.2077
15960TIP3    H269372   1.055   1.076  11.431 -1.2669  1.5507  1.4157
15961TIP3   OH269373   2.170   6.355  15.117 -0.3062 -0.4842  0.1269
15961TIP3    H169374   2.234   6.303  15.068 -0.2278  0.6253 -0.9844
15961TIP3    H269375   2.195   6.446  15.102 -0.5678 -0.0855  1.8707
15962TIP3   OH269376   1.199   3.448   0.532  0.0728  0.0385  0.2115
15962TIP3    H169377   1.239   3.531   0.558  2.1194 -0.4277 -1.1094
15962TIP3    H269378   1.126   3.473   0.476 -0.3051  0.9517  1.0906
15963TIP3   OH269379   5.229   6.461  14.857 -0.8470  0.0553  0.6183
15963TIP3    H169380   5.287   6.407  14.911 -2.3272 -0.4619  1.7803
15963TIP3    H269381   5.282   6.486  14.782  0.1521 -2.3917  0.4117
15964TIP3   OH269382   6.542   2.951  13.645 -0.2180 -0.7813  0.5905
15964TIP3    H169383   6.592   3.023  13.683 -0.3677  0.0320 -0.7006
15964TIP3    H269384   6.547   2.965  13.550 -1.7622 -1.4285  0.3753
15965TIP3   OH269385   0.385   4.950   1.330  0.3544 -0.0060  0.0529
15965TIP3    H169386   0.475   4.969   1.357  0.3639  0.1722 -0.0962
15965TIP3    H269387   0.359   5.028   1.280  1.0045 -1.0931 -2.1220
15966TIP3   OH269388   4.889   4.750   4.796  0.2614 -0.4886  0.0095
15966TIP3    H169389   4.859   4.766   4.886 -1.7119 -1.5461 -0.3963
15966TIP3    H269390   4.914   4.657   4.796  2.6816  0.0956  0.0453
15967TIP3   OH269391   2.674   6.225   2.913 -0.6826 -0.4681 -0.0204
15967TIP3    H169392   2.655   6.158   2.847  1.9310 -1.1328 -0.2065
15967TIP3    H269393   2.705   6.300   2.862  1.6754 -1.1004  0.3652
15968TIP3   OH269394   3.109   1.038  13.079 -0.2237  0.0586  0.0476
15968TIP3    H169395   3.175   1.079  13.024  0.1657  0.2028  0.6074
15968TIP3    H269396   3.143   0.951  13.097 -0.3714 -0.0046  0.0213
15969TIP3   OH269397   3.759   3.928  16.312 -0.4017  0.2411 -0.3027
15969TIP3    H169398   3.710   3.854  16.276 -1.0552  1.2949 -1.7050
15969TIP3    H269399   3.757   3.994  16.242  0.1360  1.5892  0.9006
15970TIP3   OH269400   3.937   1.883   4.231  0.0408 -0.2435  0.3255
15970TIP3    H169401   3.890   1.924   4.303 -0.4569  0.8547 -0.5876
15970TIP3    H269402   3.951   1.953   4.168  0.3555 -1.1966 -0.7102
15971TIP3   OH269403   3.899   0.135  11.136  0.5827 -0.7568  0.7916
15971TIP3    H169404   3.976   0.079  11.142 -0.2110 -2.1631 -1.0651
15971TIP3    H269405   3.866   0.121  11.047 -1.3281  0.4768  1.2367
15972TIP3   OH269406   2.387   0.421   5.422 -0.9474  0.0414 -0.7594
15972TIP3    H169407   2.418   0.336   5.390  1.7449  0.8923 -0.7347
15972TIP3    H269408   2.442   0.437   5.500 -2.3324  1.2301  0.0041
15973TIP3   OH269409   1.938   3.916   4.415  0.1769  0.5731 -0.4495
15973TIP3    H169410   1.866   3.889   4.472  1.4080 -1.7041  0.1522
15973TIP3    H269411   1.925   4.010   4.402 -3.6802  0.0235 -1.5660
15974TIP3   OH269412   2.434   3.846  11.953  0.1855 -0.0606 -0.2571
15974TIP3    H169413   2.391   3.903  11.889 -1.0900  0.1219  0.7200
15974TIP3    H269414   2.525   3.841  11.923 -0.0133  1.3002 -1.1824
15975TIP3   OH269415   6.252   6.328   3.285  0.0509  1.1377  0.3969
15975TIP3    H169416   6.260   6.398   3.220  0.0735  0.1816 -0.6481
15975TIP3    H269417   6.295   6.253   3.245 -2.8491 -0.4540  0.0365
15976TIP3   OH269418   6.422   1.819   3.423  0.6408  0.5161  0.0302
15976TIP3    H169419   6.361   1.806   3.496  0.1140  1.7043 -0.1791
15976TIP3    H269420   6.400   1.905   3.388 -0.4386 -0.7491 -2.7552
15977TIP3   OH269421   5.410   5.512  11.057  0.4866  0.1466  0.1135
15977TIP3    H169422   5.335   5.478  11.105  0.7686 -0.5120  0.0986
15977TIP3    H269423   5.485   5.465  11.093  0.6300 -0.8965 -1.4468
15978TIP3   OH269424   3.413   3.601   2.492  0.4946 -0.3726  0.1697
15978TIP3    H169425   3.471   3.635   2.560  0.2901  0.5624 -0.1170
15978TIP3    H269426   3.325   3.609   2.529  0.4476 -0.6959  0.1361
15979TIP3   OH269427   1.403   6.232  15.549  0.1539 -0.2499  0.6267
15979TIP3    H169428   1.439   6.176  15.619  0.6882  0.8122  1.2186
15979TIP3    H269429   1.308   6.222  15.557  0.2445 -1.8283  0.0867
15980TIP3   OH269430   3.186   5.471   5.436  0.1710  0.2150  0.0779
15980TIP3    H169431   3.180   5.567   5.432  1.7935  0.3123 -0.9738
15980TIP3    H269432   3.198   5.452   5.529 -1.2551  0.9253  0.4322
15981TIP3   OH269433   4.593   4.941   2.638  0.6201  0.4342 -0.2405
15981TIP3    H169434   4.537   4.967   2.711 -0.5793  0.0552 -1.0014
15981TIP3    H269435   4.532   4.912   2.570  1.6857  1.1503 -1.5521
15982TIP3   OH269436   1.372   6.127  14.737  0.0819  0.2965  0.2975
15982TIP3    H169437   1.371   6.074  14.816 -0.0340 -0.1809 -0.0172
15982TIP3    H269438   1.463   6.127  14.708 -0.0117 -0.2269 -0.0211
15983TIP3   OH269439   6.850   0.936   0.957 -0.7575  0.2186  0.3687
15983TIP3    H169440   6.899   0.923   1.038  0.4347  1.1068 -0.1920
15983TIP3    H269441   6.813   0.850   0.938 -1.0937 -0.0059  1.8638
15984TIP3   OH269442   6.616   2.395  11.658  0.2313 -0.3364  0.4524
15984TIP3    H169443   6.531   2.398  11.614  1.2565  1.1583 -1.5952
15984TIP3    H269444   6.600   2.437  11.743 -0.8238  1.2569 -0.4691
15985TIP3   OH269445   3.964   3.465   5.655  0.2054 -0.1608 -0.3106
15985TIP3    H169446   3.906   3.409   5.604 -1.1443  3.1425 -2.8529
15985TIP3    H269447   3.909   3.500   5.725  0.5789 -0.7829  0.2980
15986TIP3   OH269448   6.831   1.928  14.955  0.7929 -0.1035  0.0397
15986TIP3    H169449   6.807   1.944  14.864  0.9216 -1.4403 -0.2443
15986TIP3    H269450   6.890   2.001  14.978 -1.5885  1.9342  0.0410
15987TIP3   OH269451   2.071   2.846   5.046  0.0896 -0.1246 -0.5285
15987TIP3    H169452   2.158   2.837   5.086 -0.2676  1.9520  0.8370
15987TIP3    H269453   2.080   2.802   4.961  2.6954  0.5997 -0.7247
15988TIP3   OH269454   1.595   1.576  11.983  0.3272  0.2858  0.2201
15988TIP3    H169455   1.633   1.601  12.067 -0.3751  1.2190  0.2799
15988TIP3    H269456   1.607   1.653  11.928  1.7115 -0.6824 -0.8789
15989TIP3   OH269457   6.492   4.999  16.665 -0.2418  0.4812 -0.3237
15989TIP3    H169458   6.578   5.040  16.675  0.4203 -0.6251 -1.3110
15989TIP3    H269459   6.460   4.988  16.755  0.1751  1.8337  0.0166
15990TIP3   OH269460   3.482   4.931   3.388  0.5522  0.2565  0.3086
15990TIP3    H169461   3.567   4.921   3.345  0.9816  2.9372  0.3690
15990TIP3    H269462   3.503   4.942   3.480 -0.0364 -0.7618  0.5875
15991TIP3   OH269463   3.683   1.189   3.069 -0.0906  0.4968  0.3764
15991TIP3    H169464   3.589   1.204   3.060 -0.0820 -0.0609 -0.9643
15991TIP3    H269465   3.720   1.275   3.091 -0.8916  0.7325  0.8231
15992TIP3   OH269466   5.803   6.080   5.216 -0.7254 -0.0479 -0.2948
15992TIP3    H169467   5.868   6.052   5.152 -0.1472  1.7879 -0.5555
15992TIP3    H269468   5.839   6.053   5.300 -0.0213  0.2051 -0.5062
15993TIP3   OH269469   2.641   2.704   2.403 -0.2436 -0.0199  0.0886
15993TIP3    H169470   2.702   2.630   2.408  0.5742  0.3313 -2.8228
15993TIP3    H269471   2.576   2.677   2.339 -1.8254  0.5841  1.3613
15994TIP3   OH269472   3.477   6.585   4.860 -0.1463  0.1753  0.2483
15994TIP3    H169473   3.470   6.649   4.931  0.3489 -0.2609  0.7051
15994TIP3    H269474   3.505   6.504   4.904  1.0854  0.1326 -0.5696
15995TIP3   OH269475   6.338   3.692  15.859 -0.1591  0.0593 -0.3282
15995TIP3    H169476   6.289   3.615  15.886 -0.4401 -0.0917 -1.2479
15995TIP3    H269477   6.422   3.658  15.829  0.3335  0.2705  0.7530
15996TIP3   OH269478   6.509   3.311  13.038  0.1540  0.2450  0.1577
15996TIP3    H169479   6.452   3.239  13.067  1.8073 -1.0013  0.4318
15996TIP3    H269480   6.593   3.270  13.019  0.8241  1.9495 -0.8160
15997TIP3   OH269481   6.546   6.164   3.418  0.1805  0.2976 -0.3630
15997TIP3    H169482   6.523   6.094   3.357 -0.7936  0.3155 -0.0365
15997TIP3    H269483   6.591   6.229   3.364 -0.4789  0.2132 -1.0289
15998TIP3   OH269484   3.739   5.955   5.826  0.3886 -0.2293 -0.4946
15998TIP3    H169485   3.736   6.051   5.826 -0.8752 -0.2145  1.4518
15998TIP3    H269486   3.783   5.932   5.908 -2.1626 -1.2555  0.7153
15999TIP3   OH269487   3.779   5.303  13.692 -0.1274  0.6098  0.0761
15999TIP3    H169488   3.827   5.385  13.703  0.7724  0.1835 -0.5998
15999TIP3    H269489   3.779   5.287  13.597  1.9756 -1.4780  0.3492
16000TIP3   OH269490   5.833   1.615  11.554  0.2064 -0.0222 -0.3622
16000TIP3    H169491   5.804   1.554  11.623  0.8279 -1.3169 -1.2070
16000TIP3    H269492   5.877   1.685  11.602  0.5390 -0.8484  0.5839
16001TIP3   OH269493   6.062   2.432   1.579  0.5388  0.7806  0.0847
16001TIP3    H169494   6.144   2.480   1.576  0.7505  0.4450  0.3560
16001TIP3    H269495   6.085   2.348   1.620  0.0625  0.6889  0.1708
16002TIP3   OH269496   6.620   5.336  12.616 -0.2491  0.5978  0.1874
16002TIP3    H169497   6.621   5.404  12.683 -1.5539 -0.2380  1.1163
16002TIP3    H269498   6.673   5.371  12.545 -1.4280  2.8904  0.3294
16003TIP3   OH269499   4.005   1.649   4.814 -0.0151 -0.3216 -0.1922
16003TIP3    H169500   3.933   1.678   4.758 -0.5621  1.4392  1.3202
16003TIP3    H269501   4.023   1.724   4.871  2.2550 -1.1247  0.2570
16004TIP3   OH269502   0.911   1.699   4.152 -0.4154  0.3879 -0.1677
16004TIP3    H169503   0.965   1.621   4.139  1.3344  1.8927 -2.7959
16004TIP3    H269504   0.972   1.765   4.184 -1.1229  1.5685 -1.1724
16005TIP3   OH269505   6.796   4.987  14.811  0.1274 -0.7729  0.0010
16005TIP3    H169506   6.848   5.012  14.887 -1.2479 -2.5165  1.6220
16005TIP3    H269507   6.803   4.891  14.807  0.4220 -0.7088 -2.2984
16006TIP3   OH269508   1.159   3.068   5.507  0.4166 -0.2750 -0.2573
16006TIP3    H169509   1.170   3.058   5.602 -2.4958  0.8954  0.3143
16006TIP3    H269510   1.203   3.150   5.486  0.7543 -0.3481  0.1507
16007TIP3   OH269511   4.510   1.341   4.988  0.0841 -0.1427 -0.1799
16007TIP3    H169512   4.458   1.303   5.058  0.6561  1.1502  1.0057
16007TIP3    H269513   4.601   1.319   5.010  0.2942  0.5423 -0.3346
16008TIP3   OH269514   2.436   0.615  16.045  0.4053  0.1685 -0.3373
16008TIP3    H169515   2.496   0.651  15.980  1.3888 -0.4955  0.1907
16008TIP3    H269516   2.491   0.567  16.106 -0.6062 -0.0232  0.4611
16009TIP3   OH269517   1.461   1.836   5.059 -0.2595  0.2329  0.7298
16009TIP3    H169518   1.550   1.869   5.046 -0.1473 -0.0896  0.6505
16009TIP3    H269519   1.405   1.913   5.053  0.1076  0.6107  1.8959
16010TIP3   OH269520   2.719   5.732  13.227 -0.1225 -0.5820 -0.0400
16010TIP3    H169521   2.631   5.732  13.263 -0.6708  0.1657 -1.3192
16010TIP3    H269522   2.707   5.729  13.132  1.2747 -2.7673 -0.2328
16011TIP3   OH269523   0.117   2.236   4.468 -0.0072  0.0508  0.2010
16011TIP3    H169524   0.086   2.159   4.420 -1.2143  0.7091 -0.0852
16011TIP3    H269525   0.066   2.309   4.434  1.2338  1.0269  0.3608
16012TIP3   OH269526   3.697   4.730   1.254  0.9937  0.3089 -0.4064
16012TIP3    H169527   3.638   4.805   1.255  0.1714 -0.3035 -1.1778
16012TIP3    H269528   3.765   4.752   1.317  1.9070  2.6114 -2.0910
16013TIP3   OH269529   4.195   3.256  16.007  0.6178 -0.0093  0.4397
16013TIP3    H169530   4.285   3.260  15.975  0.2194 -0.8035 -0.8940
16013TIP3    H269531   4.174   3.162  16.006 -0.0929  0.1378  1.1027
16014TIP3   OH269532   6.598   6.660  16.350  0.3922 -0.0877 -0.5319
16014TIP3    H169533   6.628   6.749  16.329 -0.1579  0.3638  0.5309
16014TIP3    H269534   6.505   6.670  16.368  0.7476 -0.4685  1.7575
16015TIP3   OH269535   0.160   1.004   0.728 -0.4353 -0.4594  0.5851
16015TIP3    H169536   0.071   0.993   0.761 -0.4658 -0.4181  0.5178
16015TIP3    H269537   0.193   1.081   0.775 -1.4021  1.2414 -1.3738
16016TIP3   OH269538   5.458   3.574  15.388 -0.0981 -1.0169  0.2392
16016TIP3    H169539   5.483   3.661  15.357  1.3005 -1.1993  0.7819
16016TIP3    H269540   5.504   3.513  15.330 -0.5200 -1.3802  0.2824
16017TIP3   OH269541   1.212   5.612  15.116  0.2340  0.1370  0.3047
16017TIP3    H169542   1.117   5.613  15.112  0.2661 -0.5211 -1.1886
16017TIP3    H269543   1.236   5.700  15.145 -0.8131  0.3909  0.4185
16018TIP3   OH269544   4.086   4.091  15.503  0.0171  0.3042 -0.6614
16018TIP3    H169545   4.115   4.161  15.562 -0.8746  0.5833 -0.5418
16018TIP3    H269546   4.137   4.103  15.423  2.4494 -1.0334  0.5528
16019TIP3   OH269547   3.218   4.175  11.559  0.4643  0.0801 -0.6061
16019TIP3    H169548   3.265   4.105  11.514  0.3829  0.0193 -0.5953
16019TIP3    H269549   3.212   4.246  11.494  2.1517  0.7830 -0.0453
16020TIP3   OH269550   5.370   2.063   0.636  0.4749  0.0719 -0.2122
16020TIP3    H169551   5.381   2.086   0.544 -0.0012  0.4075 -0.1891
16020TIP3    H269552   5.455   2.029   0.663  1.1338  1.5807 -0.3081
16021TIP3   OH269553   0.678   0.127  16.825 -0.4957  0.3072  0.5340
16021TIP3    H169554   0.762   0.137  16.871 -0.4290 -1.3315  0.8388
16021TIP3    H269555   0.640   0.047  16.862 -1.6492  0.3751 -0.4425
16022TIP3   OH269556   2.785   1.866  15.218  0.2743  1.0653  0.2369
16022TIP3    H169557   2.859   1.925  15.202 -0.0606  1.7036  1.0217
16022TIP3    H269558   2.716   1.899  15.161  0.7237  0.1828 -0.8538
16023TIP3   OH269559   0.963   3.193  12.669  0.5854  0.1604  0.0058
16023TIP3    H169560   0.991   3.263  12.728  0.9821 -0.4575  0.5541
16023TIP3    H269561   1.004   3.114  12.703 -0.1399 -0.4063 -0.4030
16024TIP3   OH269562   1.496   1.827  16.768  0.2541 -0.5678  0.0180
16024TIP3    H169563   1.459   1.911  16.741 -3.9671 -1.8726  1.1177
16024TIP3    H269564   1.516   1.838  16.861 -2.6879 -1.3696  0.8307
16025TIP3   OH269565   0.860   6.252   1.342  0.0974  0.2473  0.3167
16025TIP3    H169566   0.947   6.283   1.368  0.3593 -0.5444  0.4190
16025TIP3    H269567   0.862   6.158   1.360 -0.9386  0.2936  0.7424
16026TIP3   OH269568   5.678   0.170   4.234 -0.1059  0.6263 -0.1096
16026TIP3    H169569   5.624   0.183   4.312  0.7976  0.8302  0.4920
16026TIP3    H269570   5.765   0.201   4.259  0.2987  0.3047 -1.0654
16027TIP3   OH269571   0.654   1.355   5.216  0.1856  0.3090 -0.9045
16027TIP3    H169572   0.626   1.441   5.184  1.1585  0.5086 -1.2386
16027TIP3    H269573   0.629   1.355   5.309  1.3838  1.4901 -0.5508
16028TIP3   OH269574   5.660   5.674   1.791 -0.8924  0.3938 -0.2177
16028TIP3    H169575   5.679   5.670   1.885  1.2767 -1.2792 -0.6554
16028TIP3    H269576   5.745   5.690   1.750 -0.7563 -3.8786 -2.1341
16029TIP3   OH269577   4.992   0.460   3.480  0.4088 -0.5331  0.1305
16029TIP3    H169578   5.050   0.489   3.410  1.2955  1.5400  1.6354
16029TIP3    H269579   5.007   0.522   3.551  0.9801 -3.5682  2.9207
16030TIP3   OH269580   6.711   2.409   3.397 -0.6805 -0.3054  0.2546
16030TIP3    H169581   6.648   2.480   3.412 -1.7785 -1.5091  1.6526
16030TIP3    H269582   6.776   2.421   3.466  0.7884  1.0325 -1.2867
16031TIP3   OH269583   2.032   5.532   4.487  0.5736  0.2289 -0.2033
16031TIP3    H169584   1.960   5.586   4.520  1.7120  1.5505  0.2123
16031TIP3    H269585   2.111   5.579   4.512  1.5991 -1.0692 -0.8499
16032TIP3   OH269586   3.998   0.298   1.551  0.0976 -0.1526  0.0239
16032TIP3    H169587   4.001   0.340   1.465 -0.3633  2.0283  1.0073
16032TIP3    H269588   4.087   0.267   1.566  0.4497  0.4596 -0.7589
16033TIP3   OH269589   6.497   4.819   6.220 -0.1949  0.6146  0.0049
16033TIP3    H169590   6.536   4.856   6.141  2.0869 -0.0289  0.7547
16033TIP3    H269591   6.555   4.748   6.245 -0.3206  1.3401  2.7322
16034TIP3   OH269592   1.970   1.375  11.707 -0.0761  0.5197 -0.1036
16034TIP3    H169593   1.977   1.423  11.790 -0.9817  0.9760 -0.2873
16034TIP3    H269594   1.902   1.421  11.658  0.1495 -0.0120 -0.9289
16035TIP3   OH269595   5.937   0.708  11.345 -0.1616  0.3386 -0.1216
16035TIP3    H169596   5.937   0.733  11.252 -0.4939  2.1176  0.3238
16035TIP3    H269597   5.844   0.702  11.367 -0.0854 -0.6024 -0.0127
16036TIP3   OH269598   0.395   4.578  14.919  0.5066  0.4360  0.3050
16036TIP3    H169599   0.300   4.565  14.913  0.5936  0.0235 -0.3703
16036TIP3    H269600   0.414   4.574  15.013 -0.1442  0.5215  0.4447
16037TIP3   OH269601   3.486   3.186   5.561 -0.7199  0.0966 -0.1824
16037TIP3    H169602   3.414   3.240   5.593 -0.8857  0.7660 -1.6437
16037TIP3    H269603   3.460   3.158   5.474 -0.8772 -2.8493  0.6857
16038TIP3   OH269604   6.415   1.299  14.880 -0.1439  0.6528 -0.2400
16038TIP3    H169605   6.451   1.237  14.816  0.9216  0.2093  0.7441
16038TIP3    H269606   6.406   1.381  14.832 -1.3796 -0.1853 -1.5225
16039TIP3   OH269607   1.472   2.779   1.463  0.2161 -0.2621  0.4171
16039TIP3    H169608   1.410   2.804   1.394  0.1183  1.6979  1.1725
16039TIP3    H269609   1.558   2.788   1.422  0.0969 -3.1123 -0.6741
16040TIP3   OH269610   4.741   5.671   3.240  0.2612 -0.4844  0.2604
16040TIP3    H169611   4.816   5.725   3.264 -1.5576  2.0667  0.5634
16040TIP3    H269612   4.721   5.622   3.320  0.5419  0.1490  0.7301
16041TIP3   OH269613   3.222   0.265   5.558  0.1189  0.1621 -0.4762
16041TIP3    H169614   3.269   0.191   5.519  1.8245  0.3793  1.0242
16041TIP3    H269615   3.195   0.234   5.644 -0.8251  0.6969 -0.5608
16042TIP3   OH269616   2.342   5.318   4.459 -0.1500  0.0741  0.0557
16042TIP3    H169617   2.352   5.398   4.408 -1.5033 -0.4067 -1.0482
16042TIP3    H269618   2.431   5.291   4.480  0.4399  0.6379 -1.5419
16043TIP3   OH269619   6.424   5.217  10.955  0.3328  0.7601  0.5201
16043TIP3    H169620   6.397   5.274  10.884 -1.2395 -0.8956 -0.2903
16043TIP3    H269621   6.373   5.137  10.942 -0.4562  0.5750  3.8171
16044TIP3   OH269622   0.825   3.599  16.798  0.4032  0.5731  0.0328
16044TIP3    H169623   0.742   3.579  16.841  0.4161  0.3788 -0.0316
16044TIP3    H269624   0.887   3.614  16.869  0.5830 -0.3962  0.0881
16045TIP3   OH269625   4.235   5.615  13.569  0.0234  0.2773 -0.0604
16045TIP3    H169626   4.200   5.619  13.658 -0.3207  0.8105 -0.2119
16045TIP3    H269627   4.311   5.673  13.570 -1.1513  1.9092 -0.6060
16046TIP3   OH269628   3.176   4.091  15.829 -0.6728  0.0788  0.0103
16046TIP3    H169629   3.252   4.087  15.887 -0.2334 -0.3206 -0.5760
16046TIP3    H269630   3.131   4.172  15.853  1.5334  1.8843 -1.5896
16047TIP3   OH269631   3.408   4.910  15.379 -0.4966  0.0573 -0.0548
16047TIP3    H169632   3.360   4.866  15.308 -0.9463 -1.9627  1.3857
16047TIP3    H269633   3.342   4.922  15.448 -0.1292  2.2059 -0.0139
16048TIP3   OH269634   2.416   1.602  10.810 -0.0604 -0.0523  0.3617
16048TIP3    H169635   2.447   1.622  10.722 -0.4620 -2.2436 -0.3507
16048TIP3    H269636   2.414   1.686  10.855 -1.5815  1.4430 -2.2762
16049TIP3   OH269637   6.832   6.514  15.009  0.7704 -0.0477 -0.0646
16049TIP3    H169638   6.782   6.575  15.064  0.3822  0.7633 -1.2836
16049TIP3    H269639   6.916   6.558  14.995  0.2196  0.5951 -1.5592
16050TIP3   OH269640   1.899   3.727   4.728 -0.4376  0.3853  0.2029
16050TIP3    H169641   1.879   3.821   4.731  0.0149  0.4955 -0.0814
16050TIP3    H269642   1.821   3.685   4.764 -0.5417  0.8866  0.5925
16051TIP3   OH269643   0.955   2.313   6.510 -0.3241 -0.1691 -0.3816
16051TIP3    H169644   1.008   2.388   6.487 -0.1918  0.8570  2.8023
16051TIP3    H269645   0.890   2.347   6.571  0.6265 -2.7745  2.3294
16052TIP3   OH269646   2.340   4.410   5.678 -0.0427 -0.3614  0.0391
16052TIP3    H169647   2.314   4.465   5.604  2.0674  0.0399 -0.4722
16052TIP3    H269648   2.391   4.468   5.734  0.6439 -1.3294  0.4441
16053TIP3   OH269649   6.079   2.793   2.896  0.4560 -0.1675  0.3037
16053TIP3    H169650   6.046   2.840   2.819 -0.4017 -0.2574  0.6081
16053TIP3    H269651   6.089   2.702   2.865 -0.3526 -0.3042  0.4206
16054TIP3   OH269652   6.733   1.253   3.468 -0.6270 -0.6788  0.0031
16054TIP3    H169653   6.640   1.272   3.479 -1.1106 -3.2791  1.1246
16054TIP3    H269654   6.777   1.304   3.536 -1.4832 -0.9179  0.7595
16055TIP3   OH269655   2.884   6.223  14.514  0.3852  0.0605  0.0780
16055TIP3    H169656   2.966   6.181  14.539  2.2823  1.8479 -2.6262
16055TIP3    H269657   2.884   6.221  14.418 -1.8599  1.7225 -0.0293
16056TIP3   OH269658   4.679   3.259   2.413  0.5378  0.0680  0.5160
16056TIP3    H169659   4.644   3.279   2.500  1.1182 -0.2874  0.8406
16056TIP3    H269660   4.636   3.176   2.390 -0.0826  0.4746  0.1923
16057TIP3   OH269661   0.041   0.755  11.200 -0.0434  0.3468 -0.1343
16057TIP3    H169662  -0.011   0.674  11.208  1.0704 -0.3538  0.2158
16057TIP3    H269663   0.107   0.748  11.268  1.5433  0.4285 -1.6052
16058TIP3   OH269664   6.622   3.751   1.601  0.4095  0.4417 -0.0254
16058TIP3    H169665   6.699   3.744   1.658 -0.1292 -0.4669  0.6271
16058TIP3    H269666   6.636   3.832   1.552  1.4336  0.6658  0.5897
16059TIP3   OH269667   5.626   0.904  12.380 -0.5411  0.9522  0.6430
16059TIP3    H169668   5.703   0.862  12.418 -0.1207  0.9962 -0.1599
16059TIP3    H269669   5.561   0.833  12.373  0.5456  0.1031 -1.7964
16060TIP3   OH269670   4.211   2.626  15.580  0.1521  0.3457  0.0763
16060TIP3    H169671   4.257   2.581  15.509 -0.1210 -0.7033  0.5438
16060TIP3    H269672   4.225   2.719  15.563  0.2208  0.1079 -1.2606
16061TIP3   OH269673   6.182   3.640  12.897 -0.1684  0.1782 -0.5164
16061TIP3    H169674   6.123   3.609  12.966  0.2067  2.5763  0.9734
16061TIP3    H269675   6.247   3.570  12.888 -1.3174 -1.0325  0.1382
16062TIP3   OH269676   2.914   2.156   3.068 -0.4895  0.0912 -0.2827
16062TIP3    H169677   2.983   2.093   3.050 -0.1638  0.3170  0.1650
16062TIP3    H269678   2.897   2.148   3.162 -1.1644 -0.0586 -0.4144
16063TIP3   OH269679   2.507   6.399   0.397  0.2083 -0.3510 -0.3349
16063TIP3    H169680   2.588   6.349   0.405  0.8007  0.7514  1.0005
16063TIP3    H269681   2.453   6.370   0.471  0.1103  0.1823 -0.1930
16064TIP3   OH269682   3.902   0.896  12.080  0.0643  0.2067  0.0675
16064TIP3    H169683   3.977   0.899  12.020 -0.5579 -1.2854 -0.8539
16064TIP3    H269684   3.849   0.972  12.056  1.9054  2.1046  1.6758
16065TIP3   OH269685   0.242   1.515  13.352  0.6357  0.0665 -0.4141
16065TIP3    H169686   0.329   1.523  13.312  1.1103 -0.2903  0.5032
16065TIP3    H269687   0.198   1.449  13.300  1.0008  0.0930 -0.7617
16066TIP3   OH269688   3.988   1.243   2.108 -0.5387  0.6860 -0.3898
16066TIP3    H169689   4.005   1.215   2.198 -1.6760  0.0571 -0.3623
16066TIP3    H269690   3.899   1.277   2.109 -0.4758  0.9062 -1.2300
16067TIP3   OH269691   0.347   0.893   5.357  0.1554  0.4326  0.0953
16067TIP3    H169692   0.425   0.846   5.386  0.9235  1.7124  0.1399
16067TIP3    H269693   0.373   0.985   5.352 -1.4331  0.9532  0.4534
16068TIP3   OH269694   6.779   5.651   1.036  0.0032 -0.0948 -0.5743
16068TIP3    H169695   6.724   5.646   1.114  0.6374 -1.0811 -0.1756
16068TIP3    H269696   6.859   5.605   1.061  1.0044  1.2950 -1.1515
16069TIP3   OH269697   5.783   5.492   0.050 -0.1004  0.7524 -0.1455
16069TIP3    H169698   5.719   5.529  -0.010 -2.4429 -1.8540  0.5096
16069TIP3    H269699   5.858   5.469  -0.005 -2.1010 -1.4276 -2.2211
16070TIP3   OH269700   1.659   4.920  13.937 -0.3822 -0.0780  0.2060
16070TIP3    H169701   1.641   4.831  13.968 -0.9329  0.5522  1.8498
16070TIP3    H269702   1.754   4.926  13.935 -0.3371 -0.4435  0.9417
16071TIP3   OH269703   0.943   0.540  15.158  0.0804  0.3846 -0.5475
16071TIP3    H169704   0.893   0.591  15.095 -1.1464 -0.3643 -0.2085
16071TIP3    H269705   0.912   0.571  15.244 -0.9271 -1.1020 -0.3325
16072TIP3   OH269706   1.437   1.681   3.631  0.3251  0.6640  0.2590
16072TIP3    H169707   1.413   1.589   3.643  3.4320 -0.1383  1.4858
16072TIP3    H269708   1.354   1.728   3.626 -1.3862 -2.1939 -0.5848
16073TIP3   OH269709   4.253   0.074  12.133  0.3375 -0.3116 -0.5817
16073TIP3    H169710   4.236   0.019  12.057  0.4103 -2.1689  0.6801
16073TIP3    H269711   4.307   0.146  12.100  0.4801 -1.1533 -2.2373
16074TIP3   OH269712   4.741   6.217  10.855  0.6098 -0.1754 -0.0154
16074TIP3    H169713   4.820   6.210  10.801  0.4002  0.5634 -0.4287
16074TIP3    H269714   4.673   6.247  10.794  0.1976 -0.0458  0.5040
16075TIP3   OH269715   2.285   0.240   2.319  0.5444  0.1238  0.0297
16075TIP3    H169716   2.197   0.244   2.280 -0.0047  1.2741  1.3382
16075TIP3    H269717   2.321   0.157   2.286 -0.8089 -0.1168 -0.9552
16076TIP3   OH269718   6.503   1.202  15.981  0.3478  0.0941 -0.9737
16076TIP3    H169719   6.590   1.169  16.002  0.5336  1.2075  0.1270
16076TIP3    H269720   6.456   1.126  15.946  1.3047 -0.8800 -0.2069
16077TIP3   OH269721   3.789   2.512  11.110 -0.5593  0.4423 -0.0444
16077TIP3    H169722   3.860   2.453  11.136 -1.3691 -0.8461 -0.6736
16077TIP3    H269723   3.792   2.514  11.015 -2.4595 -1.0688 -0.1885
16078TIP3   OH269724   4.394   4.644  15.275  0.0545 -0.4056 -0.6862
16078TIP3    H169725   4.471   4.649  15.331  1.0736 -1.3782 -1.9248
16078TIP3    H269726   4.322   4.677  15.329  1.4817  1.4538  0.1851
16079TIP3   OH269727   3.604   3.997  14.733 -0.3029  0.1729 -0.2335
16079TIP3    H169728   3.671   4.045  14.685 -0.5652  1.5235  0.7009
16079TIP3    H269729   3.536   4.062  14.751 -1.6435 -1.0330 -0.7077
16080TIP3   OH269730   0.453   6.580   2.056 -0.1738  0.2859 -0.4235
16080TIP3    H169731   0.396   6.509   2.086 -0.8761  0.3076 -1.6107
16080TIP3    H269732   0.434   6.587   1.962  0.7688  1.2469 -0.5628
16081TIP3   OH269733   1.653   4.138   5.294 -0.1288  0.2413 -0.3293
16081TIP3    H169734   1.674   4.094   5.376 -0.9412 -0.2870 -0.3968
16081TIP3    H269735   1.728   4.122   5.237  0.3849  0.5164  0.2715
16082TIP3   OH269736   2.023   3.159   6.136 -0.1072 -0.3946 -0.1280
16082TIP3    H169737   1.988   3.245   6.110 -1.6527 -0.5755  1.2251
16082TIP3    H269738   1.966   3.130   6.207  2.1854 -1.2203  1.5056
16083TIP3   OH269739   5.252   4.079  16.373 -0.2635 -0.2169  0.1406
16083TIP3    H169740   5.161   4.066  16.400 -0.9038  1.0878 -1.2236
16083TIP3    H269741   5.300   4.092  16.454 -1.4382 -0.0931  0.8334
16084TIP3   OH269742   0.109   4.331  10.430 -0.8568 -0.6000 -0.1484
16084TIP3    H169743   0.084   4.405  10.375 -1.7356 -0.2864  0.6390
16084TIP3    H269744   0.046   4.262  10.408  1.2021 -1.9112 -2.3903
16085TIP3   OH269745   1.064   6.835   3.073 -0.0440 -0.4511  0.0133
16085TIP3    H169746   1.061   6.882   2.990  0.1214  0.4901  0.5228
16085TIP3    H269747   0.976   6.801   3.085  0.2307 -1.6637 -1.1259
16086TIP3   OH269748   6.861   3.794  15.018  0.3298  0.8190  0.2580
16086TIP3    H169749   6.918   3.717  15.009  0.2930  0.9135 -0.9911
16086TIP3    H269750   6.922   3.867  15.033  0.5168  0.8288 -0.4903
16087TIP3   OH269751   6.294   3.032   1.673 -0.3011  0.0967 -0.1553
16087TIP3    H169752   6.301   2.957   1.733 -1.0863 -1.0221 -1.4286
16087TIP3    H269753   6.384   3.044   1.641 -0.4336 -1.3895 -1.1950
16088TIP3   OH269754   5.297   1.110   0.776  0.1271 -0.5536 -0.5634
16088TIP3    H169755   5.233   1.102   0.705 -3.8450  0.0480  2.5633
16088TIP3    H269756   5.323   1.202   0.774 -2.2762  0.2393  0.3442
16089TIP3   OH269757   5.751   6.068   3.926 -0.0017 -0.0129 -0.0508
16089TIP3    H169758   5.720   6.159   3.918  0.4307  0.2998  1.5342
16089TIP3    H269759   5.841   6.071   3.893  0.0199  0.1410  0.0202
16090TIP3   OH269760   1.566   6.308  15.348 -0.2579  0.1007 -0.4907
16090TIP3    H169761   1.496   6.299  15.413 -0.4253  2.0400 -0.3671
16090TIP3    H269762   1.527   6.277  15.267 -0.5566 -0.8161 -0.0238
16091TIP3   OH269763   5.228   0.266  10.419  0.5101 -0.1156 -0.6492
16091TIP3    H169764   5.240   0.202  10.349  0.6159 -0.6955 -0.1064
16091TIP3    H269765   5.309   0.262  10.470 -0.2265 -0.9810  0.5286
16092TIP3   OH269766   5.513   4.809   2.293 -0.5667 -0.7968  0.1720
16092TIP3    H169767   5.579   4.835   2.229  0.3224 -0.2749  1.2659
16092TIP3    H269768   5.470   4.734   2.254  0.0532 -0.5779 -0.9698
16093TIP3   OH269769   4.013   4.401  11.642  0.8773 -0.1027  0.0104
16093TIP3    H169770   3.936   4.408  11.586  0.9697  0.1353 -0.0851
16093TIP3    H269771   3.996   4.323  11.695  0.4282  0.1319  0.2146
16094TIP3   OH269772   1.982   0.565   4.431 -0.5863 -0.5713  0.0732
16094TIP3    H169773   2.062   0.618   4.421 -0.3801 -1.2066 -2.3076
16094TIP3    H269774   1.911   0.626   4.410 -0.5465 -0.5667 -0.0523
16095TIP3   OH269775   3.318   3.212   4.642 -0.1893 -0.2470  0.2420
16095TIP3    H169776   3.265   3.208   4.562 -0.0976 -0.9652  0.2083
16095TIP3    H269777   3.408   3.220   4.611 -0.2030  0.1018  0.2865
16096TIP3   OH269778   2.961   3.576  15.343  0.1317 -0.6289 -0.3144
16096TIP3    H169779   3.029   3.567  15.410  0.6625  0.6588 -0.6409
16096TIP3    H269780   2.881   3.543  15.385  0.1528  1.3368  1.4877
16097TIP3   OH269781   3.608   6.598  13.888  0.3944 -0.0811 -0.0349
16097TIP3    H169782   3.622   6.519  13.940 -2.0075 -1.7063 -1.6721
16097TIP3    H269783   3.676   6.596  13.821  1.3582  0.1881  0.9038
16098TIP3   OH269784   2.291   2.999  16.493  0.4919  0.5344  0.3193
16098TIP3    H169785   2.239   2.996  16.413  0.1668 -0.0142  0.5487
16098TIP3    H269786   2.379   2.973  16.465  0.8515  2.1767 -0.2107
16099TIP3   OH269787   0.795   4.687   3.580  0.5606 -0.2308  0.0780
16099TIP3    H169788   0.822   4.770   3.620  1.5408 -0.6318  0.2713
16099TIP3    H269789   0.834   4.620   3.634  0.8678 -0.8063 -0.8311
16100TIP3   OH269790   4.316   5.414   1.987 -0.1323 -0.2403  0.3161
16100TIP3    H169791   4.232   5.391   2.027 -0.0031 -2.1065 -0.3757
16100TIP3    H269792   4.349   5.487   2.040 -1.0025 -1.1433  2.2028
16101TIP3   OH269793   2.091   2.689   3.700  0.3562  0.0770 -0.5602
16101TIP3    H169794   2.112   2.596   3.696 -0.7874 -0.1638 -3.4176
16101TIP3    H269795   2.016   2.695   3.758 -0.0018 -0.9010 -0.9062
16102TIP3   OH269796   2.188   2.321   0.136 -0.4417 -0.4964  0.0802
16102TIP3    H169797   2.109   2.375   0.126  0.3439  0.5270 -1.0451
16102TIP3    H269798   2.156   2.234   0.157 -1.7659  0.4111  2.0721
16103TIP3   OH269799   2.066   5.586   2.809  0.5540  0.6511 -0.3694
16103TIP3    H169800   2.015   5.526   2.755 -0.2447  1.0346 -0.0595
16103TIP3    H269801   2.149   5.594   2.763  0.6792 -0.6889 -0.4159
16104TIP3   OH269802   0.182   5.743  13.261  0.1969  0.1703  0.0832
16104TIP3    H169803   0.184   5.837  13.243 -1.9741  0.7309  2.1844
16104TIP3    H269804   0.121   5.708  13.196  1.1689  0.1374 -0.8368
16105TIP3   OH269805   0.634   2.086   2.661  0.0838  0.0908  0.0226
16105TIP3    H169806   0.580   2.034   2.720 -2.0592  3.0324  0.8795
16105TIP3    H269807   0.600   2.066   2.573  0.8408 -1.5713  0.0742
16106TIP3   OH269808   6.686   1.871  16.968 -0.1190  0.1286 -0.5894
16106TIP3    H169809   6.681   1.803  17.035 -1.0622 -2.1559 -2.8335
16106TIP3    H269810   6.770   1.914  16.984 -1.1367  1.1256  3.2489
16107TIP3   OH269811   6.640   5.322   0.571  0.2806  0.3657  0.3838
16107TIP3    H169812   6.666   5.358   0.656  1.3987 -0.7813  0.5642
16107TIP3    H269813   6.551   5.289   0.586  1.4063 -2.2537  1.9533
16108TIP3   OH269814   3.087   0.634  16.225  0.7962  0.1218 -0.0007
16108TIP3    H169815   3.111   0.691  16.299  2.3563 -1.5211  0.8532
16108TIP3    H269816   3.156   0.649  16.161 -0.4140  1.3411 -1.0845
16109TIP3   OH269817   0.579   3.832  13.283  0.4902 -0.0708 -0.2189
16109TIP3    H169818   0.615   3.807  13.198  0.9975  0.2791 -0.1155
16109TIP3    H269819   0.601   3.925  13.292 -0.6491  0.2146 -0.2455
16110TIP3   OH269820   0.060   4.555  15.820  0.1616 -0.4330  0.0630
16110TIP3    H169821   0.013   4.478  15.851 -2.5785  0.7070 -0.9532
16110TIP3    H269822   0.072   4.541  15.727  1.9762 -0.7211  0.3121
16111TIP3   OH269823   1.012   3.532   0.372 -0.1596 -0.3924  0.4527
16111TIP3    H169824   1.011   3.613   0.320  1.9831 -0.4019  0.3241
16111TIP3    H269825   0.933   3.485   0.344 -1.5174  1.6589  0.6105
16112TIP3   OH269826   4.183   5.573   3.075  0.2705 -0.2150 -0.2399
16112TIP3    H169827   4.174   5.572   2.980  0.3585 -1.4329 -0.2512
16112TIP3    H269828   4.276   5.556   3.091  0.3387  0.4133  0.0633
16113TIP3   OH269829   6.571   0.349   4.174 -0.3928 -1.1884  0.0120
16113TIP3    H169830   6.534   0.324   4.090 -1.5195 -0.6580  0.3353
16113TIP3    H269831   6.525   0.429   4.198  0.3217 -1.0193  0.8637
16114TIP3   OH269832   2.309   1.169   2.573 -0.5687 -0.0043  0.2906
16114TIP3    H169833   2.265   1.252   2.590 -0.8585 -0.0615 -0.1491
16114TIP3    H269834   2.395   1.193   2.539 -0.2024  0.1091  1.2812
16115TIP3   OH269835   4.573   4.560  15.002  0.0041  0.2551 -0.5365
16115TIP3    H169836   4.561   4.653  15.018 -1.1438 -0.0689  0.6855
16115TIP3    H269837   4.489   4.532  14.964 -1.2453 -1.0008  2.8357
16116TIP3   OH269838   0.174   5.775  13.738  0.4002  0.3863 -1.0841
16116TIP3    H169839   0.215   5.723  13.669  0.3187 -0.0644 -0.8039
16116TIP3    H269840   0.162   5.712  13.810  0.7613  0.9137 -0.5524
16117TIP3   OH269841   6.742   3.612  16.813 -0.0782 -0.3090  0.1828
16117TIP3    H169842   6.737   3.517  16.822  0.5427 -0.3701 -0.0454
16117TIP3    H269843   6.667   3.646  16.862 -0.6082 -0.9444 -0.1807
16118TIP3   OH269844   6.493   1.626   0.519 -1.0381  0.4103 -0.2500
16118TIP3    H169845   6.482   1.550   0.462 -1.9362  2.1847 -2.5820
16118TIP3    H269846   6.575   1.610   0.565  0.3064 -0.6562 -2.8407
16119TIP3   OH269847   3.355   5.313  15.447  0.6035  0.6089  0.1566
16119TIP3    H169848   3.416   5.359  15.505  0.4338  0.3183  0.5675
16119TIP3    H269849   3.411   5.267  15.385  0.7800  2.1562 -0.9021
16120TIP3   OH269850   6.104   2.802   4.920  0.0826 -0.2248 -0.0949
16120TIP3    H169851   6.156   2.817   4.841  1.0643 -0.2877  0.5247
16120TIP3    H269852   6.165   2.814   4.992 -0.6940 -0.6086  0.6495
16121TIP3   OH269853   4.878   5.200  13.488  0.7714  0.5330 -0.6667
16121TIP3    H169854   4.838   5.285  13.467  0.9424  1.0244  0.8367
16121TIP3    H269855   4.845   5.140  13.421 -0.6187  1.4525 -0.8392
16122TIP3   OH269856   3.146   2.577  14.837 -0.0033  0.1087 -0.0903
16122TIP3    H169857   3.172   2.503  14.892  1.0078 -0.2325 -1.0009
16122TIP3    H269858   3.052   2.565  14.823 -0.0752 -0.3472  0.7197
16123TIP3   OH269859   4.202   4.653  12.862  0.0620 -0.6356 -0.2783
16123TIP3    H169860   4.192   4.733  12.914 -1.6917 -0.5586 -0.6691
16123TIP3    H269861   4.168   4.677  12.775 -0.0347 -1.6593 -0.5363
16124TIP3   OH269862   5.098   0.865   5.915 -0.6221 -0.7278  0.8031
16124TIP3    H169863   5.025   0.891   5.972 -2.4255 -3.4750 -0.0568
16124TIP3    H269864   5.166   0.836   5.975  0.1700  2.4781  1.6532
16125TIP3   OH269865   3.172   6.114  13.638 -0.0118  0.1542 -0.1514
16125TIP3    H169866   3.250   6.163  13.664 -0.9965  2.4386 -1.2073
16125TIP3    H269867   3.100   6.155  13.686 -0.7751 -0.8552 -0.3990
16126TIP3   OH269868   1.847   6.394   0.435  0.6600 -0.0832 -0.1584
16126TIP3    H169869   1.842   6.387   0.531  1.2461  0.5937 -0.0670
16126TIP3    H269870   1.874   6.485   0.420 -1.2597  0.4002 -1.0339
16127TIP3   OH269871   2.915   6.106   1.941 -0.0704 -0.4371 -0.3593
16127TIP3    H169872   3.005   6.075   1.932 -0.4949 -1.6531 -0.5101
16127TIP3    H269873   2.861   6.028   1.934 -1.1281  0.2159  0.1693
16128TIP3   OH269874   6.746   1.224  10.860  0.4792  0.1556  0.1712
16128TIP3    H169875   6.736   1.290  10.792  1.2566 -0.8107 -0.9345
16128TIP3    H269876   6.782   1.148  10.814 -0.9850 -1.2704  1.2748
16129TIP3   OH269877   5.383   3.738   0.798  0.7105 -0.5302 -0.0767
16129TIP3    H169878   5.290   3.736   0.821  1.1796  0.8272  2.2178
16129TIP3    H269879   5.402   3.649   0.768 -1.0790 -1.1501  0.5242
16130TIP3   OH269880   0.979   6.081  15.212 -0.0990 -0.1986  0.5504
16130TIP3    H169881   0.911   6.115  15.155  1.0078  1.4317  0.1215
16130TIP3    H269882   0.950   6.105  15.300 -0.3754 -0.0315  0.4161
16131TIP3   OH269883   5.660   5.354  16.125  0.3059 -0.6409 -0.0536
16131TIP3    H169884   5.581   5.357  16.072 -1.2232  2.5658  2.1017
16131TIP3    H269885   5.634   5.307  16.205  0.9011 -0.5584  0.1963
16132TIP3   OH269886   1.718   6.694  11.290 -0.1087 -0.0773 -0.0268
16132TIP3    H169887   1.735   6.777  11.245  0.0562 -0.0906  0.0099
16132TIP3    H269888   1.642   6.657  11.245  0.8246 -0.6997 -1.1629
16133TIP3   OH269889   2.456   3.401   1.140  0.5204 -0.0079  0.1068
16133TIP3    H169890   2.362   3.404   1.158  0.5179  0.8727  0.0257
16133TIP3    H269891   2.465   3.337   1.070 -0.2749  1.2962 -1.2397
16134TIP3   OH269892   1.442   2.464  16.144  0.2575  0.6939  0.6921
16134TIP3    H169893   1.415   2.534  16.204  0.3804  0.0395  1.5228
16134TIP3    H269894   1.361   2.440  16.099 -0.0481  0.5105  1.3149
16135TIP3   OH269895   6.511   5.173   2.510 -0.2177  0.0996  0.7546
16135TIP3    H169896   6.457   5.152   2.434 -0.1793 -2.2265  1.2786
16135TIP3    H269897   6.601   5.157   2.481 -0.0972  0.5440  0.8849
16136TIP3   OH269898   5.940   5.772   0.361 -0.1904  0.1155 -0.3496
16136TIP3    H169899   5.970   5.804   0.446  1.4357  0.9493 -1.1816
16136TIP3    H269900   5.904   5.685   0.378 -0.2147  0.4116  1.2266
16137TIP3   OH269901   2.895   6.820  13.071 -0.0390  0.0538  0.1377
16137TIP3    H169902   2.829   6.766  13.115 -0.7346 -0.0061 -0.9418
16137TIP3    H269903   2.964   6.758  13.047 -0.6221 -0.3043 -0.6816
16138TIP3   OH269904   5.229   0.172   5.278 -0.1394  0.8306  0.6819
16138TIP3    H169905   5.280   0.118   5.218 -0.6407  1.6146 -0.4880
16138TIP3    H269906   5.196   0.111   5.343 -0.6970 -0.2881 -0.6042
16139TIP3   OH269907   6.757   5.574   3.707 -0.1911  0.2482  0.9809
16139TIP3    H169908   6.686   5.636   3.725 -0.7679  0.1373 -0.7343
16139TIP3    H269909   6.712   5.496   3.675  0.6876 -0.0081  0.3609
16140TIP3   OH269910   1.531   6.823  11.645  0.4918 -0.3714  0.1793
16140TIP3    H169911   1.448   6.823  11.693 -1.8923 -0.2776 -3.5557
16140TIP3    H269912   1.570   6.908  11.666 -2.8051  1.7957 -1.4939
16141TIP3   OH269913   5.597   0.111   3.104 -0.1674 -0.7039 -0.1552
16141TIP3    H169914   5.525   0.073   3.053  1.2195 -0.8262 -2.1411
16141TIP3    H269915   5.675   0.096   3.050  1.3965 -0.6808  1.9585
16142TIP3   OH269916   5.734   3.384   6.738  0.2589 -0.0824 -0.4498
16142TIP3    H169917   5.809   3.442   6.748  0.8467 -0.7916 -0.6949
16142TIP3    H269918   5.658   3.443   6.733  0.6046  0.5724  1.4872
16143TIP3   OH269919   5.362   3.674  16.674 -0.2160 -0.3015 -0.3114
16143TIP3    H169920   5.291   3.668  16.610 -0.0954  0.4251 -0.5322
16143TIP3    H269921   5.438   3.636  16.630 -0.3665 -0.7060 -0.2271
16144TIP3   OH269922   0.543   0.820  14.745 -0.6070  0.0112  0.3796
16144TIP3    H169923   0.635   0.845  14.736 -1.1139  1.4748 -1.3762
16144TIP3    H269924   0.507   0.885  14.806 -0.6478 -0.0425  0.4124
16145TIP3   OH269925   6.333   5.386   4.313 -0.5264 -0.4267 -0.4389
16145TIP3    H169926   6.423   5.414   4.296 -0.7054  0.4173 -0.0508
16145TIP3    H269927   6.293   5.380   4.226 -0.3318  0.0140 -0.5610
16146TIP3   OH269928   2.185   1.277  14.639  0.0866  0.0683 -0.3202
16146TIP3    H169929   2.254   1.285  14.706 -0.3079  1.4396 -0.0561
16146TIP3    H269930   2.224   1.313  14.560 -0.3726  1.0235 -0.1231
16147TIP3   OH269931   2.686   2.099   4.067 -0.3547  0.3617  0.4305
16147TIP3    H169932   2.630   2.157   4.015  0.0488  0.5174  0.1614
16147TIP3    H269933   2.628   2.028   4.094 -0.3458 -0.2700 -1.1051
16148TIP3   OH269934   3.368   6.678  14.995  0.1671  0.2333  0.2477
16148TIP3    H169935   3.347   6.723  14.913  2.5576 -0.1496 -0.6598
16148TIP3    H269936   3.421   6.742  15.043  1.2104 -0.5830  0.1969
16149TIP3   OH269937   0.792   4.489   2.588  0.7105  0.4000  0.0913
16149TIP3    H169938   0.717   4.430   2.582  0.7872  0.3887 -0.8438
16149TIP3    H269939   0.800   4.527   2.501  1.9594  0.1939  0.1000
16150TIP3   OH269940   1.727   4.292   4.029  0.4145 -0.0655  0.4181
16150TIP3    H169941   1.772   4.208   4.024 -0.6083 -0.5885 -0.4848
16150TIP3    H269942   1.763   4.334   4.107 -0.3046 -2.0865  1.9357
16151TIP3   OH269943   3.793   3.715  16.539 -0.0773  0.2902  0.5585
16151TIP3    H169944   3.830   3.752  16.459 -4.4574  1.9743 -0.9927
16151TIP3    H269945   3.817   3.622  16.536 -0.4152  0.1730 -2.9970
16152TIP3   OH269946   6.150   6.263   1.211  0.3953  0.2428 -0.3951
16152TIP3    H169947   6.149   6.280   1.117 -1.4103 -0.7132 -0.5784
16152TIP3    H269948   6.060   6.243   1.233  0.8723 -0.0092  1.4752
16153TIP3   OH269949   5.803   3.061   1.349 -0.4369 -0.1723  0.0280
16153TIP3    H169950   5.882   3.043   1.400 -0.1211 -0.1646 -0.4521
16153TIP3    H269951   5.771   3.145   1.382  0.4144  0.4046 -0.5772
16154TIP3   OH269952   5.915   2.841   1.624  0.2355 -0.0222 -0.3396
16154TIP3    H169953   5.900   2.777   1.694  0.7426  0.6844  0.4248
16154TIP3    H269954   5.835   2.836   1.571 -0.1211 -0.6293  0.2291
16155TIP3   OH269955   4.720   3.438   4.139  0.2762  0.0930  0.4802
16155TIP3    H169956   4.648   3.434   4.203 -0.8095 -0.3858 -0.7334
16155TIP3    H269957   4.687   3.495   4.070  1.5300  0.7929  0.4420
16156TIP3   OH269958   3.925   3.231  13.070  0.0758  0.6544 -0.1087
16156TIP3    H169959   4.018   3.232  13.045  0.3760 -1.5840  0.6445
16156TIP3    H269960   3.920   3.165  13.139 -2.0584  0.9090  0.0379
16157TIP3   OH269961   1.502   0.901   2.491 -0.0741  0.0211 -0.4036
16157TIP3    H169962   1.502   0.905   2.587 -1.4750 -1.2069 -0.3248
16157TIP3    H269963   1.592   0.880   2.468 -0.2998 -2.5959  0.8252
16158TIP3   OH269964   3.227   3.525   4.051  0.4163  0.2080  0.3177
16158TIP3    H169965   3.276   3.595   4.008 -1.1419  1.3066  0.2595
16158TIP3    H269966   3.223   3.552   4.143  2.3400 -1.3314  0.9400
16159TIP3   OH269967   1.557   1.833   4.234  1.0135  0.1064 -0.0292
16159TIP3    H169968   1.614   1.757   4.218  1.7437  0.5539  0.3716
16159TIP3    H269969   1.614   1.896   4.277  0.5517  1.1003 -0.8472
16160TIP3   OH269970   1.433   2.608   4.421 -0.1980  0.2827 -0.2804
16160TIP3    H169971   1.388   2.669   4.361 -1.4268 -0.7634 -0.4753
16160TIP3    H269972   1.525   2.612   4.395 -0.3835  1.4280 -0.8284
16161TIP3   OH269973   2.046   2.566  14.451 -0.1673  0.3794 -0.3965
16161TIP3    H169974   1.997   2.610  14.520  0.1421  2.2639 -1.3260
16161TIP3    H269975   2.138   2.577  14.475 -0.0912 -1.7031  0.4755
16162TIP3   OH269976   2.834   5.063   5.025 -0.3276  0.1688  0.1375
16162TIP3    H169977   2.741   5.073   5.003 -0.1079  1.0291 -0.4599
16162TIP3    H269978   2.837   4.988   5.085 -1.3911  0.0712  0.0835
16163TIP3   OH269979   6.672   6.649   0.667  0.2555  0.0362 -0.4428
16163TIP3    H169980   6.762   6.628   0.692 -0.0549  1.9227  2.8007
16163TIP3    H269981   6.676   6.737   0.631 -0.3794  0.5588  0.7051
16164TIP3   OH269982   3.679   3.503   1.529  0.9040  0.4614  0.0427
16164TIP3    H169983   3.609   3.481   1.469  0.0083 -0.3237  1.3399
16164TIP3    H269984   3.747   3.438   1.512  0.0345 -0.7020  0.8918
16165TIP3   OH269985   2.060   3.722  15.657 -0.6731 -1.0279 -0.3588
16165TIP3    H169986   2.121   3.679  15.717  0.8080 -1.5708 -2.1485
16165TIP3    H269987   2.073   3.816  15.672  0.0059 -1.1544 -0.1078
16166TIP3   OH269988   2.581   1.354  16.714  0.6564  0.5144 -0.5090
16166TIP3    H169989   2.622   1.369  16.799  1.0789  0.6924 -0.7381
16166TIP3    H269990   2.497   1.399  16.718  0.6208  0.4148 -0.1422
16167TIP3   OH269991   4.104   6.034  15.575 -0.1116  0.2252  0.2614
16167TIP3    H169992   4.142   6.006  15.491  1.6552 -0.4175  1.2236
16167TIP3    H269993   4.039   6.100  15.550  0.2783 -0.0205 -1.6184
16168TIP3   OH269994   2.780   4.251  12.205 -0.3197 -0.2305  0.0281
16168TIP3    H169995   2.726   4.211  12.273 -3.3979  1.3343 -1.2820
16168TIP3    H269996   2.796   4.180  12.143 -1.2507 -0.6763  0.2672
16169TIP3   OH269997   4.010   5.226  13.263 -0.0749 -0.1909 -0.4537
16169TIP3    H169998   3.988   5.258  13.176 -1.0998 -1.6537 -0.7769
16169TIP3    H269999   4.100   5.255  13.277 -0.2952  1.1022 -1.4771
16170TIP3   OH270000   4.819   3.783   4.001  0.5383  0.0175 -0.0345
16170TIP3    H170001   4.905   3.825   4.005  1.1088 -0.9990 -1.1701
16170TIP3    H270002   4.792   3.776   4.093  1.3440  0.9611  0.2976
16171TIP3   OH270003   0.620   0.145   5.577  0.0844 -0.1716  0.4754
16171TIP3    H170004   0.579   0.175   5.496 -0.1203  0.5023  0.8246
16171TIP3    H270005   0.581   0.060   5.594  0.0553 -0.2721 -0.0809
16172TIP3   OH270006   6.514   1.518  14.736  0.3460 -0.7236 -0.4728
16172TIP3    H170007   6.470   1.603  14.730 -0.0041 -0.8208  0.5337
16172TIP3    H270008   6.528   1.492  14.645  0.2337  0.2926 -0.7988
16173TIP3   OH270009   3.624   1.911   3.001  0.2041 -0.2890 -0.4304
16173TIP3    H170010   3.614   1.872   2.915  0.0752  0.7497 -0.9064
16173TIP3    H270011   3.706   1.877   3.034  0.5107 -0.3002 -1.1885
16174TIP3   OH270012   2.857   3.362  15.532 -0.7525  0.4249  0.2309
16174TIP3    H170013   2.912   3.286  15.513 -0.4957  0.7240 -0.2336
16174TIP3    H270014   2.854   3.365  15.628 -0.0385  0.3447  0.2640
16175TIP3   OH270015   2.648   3.651  16.705 -0.2657  0.1286  0.6830
16175TIP3    H170016   2.732   3.639  16.750  0.1135  1.5383  0.4080
16175TIP3    H270017   2.630   3.744  16.713 -0.4309  0.3531 -1.6427
16176TIP3   OH270018   2.845   1.071  11.548 -0.5186  0.1636  0.1046
16176TIP3    H170019   2.751   1.085  11.551 -0.5269  0.4629 -1.0180
16176TIP3    H270020   2.883   1.159  11.548 -0.2640  0.0560 -0.0905
16177TIP3   OH270021   0.921   3.826  13.231 -0.4796 -0.8560  0.4355
16177TIP3    H170022   0.980   3.841  13.157 -0.6465  0.6863  0.5781
16177TIP3    H270023   0.885   3.912  13.251 -0.8836 -1.3364  1.9496
16178TIP3   OH270024   4.841   5.678  11.031  0.9061 -0.1235  0.2601
16178TIP3    H170025   4.835   5.769  11.002  2.3238  0.0921  0.5341
16178TIP3    H270026   4.898   5.682  11.109  0.3647 -1.1507  0.7263
16179TIP3   OH270027   1.962   4.024   0.761  0.2294  0.0246  0.5116
16179TIP3    H170028   2.034   4.063   0.810  1.1103  0.0889 -0.7723
16179TIP3    H270029   1.949   3.938   0.801  0.2752  0.4439  1.4456
16180TIP3   OH270030   2.468   0.076  15.181  0.2626 -0.2817 -0.3027
16180TIP3    H170031   2.455   0.067  15.087  0.4751  0.0061 -0.3626
16180TIP3    H270032   2.482  -0.013  15.213 -0.9743 -0.5267 -0.3642
16181TIP3   OH270033   4.093   4.048   3.952 -0.5843  0.6363  0.4270
16181TIP3    H170034   4.097   4.007   4.038 -0.1736 -1.4398 -0.5289
16181TIP3    H270035   4.020   4.005   3.908  1.4801 -1.0857 -1.5576
16182TIP3   OH270036   0.951   1.158   4.707 -0.2196  0.0674  0.3218
16182TIP3    H170037   0.981   1.248   4.697 -0.1570 -0.0924 -1.1334
16182TIP3    H270038   0.934   1.128   4.617  0.7574 -1.6992  0.6701
16183TIP3   OH270039   0.653   5.365  13.818  0.3204 -0.1269  0.0871
16183TIP3    H170040   0.607   5.281  13.817 -0.6569  0.3843 -1.8995
16183TIP3    H270041   0.647   5.394  13.910 -3.4404 -0.0831  0.0087
16184TIP3   OH270042   3.214   3.705  12.652 -0.8647  0.2163  0.4675
16184TIP3    H170043   3.156   3.702  12.728  0.0789 -0.8517  1.1789
16184TIP3    H270044   3.289   3.757  12.681  0.6516 -2.1819  1.1859
16185TIP3   OH270045   4.027   5.996   5.606 -0.7021 -0.5001  0.7512
16185TIP3    H170046   4.004   5.905   5.622 -0.4746 -0.5424  0.8401
16185TIP3    H270047   4.120   6.002   5.628 -0.6685 -0.2908  0.5591
16186TIP3   OH270048   3.270   2.989   4.790  0.1913 -0.1384  0.3084
16186TIP3    H170049   3.316   2.911   4.759  0.3872 -0.5959  1.7141
16186TIP3    H270050   3.305   3.060   4.735  0.4555 -0.9231 -0.5658
16187TIP3   OH270051   3.955   6.150  11.338 -0.3915 -0.2704 -0.0983
16187TIP3    H170052   4.039   6.195  11.327 -1.2642  1.8468  1.1740
16187TIP3    H270053   3.932   6.164  11.430 -1.3509 -2.3143  0.0251
16188TIP3   OH270054   4.104   1.318   5.366 -0.4396 -0.1058  0.5430
16188TIP3    H170055   4.065   1.401   5.338 -0.2249  0.1791  1.0597
16188TIP3    H270056   4.031   1.257   5.370 -0.8454  0.4104  1.4553
16189TIP3   OH270057   6.115   0.073  13.191 -0.5562 -0.6108 -0.7340
16189TIP3    H170058   6.105   0.059  13.285  1.1382  0.3987 -0.3615
16189TIP3    H270059   6.086   0.164  13.178 -0.4584 -0.6362 -1.1248
16190TIP3   OH270060   3.676   6.074  14.561  0.0933  0.2730  0.2798
16190TIP3    H170061   3.754   6.018  14.573 -0.4366 -0.7491 -0.7800
16190TIP3    H270062   3.612   6.039  14.622 -0.0162  0.1502  0.0958
16191TIP3   OH270063   1.292   2.533   6.026 -0.1155  0.0078  0.0701
16191TIP3    H170064   1.231   2.461   6.042  0.9054 -0.9026 -0.0487
16191TIP3    H270065   1.283   2.589   6.104 -2.4650  0.9269 -0.7889
16192TIP3   OH270066   5.254   0.509  13.080 -0.2103 -0.2675 -0.2899
16192TIP3    H170067   5.236   0.430  13.130 -1.7645  0.8163  0.9881
16192TIP3    H270068   5.187   0.510  13.011  0.2164 -0.3741 -0.7143
16193TIP3   OH270069   3.212   4.986  16.818 -0.0160  0.3472  0.2866
16193TIP3    H170070   3.137   5.044  16.802  0.4120  1.3925  1.8939
16193TIP3    H270071   3.177   4.916  16.873 -0.3602 -0.6016 -1.0613
16194TIP3   OH270072   5.508   3.058   3.040  0.3651  0.1510 -0.1089
16194TIP3    H170073   5.452   3.017   2.973  0.3067 -0.5308  0.3403
16194TIP3    H270074   5.515   2.991   3.108  0.3224  0.8809  0.6250
16195TIP3   OH270075   4.016   2.815  15.813 -0.1836 -0.2976  0.5260
16195TIP3    H170076   4.039   2.869  15.889 -1.1115  0.6035  0.1873
16195TIP3    H270077   4.100   2.798  15.770  0.2376  0.0413  1.1839
16196TIP3   OH270078   2.113   3.905  11.738  0.1010  0.1665  0.4545
16196TIP3    H170079   2.121   3.810  11.726  4.0418  0.4611 -0.3504
16196TIP3    H270080   2.041   3.915  11.801 -1.4058 -3.2022 -0.4985
16197TIP3   OH270081   2.451   5.025  12.978  0.1009 -0.7810  0.3551
16197TIP3    H170082   2.512   4.954  12.998  0.3895 -0.5010  0.4751
16197TIP3    H270083   2.379   4.982  12.931 -0.3084 -1.3531  1.4675
16198TIP3   OH270084   4.799   6.123   3.272 -0.2919  0.0564  0.0074
16198TIP3    H170085   4.718   6.085   3.239  0.1575 -1.2633  0.3311
16198TIP3    H270086   4.777   6.154   3.360 -0.4568 -0.2562  0.0781
16199TIP3   OH270087   0.888   5.055  12.714 -0.0734  0.2411 -0.7196
16199TIP3    H170088   0.849   4.968  12.710 -0.0185  0.1013  0.9132
16199TIP3    H270089   0.818   5.114  12.686 -1.0371 -0.1258  0.7986
16200TIP3   OH270090   6.834   4.224   5.882 -0.0357  0.2382  0.2685
16200TIP3    H170091   6.885   4.211   5.802 -2.9967 -0.1325 -1.7178
16200TIP3    H270092   6.800   4.138   5.903 -1.8806  0.8720  0.0032
16201TIP3   OH270093   2.181   2.213   5.396 -0.8285 -0.1958  0.1386
16201TIP3    H170094   2.121   2.248   5.331 -2.8128  0.5526  2.2474
16201TIP3    H270095   2.231   2.289   5.426  0.0966 -0.5405 -0.4844
16202TIP3   OH270096   5.694   1.830   3.204  0.0812  0.2390  0.3439
16202TIP3    H170097   5.710   1.785   3.288 -1.6761  1.6918  1.5310
16202TIP3    H270098   5.767   1.802   3.148  0.6703 -1.7253  1.9446
16203TIP3   OH270099   2.044   0.220  16.226 -0.4423 -0.6323  0.1128
16203TIP3    H170100   2.129   0.199  16.188  0.6300  0.6420  1.6756
16203TIP3    H270101   2.039   0.165  16.305 -0.1008  0.7555  1.1492
16204TIP3   OH270102   2.732   4.939  15.607  0.7088  0.6380  0.1068
16204TIP3    H170103   2.803   4.980  15.656  1.2912 -0.9083  0.6139
16204TIP3    H270104   2.776   4.891  15.537 -0.0570  2.0865 -1.4627
16205TIP3   OH270105   6.372   0.725  16.910 -0.5174 -0.5463 -0.4783
16205TIP3    H170106   6.370   0.634  16.941 -1.7708 -0.3345  0.0944
16205TIP3    H270107   6.296   0.733  16.853 -0.0213 -0.0354 -1.0876
16206TIP3   OH270108   4.352   0.250   0.832 -0.2604 -0.2940 -0.2251
16206TIP3    H170109   4.412   0.220   0.764 -0.1551  0.6067 -0.5475
16206TIP3    H270110   4.404   0.251   0.912  0.5569  1.6865 -0.7258
16207TIP3   OH270111   5.779   2.609   0.475  0.0124 -0.0638 -0.1084
16207TIP3    H170112   5.867   2.584   0.445 -0.6876 -1.0821 -1.4290
16207TIP3    H270113   5.725   2.606   0.396 -1.4486 -0.6153  0.8689
16208TIP3   OH270114   5.724   4.641   0.777 -0.5719  0.4563 -0.0071
16208TIP3    H170115   5.704   4.705   0.846  0.2087  0.2077  0.4633
16208TIP3    H270116   5.639   4.614   0.743 -0.9811  0.3161  1.1121
16209TIP3   OH270117   2.792   2.840  14.542 -0.2808 -0.0874  0.2936
16209TIP3    H170118   2.819   2.815  14.453 -0.2340  0.1999  0.2253
16209TIP3    H270119   2.786   2.936  14.539 -2.2472 -0.1959  0.0318
16210TIP3   OH270120   5.819   5.719   5.132 -0.5552  0.4018  0.3470
16210TIP3    H170121   5.764   5.684   5.063 -0.2306  1.0952 -0.2800
16210TIP3    H270122   5.882   5.776   5.087 -0.1818  0.6784  1.1808
16211TIP3   OH270123   3.871   1.775  16.437  0.2205  0.1550  0.6272
16211TIP3    H170124   3.903   1.733  16.357  1.5101  0.0281  1.1821
16211TIP3    H270125   3.919   1.857  16.443 -0.8561  0.8075  0.5820
16212TIP3   OH270126   4.059   3.662   5.003 -0.5578 -0.6309 -0.3231
16212TIP3    H170127   4.093   3.575   5.027  0.7439 -0.6614 -2.0675
16212TIP3    H270128   4.075   3.716   5.080  0.3242 -1.4999  0.1263
16213TIP3   OH270129   6.698   0.499  12.419  0.2332  0.0386  0.1482
16213TIP3    H170130   6.751   0.573  12.391  0.8984 -0.3816  0.2793
16213TIP3    H270131   6.691   0.443  12.341  1.0911 -0.5468  0.4753
16214TIP3   OH270132   5.103   3.655  15.384  0.2778  0.2926 -0.3116
16214TIP3    H170133   5.081   3.593  15.454 -0.5773 -0.0139 -0.8350
16214TIP3    H270134   5.158   3.720  15.426 -0.9282  0.5961  0.8620
16215TIP3   OH270135   0.427   1.166   4.742  0.0527 -0.0895 -0.2288
16215TIP3    H170136   0.359   1.203   4.797  1.2337 -1.8579  2.6319
16215TIP3    H270137   0.509   1.185   4.788  1.0814 -2.0200 -1.1199
16216TIP3   OH270138   4.360   5.313  15.727 -0.4557 -0.1822 -0.2552
16216TIP3    H170139   4.426   5.359  15.779  0.6808 -1.6158 -0.3407
16216TIP3    H270140   4.411   5.254  15.671 -1.7904 -0.8003 -0.8737
16217TIP3   OH270141   5.232   6.137   1.170 -0.3735  0.4491  0.2582
16217TIP3    H170142   5.262   6.115   1.258 -1.4560 -0.8011  0.3427
16217TIP3    H270143   5.282   6.215   1.146  1.8950 -0.7254  0.9184
16218TIP3   OH270144   6.510   0.220  15.542 -0.2600 -0.4350 -0.3581
16218TIP3    H170145   6.511   0.134  15.584 -2.5481 -0.1327  0.4681
16218TIP3    H270146   6.417   0.242  15.535  0.2672  2.1097 -0.2642
16219TIP3   OH270147   5.906   1.221  14.558 -0.0951 -0.2892 -0.4736
16219TIP3    H170148   5.879   1.206  14.649 -0.4128  0.1634 -0.4885
16219TIP3    H270149   5.910   1.317  14.550  1.7081 -0.3240 -0.4231
16220TIP3   OH270150   4.572   6.221  11.112 -0.0056  0.0380  0.5794
16220TIP3    H170151   4.600   6.198  11.201  0.8652  0.6525  0.4735
16220TIP3    H270152   4.638   6.182  11.055  0.6986  1.5063  0.3289
16221TIP3   OH270153   5.549   3.040  10.912  0.2572  0.4170 -0.1625
16221TIP3    H170154   5.474   3.069  10.859  0.3588  0.8366 -0.0766
16221TIP3    H270155   5.603   2.990  10.851  1.2956  2.3779 -0.9547
16222TIP3   OH270156   4.790   5.081   5.063  0.3109 -0.2904 -0.4792
16222TIP3    H170157   4.764   5.162   5.106  0.7099  0.5917 -1.8320
16222TIP3    H270158   4.880   5.066   5.093  0.3327 -0.0875 -0.4434
16223TIP3   OH270159   6.651   2.087   0.335 -0.2445  0.1643  0.2003
16223TIP3    H170160   6.673   2.005   0.379 -0.7495 -0.1744 -0.1620
16223TIP3    H270161   6.708   2.152   0.376 -0.8493 -0.0932  1.5298
16224TIP3   OH270162   4.468   2.731  16.391  0.2182 -0.3090  0.1847
16224TIP3    H170163   4.388   2.679  16.399  0.6614 -1.0796 -0.2414
16224TIP3    H270164   4.505   2.705  16.306  1.1485 -0.3127  0.5771
16225TIP3   OH270165   3.135   5.443   5.716  0.1284  0.1076  0.8605
16225TIP3    H170166   3.107   5.406   5.800  0.9841 -1.1634  0.6070
16225TIP3    H270167   3.203   5.506   5.739 -1.0345  1.2603  1.2611
16226TIP3   OH270168   6.580   4.497  12.347  0.0611 -0.6118  0.0767
16226TIP3    H170169   6.622   4.417  12.316  0.8959  0.0768 -0.6012
16226TIP3    H270170   6.628   4.568  12.305 -0.3656  0.2717  1.0327
16227TIP3   OH270171   1.950   0.217   2.828  0.1667 -0.0452  0.1176
16227TIP3    H170172   2.003   0.246   2.903  1.6037  0.0059 -0.8774
16227TIP3    H270173   1.967   0.123   2.822 -1.0198 -0.3069  0.6642
16228TIP3   OH270174   4.808   6.828   1.443  0.5501  0.1559 -0.3507
16228TIP3    H170175   4.741   6.890   1.472 -0.8825 -0.2893 -2.4210
16228TIP3    H270176   4.882   6.841   1.502 -0.4255  2.4657  0.4468
16229TIP3   OH270177   6.019   1.537  12.035  0.2105 -0.1820  0.4760
16229TIP3    H170178   6.076   1.467  12.066  0.9457 -0.5343 -1.5162
16229TIP3    H270179   6.062   1.618  12.063 -0.6239 -0.4338  2.7593
16230TIP3   OH270180   1.152   2.424   2.248 -0.6172 -0.2968 -0.0833
16230TIP3    H170181   1.114   2.482   2.181 -1.0115  0.4633  0.7761
16230TIP3    H270182   1.236   2.465   2.269  0.1391 -1.2811 -1.0643
16231TIP3   OH270183   0.583   5.974   0.175  0.2294  0.0417  0.0536
16231TIP3    H170184   0.490   5.955   0.170  0.4113 -0.5468 -2.8918
16231TIP3    H270185   0.620   5.902   0.226 -0.6076 -1.2632 -1.1019
16232TIP3   OH270186   3.205   4.838   1.729  0.1965  0.1614 -0.0902
16232TIP3    H170187   3.139   4.769   1.727 -0.2878  0.6201 -0.1330
16232TIP3    H270188   3.245   4.830   1.816  4.3725 -4.0460 -1.9675
16233TIP3   OH270189   1.383   0.729   0.415 -0.0727 -0.2820 -0.2916
16233TIP3    H170190   1.450   0.666   0.389  0.8843  0.4547  0.3047
16233TIP3    H270191   1.400   0.746   0.508 -0.0737  1.1196 -0.5255
16234TIP3   OH270192   1.826   5.126  11.465 -0.1239  0.3041  0.5779
16234TIP3    H170193   1.821   5.087  11.378  1.3313  2.6178 -0.6510
16234TIP3    H270194   1.918   5.154  11.474 -0.0730 -0.3719  3.1225
16235TIP3   OH270195   2.474   5.817  15.459  0.4935 -0.5424 -0.0408
16235TIP3    H170196   2.495   5.866  15.538 -0.2010 -1.9789  1.0676
16235TIP3    H270197   2.545   5.838  15.399  0.7698  0.9697  0.7530
16236TIP3   OH270198   4.600   5.176   0.541 -0.1663 -0.8552  0.6264
16236TIP3    H170199   4.586   5.104   0.478 -0.8448 -0.2116  0.0236
16236TIP3    H270200   4.624   5.131   0.622  2.2480 -1.6620 -0.4317
16237TIP3   OH270201   3.244   3.130  14.083 -0.3549 -0.4230 -0.2703
16237TIP3    H170202   3.251   3.151  14.176  0.4987  1.0552 -0.6318
16237TIP3    H270203   3.150   3.124  14.065 -0.5465  0.3625  0.4582
16238TIP3   OH270204   1.248   6.361   2.438  0.0519  0.2059  0.1329
16238TIP3    H170205   1.183   6.294   2.418  0.1599  0.1445 -0.0070
16238TIP3    H270206   1.325   6.336   2.388  0.7598 -0.6724  1.5958
16239TIP3   OH270207   4.896   2.420   2.853 -0.0024 -0.1778 -0.6985
16239TIP3    H170208   4.867   2.342   2.806 -3.4765  0.4367  0.1455
16239TIP3    H270209   4.899   2.393   2.945 -0.9624  0.5266 -0.4343
16240TIP3   OH270210   1.961   2.637   4.869 -0.3622 -0.2802  0.7443
16240TIP3    H170211   2.019   2.605   4.800  1.1003  1.5547  1.0358
16240TIP3    H270212   1.986   2.585   4.946  0.5143  0.0708  0.7154
16241TIP3   OH270213   5.646   3.416   0.484  0.3052  0.2774  0.7279
16241TIP3    H170214   5.699   3.395   0.561  1.4561 -1.2965 -0.4365
16241TIP3    H270215   5.705   3.462   0.425 -0.0213 -0.1956  0.0193
16242TIP3   OH270216   1.742   2.788   3.047  0.2656 -0.1104  0.6680
16242TIP3    H170217   1.689   2.855   3.091  0.7951 -0.0616  1.2500
16242TIP3    H270218   1.685   2.712   3.041 -0.1551  0.2174  0.5121
16243TIP3   OH270219   3.686   6.381   2.816  0.4334 -0.7722  0.5601
16243TIP3    H170220   3.635   6.360   2.893 -0.2508  1.3540  0.7293
16243TIP3    H270221   3.772   6.405   2.850 -0.0117  0.6445  0.7450
16244TIP3   OH270222   5.968   4.856   5.453  0.3129 -0.3310  0.2117
16244TIP3    H170223   5.914   4.918   5.502  1.4862  2.0278 -1.2544
16244TIP3    H270224   5.906   4.790   5.421 -1.3405  1.0559  0.3930
16245TIP3   OH270225   1.611   1.676   1.465 -0.3401  0.5331  0.0269
16245TIP3    H170226   1.529   1.632   1.487 -0.3583  0.7443  0.3914
16245TIP3    H270227   1.623   1.660   1.372 -0.0496 -0.7238  0.2673
16246TIP3   OH270228   3.754   2.696   0.500  0.1892  0.4352  0.3797
16246TIP3    H170229   3.758   2.791   0.493 -1.3950  0.4466 -1.0050
16246TIP3    H270230   3.742   2.679   0.593  0.2831  1.5900  0.6173
16247TIP3   OH270231   0.747   4.099   1.787  0.9365 -0.1441  0.0020
16247TIP3    H170232   0.777   4.027   1.731  0.5286  0.8667 -1.5751
16247TIP3    H270233   0.700   4.056   1.859  1.8177 -1.4923 -0.1921
16248TIP3   OH270234   0.461   3.009   0.855 -0.1529  0.1603 -0.3115
16248TIP3    H170235   0.480   3.092   0.811 -1.5444 -0.0024 -1.2831
16248TIP3    H270236   0.485   3.024   0.946  1.2765  1.0421 -0.7828
16249TIP3   OH270237   1.497   0.163   5.605 -0.5264 -0.0032 -0.5991
16249TIP3    H170238   1.571   0.181   5.662 -1.7536  0.2476  0.9817
16249TIP3    H270239   1.486   0.243   5.553 -1.4069  1.0675  1.1651
16250TIP3   OH270240   3.857   5.150  13.936  0.0807 -0.3587  0.0977
16250TIP3    H170241   3.845   5.194  13.852 -0.1682 -2.5818 -1.1039
16250TIP3    H270242   3.948   5.122  13.936 -0.2755 -1.5705 -0.0729
16251TIP3   OH270243   5.609   0.461  11.650  0.1027  0.2807  0.0735
16251TIP3    H170244   5.561   0.378  11.656 -2.4852  1.6047 -0.8363
16251TIP3    H270245   5.668   0.449  11.575  1.6696 -1.5547  1.5087
16252TIP3   OH270246   6.411   1.861   1.252  0.1329  0.2285 -0.0118
16252TIP3    H170247   6.449   1.949   1.248  0.0448  0.3493  1.3239
16252TIP3    H270248   6.373   1.848   1.165  0.9536  1.1299 -0.5437
16253TIP3   OH270249   4.790   3.285   3.907 -0.0925 -0.1205  0.5576
16253TIP3    H170250   4.765   3.274   3.999  1.4952 -0.6703  0.9704
16253TIP3    H270251   4.848   3.361   3.907  1.8188 -1.4841  0.4825
16254TIP3   OH270252   2.285   3.961  12.462  0.3273 -0.0599 -0.5000
16254TIP3    H170253   2.305   3.971  12.369 -0.7982  0.9481 -0.6602
16254TIP3    H270254   2.245   4.045  12.487 -0.1773 -0.6299  0.6797
16255TIP3   OH270255   4.090   3.997   1.644  0.0340 -0.2435 -0.7231
16255TIP3    H170256   4.076   3.903   1.634 -2.6256  0.2577 -2.7249
16255TIP3    H270257   4.083   4.013   1.738 -1.2912 -1.8080 -0.5241
16256TIP3   OH270258   4.019   2.095  16.859  0.3272 -0.5340 -0.3577
16256TIP3    H170259   4.032   2.011  16.815 -1.5673 -0.5468 -0.9841
16256TIP3    H270260   4.087   2.152  16.822  0.4661 -1.2849 -1.3060
16257TIP3   OH270261   3.638   0.085   3.439 -0.3398 -0.0608  0.5884
16257TIP3    H170262   3.559   0.036   3.420  0.9949 -1.5841 -1.4993
16257TIP3    H270263   3.608   0.174   3.457 -2.6641 -1.1003  2.2515
16258TIP3   OH270264   2.451   1.084   3.554 -0.0798 -0.5853  0.5307
16258TIP3    H170265   2.525   1.127   3.511 -1.5686  0.3355 -1.2886
16258TIP3    H270266   2.427   1.143   3.625 -1.8034  1.5608 -1.6439
16259TIP3   OH270267   3.237   5.873   6.045  0.9361  0.4763  0.0870
16259TIP3    H170268   3.317   5.924   6.035  1.5513 -0.6117 -0.8167
16259TIP3    H270269   3.250   5.826   6.128  0.2054  2.0062  1.1104
16260TIP3   OH270270   0.649   4.483  11.535  0.6999 -0.3497  0.3700
16260TIP3    H170271   0.713   4.489  11.606  0.8609 -2.2957  0.4345
16260TIP3    H270272   0.654   4.392  11.506 -1.3240 -0.2800 -0.3167
16261TIP3   OH270273   1.624   4.624  11.563  0.1775  0.1044  0.3252
16261TIP3    H170274   1.682   4.604  11.637  0.0837 -0.1348  0.3376
16261TIP3    H270275   1.682   4.636  11.488  0.1871 -1.4188  0.0526
16262TIP3   OH270276   0.886   3.558   4.246  0.0394  0.3237  0.2214
16262TIP3    H170277   0.950   3.498   4.208 -0.8978 -1.0800  0.7678
16262TIP3    H270278   0.801   3.523   4.217 -0.5993  0.3673  1.9361
16263TIP3   OH270279   0.817   0.373   0.917 -0.2040  0.4840  0.4237
16263TIP3    H170280   0.821   0.321   0.997 -2.1012 -0.6248 -0.1425
16263TIP3    H270281   0.872   0.326   0.855  1.4641  1.4697  1.0592
16264TIP3   OH270282   4.401   4.972   1.010 -0.3846  0.3593  0.4169
16264TIP3    H170283   4.364   4.931   0.932  2.2319  0.4044 -0.9631
16264TIP3    H270284   4.395   5.066   0.993 -2.7521  0.5475  1.8133
16265TIP3   OH270285   6.434   2.028  16.255 -0.0485 -0.3132 -0.0027
16265TIP3    H170286   6.450   2.035  16.161 -1.0997  0.1040 -0.1623
16265TIP3    H270287   6.514   2.062  16.295 -0.2314  1.0601 -0.7570
16266TIP3   OH270288   3.460   1.403   2.439 -0.0618 -0.0451  0.1490
16266TIP3    H170289   3.439   1.321   2.483 -1.3042 -0.5768 -1.3710
16266TIP3    H270290   3.446   1.386   2.346 -1.4312  2.1765 -0.1336
16267TIP3   OH270291   3.139   2.918  16.341  0.3767 -0.0383 -0.8169
16267TIP3    H170292   3.129   2.976  16.265  1.1437  0.0627 -0.8488
16267TIP3    H270293   3.217   2.866  16.321 -0.7172 -1.6226 -1.1373
16268TIP3   OH270294   3.882   0.507   1.674 -0.4395 -0.0415  0.2131
16268TIP3    H170295   3.939   0.436   1.644 -0.8776 -0.2158 -0.2123
16268TIP3    H270296   3.796   0.467   1.681 -0.7459  0.5072 -0.2909
16269TIP3   OH270297   2.552   4.249   2.544  0.2685  0.0341  0.2727
16269TIP3    H170298   2.631   4.209   2.507  1.8468  1.7407  1.6230
16269TIP3    H270299   2.529   4.192   2.618  1.2563  0.4101  0.8947
16270TIP3   OH270300   0.770   2.457   0.372  0.4287  0.2950 -0.5326
16270TIP3    H170301   0.690   2.473   0.321 -0.4726  0.5702  0.9286
16270TIP3    H270302   0.785   2.363   0.363  0.9989  0.5026 -2.2787
16271TIP3   OH270303   2.937   0.184  11.078 -0.3511 -0.2209 -0.5399
16271TIP3    H170304   2.872   0.253  11.076  1.4251  1.5469 -3.5614
16271TIP3    H270305   3.017   0.226  11.111  0.3901 -1.1926 -1.0199
16272TIP3   OH270306   6.740   4.725  13.653  0.6853 -0.0761 -0.5990
16272TIP3    H170307   6.826   4.765  13.643  0.9473 -0.4486  0.0472
16272TIP3    H270308   6.734   4.661  13.583  1.5718 -1.1153  0.2350
16273TIP3   OH270309   2.296   4.475   4.163 -0.5814  0.1681  0.3813
16273TIP3    H170310   2.366   4.538   4.183 -1.2893  0.1167  3.5367
16273TIP3    H270311   2.342   4.400   4.125  0.9420  0.5651  1.3453
16274TIP3   OH270312   5.480   3.112   2.562 -0.1318 -0.0909  0.0258
16274TIP3    H170313   5.400   3.158   2.538  1.3492  1.3719 -2.5455
16274TIP3    H270314   5.467   3.023   2.529 -0.3374  0.4047 -1.2803
16275TIP3   OH270315   5.815   6.232   3.608 -0.3870  0.4999  0.2994
16275TIP3    H170316   5.746   6.276   3.558  0.7890  0.3495 -1.5474
16275TIP3    H270317   5.807   6.268   3.697 -0.4708  3.2721 -0.7542
16276TIP3   OH270318   5.852   0.702  14.715 -0.1729 -0.7302  0.1534
16276TIP3    H170319   5.875   0.776  14.771 -0.4992  0.2202 -0.9302
16276TIP3    H270320   5.934   0.676  14.673  0.3970 -2.4378  2.1363
16277TIP3   OH270321   0.086   6.825  15.781  0.2149 -0.1228  0.2694
16277TIP3    H170322   0.161   6.766  15.781 -0.5552 -1.1574 -1.2393
16277TIP3    H270323   0.109   6.891  15.715 -0.3170 -0.6412 -0.4528
16278TIP3   OH270324   0.532   0.103   3.285  0.3475  0.0558  0.1147
16278TIP3    H170325   0.452   0.052   3.299  1.7271 -1.9693  1.2723
16278TIP3    H270326   0.507   0.172   3.224 -2.2493 -0.5219  0.4226
16279TIP3   OH270327   5.046   3.679   5.596  0.0657 -0.0572  0.2488
16279TIP3    H170328   4.954   3.706   5.608 -0.2473 -0.8449 -0.2789
16279TIP3    H270329   5.041   3.586   5.575  0.8811  0.1858 -1.1785
16280TIP3   OH270330   5.638   4.545  11.053  0.3097 -0.0974  0.4876
16280TIP3    H170331   5.631   4.544  10.958  2.4388 -1.8578  0.2555
16280TIP3    H270332   5.585   4.619  11.081 -1.7564 -0.5487 -1.9259
16281TIP3   OH270333   4.253   3.916   4.918 -0.0522 -0.3145 -0.0052
16281TIP3    H170334   4.244   3.848   4.985 -1.2749  0.5815  0.8044
16281TIP3    H270335   4.347   3.923   4.903  0.1841 -1.2254  0.9130
16282TIP3   OH270336   3.304   5.597  16.743 -0.7578 -0.2979 -0.0753
16282TIP3    H170337   3.215   5.617  16.714 -0.6201 -0.2898 -0.5035
16282TIP3    H270338   3.360   5.633  16.674 -0.3439  1.0748  0.9300
16283TIP3   OH270339   0.201   0.508  13.722  0.1301 -0.1683 -0.3640
16283TIP3    H170340   0.188   0.421  13.685  2.7092 -0.3171 -1.0895
16283TIP3    H270341   0.287   0.535  13.692 -0.4310  2.5223  0.1478
16284TIP3   OH270342   0.013   0.819   3.208 -0.0376  0.4514 -0.0948
16284TIP3    H170343  -0.003   0.831   3.114 -0.0998  1.2725  0.0159
16284TIP3    H270344   0.089   0.761   3.211  0.7474  1.4022 -0.6844
16285TIP3   OH270345   5.177   0.238  12.208 -0.2194 -0.5773  0.0014
16285TIP3    H170346   5.219   0.187  12.277  1.4176 -0.8196 -1.1000
16285TIP3    H270347   5.238   0.309  12.191 -1.8052  0.9659  0.5264
16286TIP3   OH270348   1.566   0.226  14.221  0.2671  0.5711  0.6028
16286TIP3    H170349   1.626   0.254  14.290 -1.5101  0.0486  2.4508
16286TIP3    H270350   1.492   0.285  14.228  0.2526  0.8562 -1.2791
16287TIP3   OH270351   4.364   3.610  12.538  0.0330  0.2281  0.2581
16287TIP3    H170352   4.308   3.544  12.496  0.2339  1.6176 -2.3756
16287TIP3    H270353   4.309   3.688  12.543  1.2534  1.2368 -1.1850
16288TIP3   OH270354   0.664   2.467   2.383  0.2223  0.7302 -0.7983
16288TIP3    H170355   0.601   2.446   2.452  0.9116 -0.8547 -0.6297
16288TIP3    H270356   0.625   2.432   2.303  0.7724 -0.0334 -0.7333
16289TIP3   OH270357   3.630   3.616   4.677  0.0854 -0.0936 -0.1407
16289TIP3    H170358   3.598   3.527   4.662 -3.0618  0.5856  1.5870
16289TIP3    H270359   3.672   3.612   4.763 -1.4499  0.3090  0.6721
16290TIP3   OH270360   5.535   3.817  15.261 -0.1502  0.0040  0.2339
16290TIP3    H170361   5.614   3.871  15.260 -1.1315  1.5305  1.4045
16290TIP3    H270362   5.463   3.879  15.252 -1.2598 -1.3879 -1.1987
16291TIP3   OH270363   2.788   5.757  15.388 -0.7102 -0.0223 -0.2582
16291TIP3    H170364   2.751   5.808  15.316 -0.5474  0.5370  0.0472
16291TIP3    H270365   2.835   5.821  15.441 -0.9653 -0.3946  0.4333
16292TIP3   OH270366   6.550   6.457  10.249 -0.0814 -0.2983 -0.2360
16292TIP3    H170367   6.563   6.363  10.258  0.2757 -0.4249 -1.7951
16292TIP3    H270368   6.587   6.495  10.329  1.1486 -1.3775 -0.2734
16293TIP3   OH270369   3.645   6.548  16.565  0.2436  0.2869 -0.2259
16293TIP3    H170370   3.643   6.452  16.575  0.0501  0.4191  1.2106
16293TIP3    H270371   3.577   6.579  16.624  0.5080  1.3363 -0.4610
16294TIP3   OH270372   5.025   3.392  12.837  0.1317 -0.5545  0.2278
16294TIP3    H170373   4.976   3.441  12.903 -0.6702  0.6819 -1.2078
16294TIP3    H270374   4.959   3.337  12.794 -0.0999  1.1077 -1.7072
16295TIP3   OH270375   0.700   3.051  12.292  0.0778  0.3011  0.2016
16295TIP3    H170376   0.778   3.045  12.347  0.4097 -0.5460 -0.3470
16295TIP3    H270377   0.693   3.144  12.271  1.0432  0.3704  0.1273
16296TIP3   OH270378   1.747   3.674  12.548 -0.1693 -0.2365 -0.1786
16296TIP3    H170379   1.728   3.664  12.641  0.4106  1.2540  0.1177
16296TIP3    H270380   1.755   3.584  12.516  1.5442 -0.8013  1.6158
16297TIP3   OH270381   0.218   6.108   4.781 -0.2614 -0.0568 -0.3757
16297TIP3    H170382   0.297   6.157   4.803 -1.1075  1.3187 -0.3354
16297TIP3    H270383   0.165   6.111   4.861 -0.8414 -0.0277 -0.7608
16298TIP3   OH270384   2.414   0.578   5.907  0.6608 -0.3302  0.7860
16298TIP3    H170385   2.422   0.644   5.976  0.0360 -0.4485  0.9770
16298TIP3    H270386   2.422   0.494   5.953 -2.2613 -0.5089  1.1501
16299TIP3   OH270387   0.965   4.731   4.322  0.2769 -0.0841 -0.4825
16299TIP3    H170388   0.916   4.795   4.374 -0.6935 -1.7041  0.6748
16299TIP3    H270389   1.050   4.725   4.367  0.5685  0.7340 -0.8981
16300TIP3   OH270390   2.739   2.921  13.581 -0.4324  0.4646  0.5253
16300TIP3    H170391   2.797   2.852  13.612 -0.9844  0.5179  1.7142
16300TIP3    H270392   2.786   2.960  13.507  0.8089  0.1548  1.1249
16301TIP3   OH270393   5.587   2.532   3.006 -0.7670 -0.2778  0.2856
16301TIP3    H170394   5.595   2.445   3.046 -0.6640 -0.0144  0.8486
16301TIP3    H270395   5.562   2.514   2.915  1.5382 -0.9796 -0.2662
16302TIP3   OH270396   4.660   5.172   2.490 -0.0065  0.3337  0.2582
16302TIP3    H170397   4.725   5.133   2.432 -1.2484  1.1527 -1.7674
16302TIP3    H270398   4.636   5.101   2.550  1.4105 -0.4926 -0.1027
16303TIP3   OH270399   5.853   4.288   3.061 -0.0613 -0.9278  0.0245
16303TIP3    H170400   5.815   4.221   3.118 -0.9061 -0.9447 -0.5502
16303TIP3    H270401   5.828   4.371   3.100 -2.0640 -0.9001 -1.1679
16304TIP3   OH270402   2.314   3.056   1.121 -0.2206  0.1863  0.4991
16304TIP3    H170403   2.225   3.087   1.135 -0.6060  0.2448 -1.7294
16304TIP3    H270404   2.358   3.126   1.073  1.3435  0.5384  2.3083
16305TIP3   OH270405   4.921   6.203  11.389  0.4298 -0.1135 -0.1668
16305TIP3    H170406   4.903   6.258  11.313 -1.4188 -0.7703 -0.2560
16305TIP3    H270407   4.886   6.252  11.463 -0.9298 -0.9633 -0.2071
16306TIP3   OH270408   1.845   3.607   3.363  0.5735 -0.0452 -0.4896
16306TIP3    H170409   1.794   3.561   3.296 -1.3922  0.4465  0.5816
16306TIP3    H270410   1.930   3.563   3.363  0.2142 -0.8290 -2.4605
16307TIP3   OH270411   4.656   5.390  12.099 -0.0422  0.4572 -0.6277
16307TIP3    H170412   4.705   5.310  12.080  0.5859  0.8606 -0.7243
16307TIP3    H270413   4.716   5.443  12.150 -0.0415  1.3309 -1.5046
16308TIP3   OH270414   3.356   1.882  11.942 -0.1745 -0.4707 -0.0403
16308TIP3    H170415   3.394   1.968  11.923  0.3590 -0.3368  1.4454
16308TIP3    H270416   3.430   1.822  11.942 -0.2975 -0.6306  0.5703
16309TIP3   OH270417   3.345   6.222  13.389  0.1233 -0.3043  0.0841
16309TIP3    H170418   3.308   6.212  13.301 -0.2114 -1.2842  0.3129
16309TIP3    H270419   3.276   6.188  13.447  0.5278 -0.1085  0.6847
16310TIP3   OH270420   1.346   4.563  13.726  0.0541 -0.0156  0.3743
16310TIP3    H170421   1.349   4.635  13.663  1.9170 -1.1500 -0.9366
16310TIP3    H270422   1.402   4.592  13.798 -0.5576  0.5091  0.6517
16311TIP3   OH270423   2.340   6.180  11.553 -0.2262 -0.4512 -0.0184
16311TIP3    H170424   2.347   6.084  11.555 -1.3877 -0.5335  0.8102
16311TIP3    H270425   2.316   6.200  11.462 -0.0914 -0.9559 -0.1672
16312TIP3   OH270426   1.897   6.057   5.434  0.1720  0.3253 -0.2347
16312TIP3    H170427   1.816   6.046   5.385  1.0004  0.6831 -1.7401
16312TIP3    H270428   1.929   5.968   5.447  0.4640  0.2577 -1.2903
16313TIP3   OH270429   1.244   5.130   3.250 -0.1105  0.3097  0.0665
16313TIP3    H170430   1.275   5.197   3.311  1.5296  0.0914 -0.4734
16313TIP3    H270431   1.321   5.076   3.232 -0.4301  0.5660 -2.4588
16314TIP3   OH270432   3.163   5.521  14.383 -0.3317 -0.2927  0.0885
16314TIP3    H170433   3.214   5.588  14.339 -0.6419  1.2915  2.0038
16314TIP3    H270434   3.212   5.440  14.367  1.9135  0.8974  0.4563
16315TIP3   OH270435   0.824   0.364   2.469 -0.1596 -0.1305 -0.1197
16315TIP3    H170436   0.773   0.429   2.419  0.2198 -0.4269 -0.9131
16315TIP3    H270437   0.759   0.301   2.500 -0.3180 -0.4075 -0.9707
16316TIP3   OH270438   2.166   3.162   0.756  0.5256  0.4305 -0.2447
16316TIP3    H170439   2.130   3.155   0.667  1.5227 -0.4209 -0.6082
16316TIP3    H270440   2.167   3.256   0.774  1.5581  0.7313 -1.6844
16317TIP3   OH270441   4.184   4.429  16.821 -0.3185  0.3350  0.1150
16317TIP3    H170442   4.236   4.500  16.782 -0.9114  1.5586  1.4787
16317TIP3    H270443   4.100   4.433  16.776 -0.2155  0.1997 -0.0972
16318TIP3   OH270444   5.702   4.869   4.536  0.1261 -0.4624 -0.0310
16318TIP3    H170445   5.766   4.887   4.467 -0.0282  1.7270  0.3077
16318TIP3    H270446   5.729   4.926   4.609 -1.7142 -0.0878  0.4184
16319TIP3   OH270447   5.098   2.472  16.877 -0.3163  0.8315 -0.1440
16319TIP3    H170448   5.149   2.508  16.804 -0.0588  0.2234 -0.2634
16319TIP3    H270449   5.133   2.384  16.891 -0.5468  0.8432  0.5416
16320TIP3   OH270450   0.252   6.768   1.624 -0.0132 -0.2862 -0.2950
16320TIP3    H170451   0.317   6.801   1.562 -0.2887 -1.0860 -1.0066
16320TIP3    H270452   0.187   6.839   1.630  0.2114 -0.0474 -0.6149
16321TIP3   OH270453   2.823   5.063   3.008 -0.2262  0.1568 -0.3779
16321TIP3    H170454   2.817   5.050   2.914 -0.3085 -2.2441 -0.0978
16321TIP3    H270455   2.906   5.024   3.033 -0.6053 -0.0197  0.6619
16322TIP3   OH270456   6.737   6.741   4.128  0.4447  0.4769 -0.1135
16322TIP3    H170457   6.807   6.799   4.156  1.8763 -0.8975 -0.6898
16322TIP3    H270458   6.689   6.721   4.208  2.5395 -0.8756  0.8935
16323TIP3   OH270459   4.070   2.401   4.319 -0.1028  0.4240 -0.7616
16323TIP3    H170460   4.000   2.448   4.366 -0.0638  1.1818 -1.4455
16323TIP3    H270461   4.084   2.322   4.371 -1.5318  0.2068 -0.6561
16324TIP3   OH270462   3.108   3.889  12.960  0.4843  0.5498  0.1477
16324TIP3    H170463   3.045   3.919  13.026  0.9646 -0.6915  1.2130
16324TIP3    H270464   3.073   3.806  12.929  1.0840  0.3440  0.0087
16325TIP3   OH270465   0.735   2.279  11.024  0.3720 -0.0427 -0.3046
16325TIP3    H170466   0.828   2.276  11.046  0.7362 -2.4229 -1.7921
16325TIP3    H270467   0.729   2.340  10.952  0.8651 -0.1791 -0.4670
16326TIP3   OH270468   5.432   5.097  11.623  0.0731 -0.2151 -0.2856
16326TIP3    H170469   5.396   5.114  11.536  0.0899 -0.4963 -0.3461
16326TIP3    H270470   5.467   5.009  11.618  0.1167 -0.2146 -0.0068
16327TIP3   OH270471   6.323   4.440  10.777 -0.6128 -1.1947  0.0389
16327TIP3    H170472   6.390   4.508  10.785 -0.5217 -1.4794  3.0130
16327TIP3    H270473   6.262   4.473  10.711  0.5162  0.8030 -0.0736
16328TIP3   OH270474   6.436   0.756   6.062  0.4679  0.3405 -0.4784
16328TIP3    H170475   6.382   0.788   6.134  1.5888  2.4029 -0.4801
16328TIP3    H270476   6.373   0.729   5.995 -0.5854 -1.2683  1.0726
16329TIP3   OH270477   1.950   1.160  13.278 -0.2219  0.1774  0.0804
16329TIP3    H170478   2.026   1.104  13.292  1.6728  2.6847  0.5862
16329TIP3    H270479   1.908   1.164  13.364 -1.4308 -1.7717 -0.3596
16330TIP3   OH270480   3.270   3.663   5.251  0.0408  0.5975  0.2573
16330TIP3    H170481   3.278   3.717   5.329 -1.9689  0.3837  0.6676
16330TIP3    H270482   3.228   3.583   5.281  1.5461 -0.5812 -0.6232
16331TIP3   OH270483   5.143   1.825   3.764  0.3973  0.1536  0.6320
16331TIP3    H170484   5.182   1.859   3.845  0.4000 -0.6954  0.9896
16331TIP3    H270485   5.082   1.758   3.794  0.9773 -0.7190 -0.1187
16332TIP3   OH270486   3.648   5.048  12.376 -0.6900 -0.3154 -1.1081
16332TIP3    H170487   3.669   5.129  12.422  1.4755 -0.6835 -1.3693
16332TIP3    H270488   3.556   5.031  12.399 -0.5138  0.9843  0.7983
16333TIP3   OH270489   6.181   6.191   1.576  0.0563  0.3417 -0.0051
16333TIP3    H170490   6.153   6.099   1.575 -0.9156  0.6056  0.8818
16333TIP3    H270491   6.275   6.188   1.558  0.0920 -0.8517  0.2961
16334TIP3   OH270492   6.522   1.238  13.435 -0.2783 -0.1744 -0.1773
16334TIP3    H170493   6.480   1.177  13.374 -0.4083 -2.1250  1.7306
16334TIP3    H270494   6.451   1.267  13.493 -0.0904  1.3521 -0.6717
16335TIP3   OH270495   3.617   2.581  11.496 -0.2722 -0.1204  0.0555
16335TIP3    H170496   3.697   2.545  11.533  0.4796 -0.1399 -1.5156
16335TIP3    H270497   3.603   2.532  11.415 -1.0300  0.9045 -0.4635
16336TIP3   OH270498   2.524   1.965   0.254  0.4338 -0.1202 -0.4887
16336TIP3    H170499   2.546   1.875   0.230  2.0682 -0.1279  0.9272
16336TIP3    H270500   2.434   1.959   0.287  0.2659 -1.0927 -1.0640
16337TIP3   OH270501   6.645   6.515  14.105  0.4430  0.6016 -0.1173
16337TIP3    H170502   6.587   6.466  14.047  0.4092  2.1887 -1.4981
16337TIP3    H270503   6.699   6.448  14.148 -0.8876 -0.7458 -0.4610
16338TIP3   OH270504   0.632   3.738  13.906 -0.5718 -0.5238 -0.0427
16338TIP3    H170505   0.662   3.745  13.815 -1.5763  2.7065 -0.2460
16338TIP3    H270506   0.701   3.778  13.958  0.3743 -3.0816  0.8184
16339TIP3   OH270507   3.921   2.378   4.737 -0.4333 -0.3012 -0.1158
16339TIP3    H170508   3.875   2.320   4.797  0.1430 -0.0416  0.5913
16339TIP3    H270509   3.996   2.410   4.787 -1.4702  2.1576 -0.0006
16340TIP3   OH270510   3.593   2.763  15.969  0.5141 -0.0268  0.0477
16340TIP3    H170511   3.635   2.677  15.964  0.9703  0.1415  0.8073
16340TIP3    H270512   3.531   2.756  16.041  0.2333  0.1548 -0.1721
16341TIP3   OH270513   2.748   2.981   2.512  0.3286 -0.0218 -0.3718
16341TIP3    H170514   2.678   3.047   2.523 -0.9628 -1.3086 -0.5565
16341TIP3    H270515   2.814   3.006   2.577 -1.4792 -0.2297  1.6550
16342TIP3   OH270516   5.037   1.243  15.606 -0.1180  0.4797 -0.1331
16342TIP3    H170517   5.017   1.186  15.531 -0.8001 -0.3959  0.6814
16342TIP3    H270518   4.960   1.299  15.614 -0.1878  0.3533  0.0979
16343TIP3   OH270519   6.161   1.299  13.923  0.0802  0.0192  0.5578
16343TIP3    H170520   6.256   1.312  13.914  0.0871  0.7829  1.5492
16343TIP3    H270521   6.126   1.311  13.835  0.8350  0.3233  0.2895
16344TIP3   OH270522   4.109   1.609   2.565 -0.2808  0.5644 -0.2227
16344TIP3    H170523   4.106   1.526   2.613 -1.0823 -0.1737 -1.4817
16344TIP3    H270524   4.021   1.645   2.574 -0.2844  0.6760 -0.6839
16345TIP3   OH270525   5.488   5.384   2.158 -0.0500  0.1677  0.1274
16345TIP3    H170526   5.441   5.307   2.127  0.1693  0.8710 -2.0905
16345TIP3    H270527   5.577   5.373   2.125 -0.1604  1.6277 -0.7123
16346TIP3   OH270528   1.752   5.628   4.530 -0.0078 -0.1649 -0.0129
16346TIP3    H170529   1.698   5.578   4.592  0.2003 -1.2313 -0.6697
16346TIP3    H270530   1.766   5.712   4.574  1.3957 -1.3957  2.1206
16347TIP3   OH270531   2.712   3.803   0.381 -0.1496  0.1727  0.0936
16347TIP3    H170532   2.669   3.718   0.377  1.0550 -0.4254 -1.0712
16347TIP3    H270533   2.710   3.835   0.291  1.9719  0.0045 -0.0601
16348TIP3   OH270534   3.210   1.405  13.102 -0.2500  0.8670  0.7938
16348TIP3    H170535   3.247   1.451  13.027 -1.6230 -0.3315 -0.6768
16348TIP3    H270536   3.128   1.451  13.119 -0.0720  0.9650  1.4126
16349TIP3   OH270537   4.975   0.364  13.933  0.0179 -0.1276 -0.3890
16349TIP3    H170538   4.994   0.361  13.839 -0.7967 -0.8394 -0.5439
16349TIP3    H270539   4.928   0.447  13.945 -0.6464 -0.4387 -0.7721
16350TIP3   OH270540   2.638   1.461  14.689  0.7895  0.0307  0.7904
16350TIP3    H170541   2.646   1.518  14.613  1.8278  1.1834  1.7176
16350TIP3    H270542   2.579   1.391  14.661  0.6019  0.7987 -0.8320
16351TIP3   OH270543   3.598   3.542  11.852  0.1165 -0.9056  0.0709
16351TIP3    H170544   3.644   3.479  11.908 -1.5648 -0.1340  2.4732
16351TIP3    H270545   3.661   3.614  11.842 -0.0202 -0.3550  2.3866
16352TIP3   OH270546   2.325   3.834  14.995 -0.2523 -0.0704 -0.2541
16352TIP3    H170547   2.358   3.918  15.026 -1.1413  0.3814 -0.5309
16352TIP3    H270548   2.324   3.778  15.073 -0.3672  0.3924  0.0749
16353TIP3   OH270549   5.998   2.687  16.086  0.1888 -0.1651  0.3980
16353TIP3    H170550   5.919   2.738  16.067  0.7410  0.4787 -0.2776
16353TIP3    H270551   6.036   2.670  15.999  0.6215 -0.7371  0.6951
16354TIP3   OH270552   1.250   6.307   1.893 -0.7852  0.6102  0.2131
16354TIP3    H170553   1.206   6.263   1.820 -0.3053  0.6782 -0.1220
16354TIP3    H270554   1.261   6.397   1.864  0.9517  0.2581 -0.3681
16355TIP3   OH270555   1.283   1.801   0.373  0.3942  0.1386  0.1337
16355TIP3    H170556   1.277   1.806   0.277 -0.9046 -0.3053  0.1740
16355TIP3    H270557   1.334   1.722   0.390 -0.0409 -0.2182 -0.1909
16356TIP3   OH270558   1.474   3.909   3.989 -0.2141  0.1251  0.2293
16356TIP3    H170559   1.385   3.876   4.003  0.0194 -0.1877  1.0304
16356TIP3    H270560   1.508   3.855   3.918  0.2979 -1.6934  1.7674
16357TIP3   OH270561   3.427   6.197  14.002 -0.4238 -0.1258  0.0757
16357TIP3    H170562   3.505   6.222  14.052 -1.0050  0.8332  0.5503
16357TIP3    H270563   3.448   6.220  13.912  0.0233 -0.3370  0.1210
16358TIP3   OH270564   1.971   5.996  13.743  0.3766  0.2894 -0.6458
16358TIP3    H170565   1.931   5.976  13.827 -0.8842 -1.3043 -1.5533
16358TIP3    H270566   2.065   5.997  13.760  0.2876 -2.0668  0.4355
16359TIP3   OH270567   4.546   3.871  15.986  0.5529 -0.3587  0.7777
16359TIP3    H170568   4.586   3.888  15.901 -0.1889 -0.1367  0.4664
16359TIP3    H270569   4.602   3.917  16.048 -0.3174  1.6601  0.1550
16360TIP3   OH270570   2.496   4.606  16.572 -0.3279 -0.3197 -0.0474
16360TIP3    H170571   2.532   4.651  16.495 -1.0236 -0.2787 -0.3597
16360TIP3    H270572   2.572   4.567  16.615  0.1122 -0.0554 -0.5689
16361TIP3   OH270573   5.617   4.274  15.239 -0.9991 -0.1350 -0.1585
16361TIP3    H170574   5.548   4.317  15.290  1.8665  3.0624  1.4578
16361TIP3    H270575   5.651   4.206  15.296 -0.4923  0.7250  0.5987
16362TIP3   OH270576   3.789   5.221   0.303  0.3008  0.0953 -0.1742
16362TIP3    H170577   3.753   5.309   0.293 -0.5389 -0.1912  0.2091
16362TIP3    H270578   3.839   5.206   0.222 -2.1257 -0.2480 -1.7204
16363TIP3   OH270579   0.100   4.484   4.342  0.0892 -0.4676 -0.1564
16363TIP3    H170580   0.011   4.450   4.331 -0.2373  0.1577  0.4382
16363TIP3    H270581   0.148   4.450   4.267 -1.5793  2.1851 -2.6632
16364TIP3   OH270582   1.554   0.414   4.227  0.1728  0.1407 -0.4879
16364TIP3    H170583   1.584   0.498   4.193 -1.5449  0.6074 -0.9670
16364TIP3    H270584   1.463   0.407   4.196 -0.0422 -1.4206  0.4006
16365TIP3   OH270585   1.631   1.227  15.214 -0.4278 -0.2378  0.2030
16365TIP3    H170586   1.632   1.141  15.257 -0.5383 -0.3826 -0.0747
16365TIP3    H270587   1.658   1.288  15.281  3.6477 -0.9118 -0.5793
16366TIP3   OH270588   3.745   5.484   1.638  0.0289 -0.7475 -0.0615
16366TIP3    H170589   3.827   5.506   1.682 -1.3939  0.7080  2.0181
16366TIP3    H270590   3.712   5.568   1.606 -1.4526 -1.0603  0.5966
16367TIP3   OH270591   1.708   6.570  12.854  0.0861 -0.3911 -0.4963
16367TIP3    H170592   1.623   6.610  12.872 -0.1739 -1.8191  1.7424
16367TIP3    H270593   1.768   6.613  12.913  0.6695 -0.3215 -1.1305
16368TIP3   OH270594   3.388   6.249   1.262 -0.1059 -0.3208  0.3214
16368TIP3    H170595   3.394   6.292   1.347 -0.3161 -0.1559  0.2522
16368TIP3    H270596   3.464   6.280   1.214 -0.2970  0.0366  0.2441
16369TIP3   OH270597   5.410   3.296   4.531  0.2459 -0.5032 -0.1915
16369TIP3    H170598   5.429   3.347   4.452 -1.3124 -0.4346 -0.5448
16369TIP3    H270599   5.350   3.351   4.580  1.7774 -0.2093  1.4546
16370TIP3   OH270600   0.085   4.403  13.108  0.1848 -0.2571 -0.1138
16370TIP3    H170601   0.161   4.365  13.153  0.5547  0.8276  0.2053
16370TIP3    H270602   0.079   4.492  13.143 -1.5368 -0.4821  0.2310
16371TIP3   OH270603   4.721   0.729  16.456 -0.0707 -0.2102  0.5827
16371TIP3    H170604   4.707   0.799  16.391 -0.9868 -1.4028 -0.5517
16371TIP3    H270605   4.700   0.771  16.539  1.4453  1.4522  0.2022
16372TIP3   OH270606   4.914   3.570  13.044  0.3201  0.0834  0.0315
16372TIP3    H170607   4.889   3.496  13.099 -1.8335  0.8568  0.1658
16372TIP3    H270608   4.844   3.634  13.056  1.1715  1.3869 -1.5374
16373TIP3   OH270609   3.273   6.585  12.427 -0.3987 -0.2847  0.1253
16373TIP3    H170610   3.271   6.680  12.435 -2.0076 -0.3348  0.5386
16373TIP3    H270611   3.190   6.562  12.386  0.0419 -1.5133 -0.1372
16374TIP3   OH270612   5.938   3.784  16.742 -0.7784 -0.6688  0.3991
16374TIP3    H170613   5.981   3.775  16.827  0.6792 -1.7877 -0.4016
16374TIP3    H270614   5.979   3.717  16.688 -4.2465 -2.5512 -0.1876
16375TIP3   OH270615   4.057   0.654   2.338 -0.3043 -0.5322  0.2886
16375TIP3    H170616   4.045   0.736   2.290  2.0385  0.3433  1.0534
16375TIP3    H270617   3.987   0.652   2.402 -0.7194  0.5926 -0.1158
16376TIP3   OH270618   4.673   6.711   3.252 -0.2695  0.3187  0.1923
16376TIP3    H170619   4.713   6.646   3.194 -0.2879 -0.8938  1.4907
16376TIP3    H270620   4.632   6.660   3.322 -1.3320  1.6836  0.6157
16377TIP3   OH270621   5.649   1.215   2.036  0.1904 -0.2318 -0.2497
16377TIP3    H170622   5.743   1.232   2.036 -0.0456  1.2868 -0.2407
16377TIP3    H270623   5.626   1.209   2.128  0.5719 -2.7427 -0.2519
16378TIP3   OH270624   0.983   4.651  16.676  0.4767  0.4556 -0.4224
16378TIP3    H170625   0.962   4.615  16.762 -0.3699  2.0539  0.0839
16378TIP3    H270626   0.898   4.658  16.632  0.7858  0.5831 -0.9983
16379TIP3   OH270627   4.342   0.452   2.109 -0.1651  0.5032  0.4151
16379TIP3    H170628   4.337   0.421   2.200 -0.8331  1.5998  0.7774
16379TIP3    H270629   4.318   0.544   2.115 -0.7282  0.4586 -0.9531
16380TIP3   OH270630   4.737   2.761  13.831  0.3905 -0.1732  0.5477
16380TIP3    H170631   4.706   2.805  13.911  2.3490  1.2557  0.6069
16380TIP3    H270632   4.771   2.677  13.862 -0.4225 -0.3577  0.9528
16381TIP3   OH270633   2.713   1.090   2.328 -0.1209 -0.5847  0.1865
16381TIP3    H170634   2.635   1.036   2.340 -1.4980  0.8721 -1.6123
16381TIP3    H270635   2.762   1.046   2.258  0.2366 -1.0188  0.7023
16382TIP3   OH270636   0.693   2.731   3.533 -0.0872 -0.5151 -0.5070
16382TIP3    H170637   0.688   2.662   3.599 -1.5051 -0.0886 -0.1304
16382TIP3    H270638   0.610   2.777   3.540  1.4139  2.3264  0.4493
16383TIP3   OH270639   5.959   2.568   5.527  0.0499  0.3862 -0.3159
16383TIP3    H170640   5.877   2.555   5.574  0.2982 -3.2994 -0.6654
16383TIP3    H270641   5.934   2.611   5.446 -1.2438  1.0010  0.3798
16384TIP3   OH270642   2.497   6.157   3.105 -0.0075 -0.1201  0.0376
16384TIP3    H170643   2.567   6.185   3.046 -0.5298  1.5010  0.1254
16384TIP3    H270644   2.452   6.239   3.128 -2.2914 -1.1713 -0.4713
16385TIP3   OH270645   5.568   1.813  12.286  0.2101 -0.1050 -0.5261
16385TIP3    H170646   5.515   1.733  12.292 -0.3910  0.3764  0.9485
16385TIP3    H270647   5.655   1.786  12.315  0.1122 -0.3027 -0.4149
16386TIP3   OH270648   6.096   3.861  10.767  0.3164  0.0808  0.3043
16386TIP3    H170649   6.009   3.898  10.783 -0.5009 -1.0009 -1.3616
16386TIP3    H270650   6.083   3.766  10.769  1.9778 -0.1831  2.4808
16387TIP3   OH270651   6.464   5.387   3.130 -0.3305  0.2532 -0.0703
16387TIP3    H170652   6.371   5.406   3.140 -0.3183  0.5216 -0.4468
16387TIP3    H270653   6.493   5.361   3.217 -0.3330  2.0361  0.5023
16388TIP3   OH270654   1.330   2.061   5.648  0.1582 -0.3911  0.2840
16388TIP3    H170655   1.319   2.089   5.739 -0.0383  1.9595 -0.3734
16388TIP3    H270656   1.421   2.033   5.642  0.9645  1.9343  0.6757
16389TIP3   OH270657   6.097   2.028   3.251  0.1629 -0.3123 -0.0530
16389TIP3    H170658   6.102   2.022   3.156  1.2982  0.0036 -0.0235
16389TIP3    H270659   6.181   2.067   3.278 -0.4408  0.3113  1.0128
16390TIP3   OH270660   5.879   5.928  12.900  0.2370  0.4072  0.0566
16390TIP3    H170661   5.846   5.954  12.986  0.5232 -0.9107  0.5991
16390TIP3    H270662   5.830   5.981  12.837  1.1267  2.5710  1.0675
16391TIP3   OH270663   2.405   6.636  14.234 -0.4697  0.0383 -0.5789
16391TIP3    H170664   2.485   6.660  14.187 -0.2206 -1.1776 -0.8178
16391TIP3    H270665   2.432   6.562  14.289 -1.4604 -0.4538 -0.7446
16392TIP3   OH270666   1.633   3.706   3.064 -0.0099  0.3702  0.2991
16392TIP3    H170667   1.717   3.718   3.020 -0.0292 -0.0797  0.1350
16392TIP3    H270668   1.606   3.617   3.041 -0.1631  0.2349  0.9854
16393TIP3   OH270669   5.483   6.416  15.335 -0.1808  0.1712 -0.3483
16393TIP3    H170670   5.441   6.427  15.420  1.2310 -0.8218  0.5398
16393TIP3    H270671   5.418   6.370  15.281 -0.7375 -0.0956  0.5333
16394TIP3   OH270672   3.048   0.827  10.944 -0.0479  0.2573  0.1731
16394TIP3    H170673   3.045   0.885  10.868  0.4429 -1.0601 -0.8962
16394TIP3    H270674   2.978   0.763  10.929  1.8761 -1.7635 -0.6991
16395TIP3   OH270675   0.751   1.644   3.731 -0.4059 -0.1678  0.0694
16395TIP3    H170676   0.792   1.579   3.788 -0.1878 -0.6347 -0.6102
16395TIP3    H270677   0.772   1.728   3.773  0.8643 -0.4253 -0.0161
16396TIP3   OH270678   3.952   6.137  16.865  0.7008  0.3566 -0.0718
16396TIP3    H170679   3.938   6.042  16.869 -0.5087  0.4951 -0.6874
16396TIP3    H270680   4.036   6.147  16.820  1.6367 -0.4427  1.3974
16397TIP3   OH270681   5.963   4.738  12.644 -0.1466  0.0972  0.0596
16397TIP3    H170682   6.043   4.689  12.625 -0.6461 -0.7184 -0.0014
16397TIP3    H270683   5.992   4.829  12.654  0.7825 -0.1884  0.0514
16398TIP3   OH270684   4.660   6.152  14.659 -0.0591 -0.4759 -0.1380
16398TIP3    H170685   4.601   6.107  14.719  0.0630 -2.1395 -1.2018
16398TIP3    H270686   4.639   6.116  14.573  0.4433  1.1220 -0.9816
16399TIP3   OH270687   1.320   2.158   5.915 -0.5587  0.6706  0.3913
16399TIP3    H170688   1.388   2.225   5.908 -1.0927  1.0916 -0.9005
16399TIP3    H270689   1.245   2.204   5.953  0.2261 -0.0982  3.1628
16400TIP3   OH270690   5.477   2.305   1.758 -0.1929  0.4621  0.5557
16400TIP3    H170691   5.510   2.289   1.669 -0.5074  0.6804  0.3976
16400TIP3    H270692   5.441   2.221   1.786  1.8905 -0.2268  1.3418
16401TIP3   OH270693   5.153   3.358   5.371  0.0073 -0.3052 -0.5044
16401TIP3    H170694   5.077   3.384   5.422  1.2793  0.2536  1.2165
16401TIP3    H270695   5.130   3.272   5.336 -1.9317  0.4714 -1.2182
16402TIP3   OH270696   2.201   3.210   3.780 -0.2869 -0.4414  0.0409
16402TIP3    H170697   2.180   3.136   3.722 -1.1782 -0.5819  0.5270
16402TIP3    H270698   2.171   3.182   3.866  0.0946  0.1776  0.3797
16403TIP3   OH270699   0.919   1.775  12.700  0.4267  0.0934  0.4567
16403TIP3    H170700   1.007   1.749  12.672  0.2365 -0.7216  0.6099
16403TIP3    H270701   0.933   1.820  12.783  0.5027 -2.2111  1.7863
16404TIP3   OH270702   1.012   2.217  14.296  0.1907  0.2345  0.3809
16404TIP3    H170703   1.084   2.259  14.249 -0.5893  0.2078 -0.8797
16404TIP3    H270704   0.992   2.277  14.368 -0.3507  1.6315 -0.8952
16405TIP3   OH270705   0.085   2.196   0.956 -0.3435  0.2953 -0.3977
16405TIP3    H170706   0.158   2.250   0.988 -1.3493  0.9983  0.8231
16405TIP3    H270707   0.107   2.178   0.865  2.8672 -2.0990  0.6756
16406TIP3   OH270708   2.864   5.095  13.856 -0.3748  0.2533  0.8273
16406TIP3    H170709   2.789   5.037  13.866 -0.2793 -0.1694 -0.6914
16406TIP3    H270710   2.833   5.163  13.796  0.6939 -0.3734 -0.4576
16407TIP3   OH270711   5.881   3.380  15.244 -0.5879 -0.4944  0.0748
16407TIP3    H170712   5.917   3.421  15.165 -0.8569 -1.2929 -0.4801
16407TIP3    H270713   5.939   3.409  15.314  1.2405 -1.7997 -0.7938
16408TIP3   OH270714   2.474   3.245   5.324  0.2025 -0.2470  0.4390
16408TIP3    H170715   2.427   3.329   5.327  0.6137  0.0206 -0.2619
16408TIP3    H270716   2.415   3.186   5.278 -0.7740 -0.8250  2.3037
16409TIP3   OH270717   0.132   1.608  15.787  0.3370  0.4244  0.0751
16409TIP3    H170718   0.130   1.697  15.822  0.8322  0.3954  0.1787
16409TIP3    H270719   0.135   1.551  15.863 -2.3814  0.1988  0.1174
16410TIP3   OH270720   2.713   3.367  16.219 -0.2441 -0.0452  0.0140
16410TIP3    H170721   2.757   3.435  16.168  1.7143 -1.0888  0.2358
16410TIP3    H270722   2.632   3.408  16.250 -0.3183  1.3605 -1.9261
16411TIP3   OH270723   1.874   2.407  16.792  0.1694  0.3131  0.7343
16411TIP3    H170724   1.817   2.340  16.829 -0.8487 -0.1362 -1.4948
16411TIP3    H270725   1.940   2.422  16.859 -0.6276 -1.6071  2.0239
16412TIP3   OH270726   0.207   3.579  15.089 -0.2932  0.1762  0.1857
16412TIP3    H170727   0.268   3.571  15.016 -0.5047  1.3989 -0.1510
16412TIP3    H270728   0.250   3.638  15.151  0.0997 -1.2222  1.3173
16413TIP3   OH270729   5.487   5.187   1.394  0.4740 -0.2646  0.3849
16413TIP3    H170730   5.565   5.229   1.359  0.0375 -1.5750 -2.4553
16413TIP3    H270731   5.460   5.243   1.467  3.7429  0.4654  1.1733
16414TIP3   OH270732   1.447   2.315   0.551  0.0417 -0.3177 -0.2566
16414TIP3    H170733   1.400   2.398   0.548 -0.2082 -0.3599  1.2890
16414TIP3    H270734   1.464   2.301   0.645  0.0310 -2.0313 -0.4786
16415TIP3   OH270735   1.504   1.300   4.410  0.5642  0.6755 -0.0704
16415TIP3    H170736   1.549   1.353   4.344  1.9001  0.8858  0.9648
16415TIP3    H270737   1.567   1.231   4.432  0.2986  0.8369  1.2508
16416TIP3   OH270738   2.419   6.581   1.330 -0.5452 -0.2271  1.0432
16416TIP3    H170739   2.472   6.505   1.354 -0.7513 -0.0922  1.9943
16416TIP3    H270740   2.443   6.600   1.240  1.6191  0.3136  1.6706
16417TIP3   OH270741   6.406   5.379  11.577  0.5234 -0.3094  0.3085
16417TIP3    H170742   6.341   5.344  11.638 -0.1541  0.3711 -0.0058
16417TIP3    H270743   6.365   5.371  11.491  0.6405  0.5777  0.1610
16418TIP3   OH270744   2.715   2.182   3.665 -0.0680 -0.3929 -0.6653
16418TIP3    H170745   2.731   2.119   3.735 -1.9119 -2.0015 -1.6016
16418TIP3    H270746   2.621   2.199   3.670  0.1519  1.1796 -1.3722
16419TIP3   OH270747   2.862   0.208  10.100  0.4431 -0.2609  0.2568
16419TIP3    H170748   2.871   0.227  10.193  0.7987  1.2930 -0.0682
16419TIP3    H270749   2.828   0.288  10.062  0.9744 -0.6242 -1.0607
16420TIP3   OH270750   2.693   5.076  15.293 -0.3839  0.0184 -0.3828
16420TIP3    H170751   2.703   5.053  15.385 -0.9492 -1.2111 -0.6009
16420TIP3    H270752   2.771   5.040  15.250 -1.3531 -1.7752 -0.7529
16421TIP3   OH270753   1.472   2.111  16.698 -0.8774  0.1209  0.2909
16421TIP3    H170754   1.474   2.120  16.793  2.0066  0.4351  0.3028
16421TIP3    H270755   1.516   2.191  16.666 -2.0765  0.1698 -1.3329
16422TIP3   OH270756   3.108   1.948   5.646 -0.2006 -0.5473  0.2802
16422TIP3    H170757   3.012   1.950   5.648 -0.2325 -1.6011  1.8623
16422TIP3    H270758   3.135   2.027   5.693 -0.3341 -1.0675  1.2518
16423TIP3   OH270759   6.064   6.153  10.616  0.0895  0.0553  0.3663
16423TIP3    H170760   6.025   6.120  10.697  1.4920  0.1914  1.1288
16423TIP3    H270761   6.052   6.248  10.620  0.6793  0.1238  0.7262
16424TIP3   OH270762   4.674   4.321  12.578 -0.0700 -0.4992  0.6236
16424TIP3    H170763   4.663   4.244  12.635 -1.7969 -1.0214 -0.3178
16424TIP3    H270764   4.713   4.285  12.498 -1.0505 -0.4499  0.1128
16425TIP3   OH270765   0.356   6.313  11.622 -0.6251 -0.3649  0.4876
16425TIP3    H170766   0.287   6.363  11.579  0.6421  1.6616  0.6659
16425TIP3    H270767   0.437   6.345  11.582  0.2627 -3.0804 -0.1386
16426TIP3   OH270768   6.038   4.452   6.271 -0.7740 -0.3183 -0.4685
16426TIP3    H170769   6.095   4.376   6.262 -0.2751 -0.1397  0.9040
16426TIP3    H270770   6.019   4.458   6.365 -2.2529  0.2203 -0.7629
16427TIP3   OH270771   1.510   6.652  14.118  0.0547 -0.2796 -0.0959
16427TIP3    H170772   1.589   6.600  14.133  0.5464  0.0239 -1.4770
16427TIP3    H270773   1.448   6.590  14.079  0.4026 -0.0093 -1.1014
16428TIP3   OH270774   2.058   6.658  12.348 -0.3471 -0.0717 -0.0238
16428TIP3    H170775   2.053   6.611  12.431  0.5596  0.3679  0.2998
16428TIP3    H270776   1.973   6.644  12.306 -1.5865  1.3515  1.8795
16429TIP3   OH270777   1.422   1.315   3.428 -0.3940 -0.0667  0.5259
16429TIP3    H170778   1.463   1.247   3.374 -0.1241 -0.5860  1.3662
16429TIP3    H270779   1.333   1.322   3.393 -0.4968 -1.0159  0.5661
16430TIP3   OH270780   1.798   0.796   1.216 -0.6522 -0.0838 -0.5387
16430TIP3    H170781   1.791   0.702   1.204  0.8878 -0.6061  1.9982
16430TIP3    H270782   1.831   0.829   1.133 -0.8967 -1.8170 -1.3503
16431TIP3   OH270783   0.384   1.881  12.173  0.1313  0.4928  0.4551
16431TIP3    H170784   0.424   1.795  12.160  2.3070  1.0817  2.5384
16431TIP3    H270785   0.310   1.864  12.232 -1.1003 -0.2380 -1.2239
16432TIP3   OH270786   5.391   4.384   2.814 -0.4215 -0.8658  0.3594
16432TIP3    H170787   5.480   4.411   2.790 -0.4723  0.0986  1.1775
16432TIP3    H270788   5.403   4.318   2.882 -0.3064  0.5019  1.7306
16433TIP3   OH270789   1.207   2.347  13.709 -0.9646 -0.1288  0.3838
16433TIP3    H170790   1.272   2.392  13.654 -0.4690  0.2901  1.2962
16433TIP3    H270791   1.243   2.260  13.723 -1.5223 -0.5539 -0.6814
16434TIP3   OH270792   2.027   6.209  11.121 -0.1974 -0.1053  0.6527
16434TIP3    H170793   2.001   6.299  11.105  0.3198 -0.0210  0.2703
16434TIP3    H270794   2.041   6.172  11.034 -0.5475 -0.5983  0.7995
16435TIP3   OH270795   5.156   2.489   2.794  0.1358  0.1249 -0.0796
16435TIP3    H170796   5.066   2.467   2.816 -0.4123  1.3075 -1.0349
16435TIP3    H270797   5.179   2.561   2.852  1.4758 -1.8916  2.1112
16436TIP3   OH270798   2.451   2.787   0.586 -0.6793 -0.4978 -0.2255
16436TIP3    H170799   2.536   2.821   0.557 -0.8526 -0.4966 -0.7362
16436TIP3    H270800   2.465   2.693   0.596 -0.6020 -0.4894 -0.2528
16437TIP3   OH270801   1.093   3.325  16.622  0.0818 -0.3365  0.4654
16437TIP3    H170802   1.137   3.388  16.565  2.4160 -1.2900  1.0903
16437TIP3    H270803   1.001   3.351  16.620  0.6172  1.7104 -1.0298
16438TIP3   OH270804   1.863   6.495   2.431  0.5537 -0.0615  0.1057
16438TIP3    H170805   1.909   6.463   2.353  2.0988  0.0906  0.9198
16438TIP3    H270806   1.867   6.590   2.424  0.5484 -0.0472  0.2927
16439TIP3   OH270807   1.517   0.396  15.330 -0.7533  0.3810  0.0408
16439TIP3    H170808   1.585   0.423  15.268 -0.5130 -0.4124 -0.0573
16439TIP3    H270809   1.554   0.415  15.416 -1.3948  2.2005 -0.0507
16440TIP3   OH270810   2.174   1.818   4.106  0.1442  0.2040  0.6868
16440TIP3    H170811   2.094   1.768   4.120 -0.3552  0.9499  0.5626
16440TIP3    H270812   2.159   1.900   4.153  0.2618  0.9200 -0.4831
16441TIP3   OH270813   2.461   3.422   1.596 -0.0458  0.0501 -0.3029
16441TIP3    H170814   2.483   3.476   1.519 -0.9250  0.9871  0.0847
16441TIP3    H270815   2.387   3.369   1.568 -1.6940  1.8405  0.4688
16442TIP3   OH270816   0.062   6.310  12.738  0.0343 -0.7039  0.3723
16442TIP3    H170817   0.088   6.336  12.826 -0.5671  0.2714  0.2793
16442TIP3    H270818  -0.024   6.271  12.748 -1.2604  1.8154 -0.0514
16443TIP3   OH270819   4.851   0.917   6.041 -0.4361 -0.7378 -0.0692
16443TIP3    H170820   4.816   0.830   6.023 -1.8861  0.3824 -3.5726
16443TIP3    H270821   4.779   0.977   6.020  1.0184  1.3694  0.6103
16444TIP3   OH270822   2.758   6.259  13.255  0.0690  0.8960 -0.3141
16444TIP3    H170823   2.748   6.210  13.337 -1.3791  2.6853  0.6518
16444TIP3    H270824   2.853   6.264  13.241  0.2891 -1.3749 -0.0066
16445TIP3   OH270825   2.890   6.166  15.214  0.3752  0.2133 -0.9712
16445TIP3    H170826   2.850   6.248  15.243  0.4069 -0.0338 -0.2201
16445TIP3    H270827   2.967   6.193  15.164  0.9388  0.6246  0.0956
16446TIP3   OH270828   6.571   4.832  12.472 -0.8737  0.0689  0.5218
16446TIP3    H170829   6.608   4.920  12.469 -0.1908 -0.2311 -1.1370
16446TIP3    H270830   6.644   4.776  12.499  0.0203 -0.5020 -2.6085
16447TIP3   OH270831   5.759   2.711  15.174  0.3552 -0.5454 -0.0829
16447TIP3    H170832   5.788   2.727  15.084 -0.1653 -0.1253 -0.1829
16447TIP3    H270833   5.831   2.663  15.214  1.0466  0.1637 -0.4302
16448TIP3   OH270834   2.051   6.511  12.562 -0.2670  0.8318 -0.4297
16448TIP3    H170835   2.101   6.529  12.641 -0.6914  1.4410 -0.2975
16448TIP3    H270836   1.984   6.447  12.589 -0.3988  1.0248 -0.3009
16449TIP3   OH270837   2.883   3.518   3.258  0.3039  0.0954  0.1776
16449TIP3    H170838   2.884   3.477   3.172  2.2030  0.3603  0.0253
16449TIP3    H270839   2.796   3.557   3.266 -0.9349 -2.3600 -0.4040
16450TIP3   OH270840   4.778   1.994   3.234 -0.6111  0.0863  0.0889
16450TIP3    H170841   4.866   1.958   3.228 -1.1402 -1.5126  1.1636
16450TIP3    H270842   4.765   2.010   3.328 -0.6528  2.5795 -0.2668
16451TIP3   OH270843   5.630   5.962   2.428 -0.4820 -0.1184  0.0467
16451TIP3    H170844   5.567   6.031   2.446  0.5399  0.0662  4.0568
16451TIP3    H270845   5.592   5.885   2.471  1.1558 -0.4322  0.9919
16452TIP3   OH270846   5.896   6.690   2.970 -0.1110 -0.2826  0.1349
16452TIP3    H170847   5.828   6.697   2.903 -0.3346  0.3747  0.4228
16452TIP3    H270848   5.912   6.596   2.978 -0.6130 -0.4098 -0.3108
16453TIP3   OH270849   5.257   6.808  13.694  0.2250 -0.5106 -0.1072
16453TIP3    H170850   5.251   6.721  13.733  1.4565 -0.2444  0.7488
16453TIP3    H270851   5.167   6.831  13.671 -0.2199 -1.6659  0.3951
16454TIP3   OH270852   6.524   6.770  13.544  0.1790  0.1657 -0.3875
16454TIP3    H170853   6.588   6.776  13.473 -1.3489 -0.6698 -1.9047
16454TIP3    H270854   6.577   6.752  13.622  1.6781 -3.3500 -1.9845
16455TIP3   OH270855   4.070   3.875   2.445  0.1268 -0.2930 -0.0686
16455TIP3    H170856   4.057   3.790   2.488 -0.1870 -0.3734 -0.3153
16455TIP3    H270857   4.065   3.855   2.352  0.9922 -0.1466 -0.1477
16456TIP3   OH270858   1.904   5.712  15.865  0.2045  0.3209 -0.4324
16456TIP3    H170859   1.848   5.773  15.818 -0.2400  0.8405  0.7426
16456TIP3    H270860   1.854   5.688  15.943  1.5017  0.6055  0.5184
16457TIP3   OH270861   5.215   3.485   4.354  0.1353 -0.0212 -0.1410
16457TIP3    H170862   5.269   3.406   4.346 -1.2004 -0.9659 -0.0664
16457TIP3    H270863   5.150   3.476   4.285 -0.3799  0.7379  0.2442
16458TIP3   OH270864   5.731   4.587   4.705  0.4828 -0.5074  0.4387
16458TIP3    H170865   5.750   4.564   4.614 -0.9683 -3.0615  0.7033
16458TIP3    H270866   5.714   4.681   4.702  1.1033 -0.4044 -1.8055
16459TIP3   OH270867   6.842   6.021   0.184 -0.1685  0.0852 -0.3426
16459TIP3    H170868   6.755   6.005   0.221 -0.8489  1.2656 -1.3482
16459TIP3    H270869   6.881   5.934   0.176 -1.2618 -0.4684  0.1351
16460TIP3   OH270870   5.910   5.959  12.296 -0.1538 -0.7434 -0.0475
16460TIP3    H170871   5.883   6.008  12.218  0.5291 -1.6263 -0.8697
16460TIP3    H270872   5.837   5.898  12.313 -0.7444  0.1272  0.6251
16461TIP3   OH270873   5.183   0.984   3.964  0.1267 -0.1026  0.0608
16461TIP3    H170874   5.124   1.044   3.919  0.4280  0.7781  0.8134
16461TIP3    H270875   5.183   0.905   3.910  0.3197  0.8428 -1.3661
16462TIP3   OH270876   0.625   0.255   5.297 -0.4947  0.1336 -0.3639
16462TIP3    H170877   0.542   0.288   5.262  0.8931  1.3963 -2.7711
16462TIP3    H270878   0.684   0.331   5.293  0.6135 -0.5400  1.9493
16463TIP3   OH270879   3.514   3.066   0.315 -0.1202  0.1092  0.0781
16463TIP3    H170880   3.497   3.046   0.223  0.7596 -0.0964 -0.0431
16463TIP3    H270881   3.493   3.160   0.323 -0.9867 -0.0562 -0.1295
16464TIP3   OH270882   5.972   0.084  12.918 -0.2378  0.4813 -0.0958
16464TIP3    H170883   5.981  -0.002  12.959  1.0330  0.7061  0.1318
16464TIP3    H270884   6.057   0.125  12.929  0.0809  0.6792 -2.6831
16465TIP3   OH270885   4.698   4.072   4.015  0.0523 -0.0884 -0.2641
16465TIP3    H170886   4.787   4.036   4.013  0.3314  0.6108 -0.8941
16465TIP3    H270887   4.693   4.115   4.100  0.2105 -0.3758 -0.1039
16466TIP3   OH270888   5.615   5.934  11.605  0.2760  0.3306 -0.6784
16466TIP3    H170889   5.596   5.925  11.511 -0.1383 -0.5864 -0.5185
16466TIP3    H270890   5.662   5.855  11.628  0.1650  0.4398 -0.0566
16467TIP3   OH270891   1.578   1.031   0.832  0.0084 -0.5594  0.7197
16467TIP3    H170892   1.504   1.013   0.774  1.1830 -1.3134 -0.6229
16467TIP3    H270893   1.648   1.061   0.774  1.4333 -1.9472  1.6189
16468TIP3   OH270894   6.242   0.315  14.895  0.0245  0.2510 -0.0961
16468TIP3    H170895   6.211   0.247  14.835 -1.0486  1.4172 -0.9124
16468TIP3    H270896   6.319   0.277  14.937 -0.5047 -1.4408 -0.5720
16469TIP3   OH270897   6.666   3.314  14.048 -0.1097  0.2982  0.6533
16469TIP3    H170898   6.707   3.399  14.062 -0.1746  0.2492  1.1861
16469TIP3    H270899   6.611   3.301  14.126 -0.3640 -0.0773  0.4174
16470TIP3   OH270900   3.038   6.507   0.960  0.0917 -0.2013  0.0547
16470TIP3    H170901   3.120   6.458   0.965  0.8520  1.0184 -0.1090
16470TIP3    H270902   3.051   6.570   0.890 -1.1400 -0.2360 -0.2349
16471TIP3   OH270903   6.445   5.567  13.625  0.1027 -0.4962  0.5313
16471TIP3    H170904   6.359   5.527  13.609  1.0128 -1.7498 -1.6113
16471TIP3    H270905   6.438   5.654  13.587  0.0946 -1.0019 -0.6638
16472TIP3   OH270906   0.985   0.546   1.074  0.0495 -0.1175  0.1821
16472TIP3    H170907   1.060   0.486   1.071  1.7779  1.9577 -0.9169
16472TIP3    H270908   0.927   0.516   1.004  0.7372 -0.6956 -0.1503
16473TIP3   OH270909   5.755   0.636  13.032  0.2279  0.2730 -0.3925
16473TIP3    H170910   5.733   0.687  13.109  0.8592  1.5241 -1.0131
16473TIP3    H270911   5.841   0.598  13.051 -1.2039 -2.5201  0.9985
16474TIP3   OH270912   4.632   6.470   3.116 -0.0407  0.0326  0.1138
16474TIP3    H170913   4.699   6.404   3.132 -0.2024  0.2290  1.6678
16474TIP3    H270914   4.550   6.427   3.142  0.0035  1.2741  2.5419
16475TIP3   OH270915   2.783   2.548   5.474  0.1112  0.5512  0.0400
16475TIP3    H170916   2.751   2.612   5.537  0.3131  0.1988  0.5049
16475TIP3    H270917   2.877   2.561   5.471  0.1436  0.3294  0.0769
16476TIP3   OH270918   1.213   2.222   4.146  0.3352  0.2853  0.9067
16476TIP3    H170919   1.283   2.189   4.202  0.7150  0.2778  0.4329
16476TIP3    H270920   1.163   2.280   4.202  0.6258  0.1635  1.2966
16477TIP3   OH270921   2.222   3.832  13.866 -0.1643  0.8535 -0.3967
16477TIP3    H170922   2.177   3.768  13.921 -2.2530  1.1718 -1.6631
16477TIP3    H270923   2.292   3.782  13.823  0.8600  0.3762  1.6742
16478TIP3   OH270924   3.395   3.402  14.531  0.6860  0.1151  0.4766
16478TIP3    H170925   3.453   3.394  14.607  0.4673 -1.1075  0.5323
16478TIP3    H270926   3.316   3.443  14.565  0.6186 -0.3605  0.9016
16479TIP3   OH270927   4.593   1.057  12.191  0.3552 -0.0152  0.0264
16479TIP3    H170928   4.552   1.142  12.173  1.0286  0.7273  1.7573
16479TIP3    H270929   4.533   0.993  12.152 -0.6962  1.1906 -0.4350
16480TIP3   OH270930   5.601   1.916  12.613 -0.2990  0.3579  0.1017
16480TIP3    H170931   5.526   1.976  12.616 -0.5108  0.0763  0.6774
16480TIP3    H270932   5.561   1.829  12.606  0.0140  0.3129 -1.6257
16481TIP3   OH270933   5.322   1.781  13.694  0.2627 -0.3911 -0.9260
16481TIP3    H170934   5.400   1.727  13.697  0.0333 -0.7642 -1.4441
16481TIP3    H270935   5.273   1.748  13.618 -1.7274 -1.9765  0.9091
16482TIP3   OH270936   6.096   1.192   4.248 -0.4148  0.1751 -0.1279
16482TIP3    H170937   6.056   1.111   4.281 -0.8757  0.3520 -0.2539
16482TIP3    H270938   6.089   1.253   4.320  1.8819 -0.5065  0.7907
16483TIP3   OH270939   1.107   6.691  11.257  0.3678 -0.0744  0.0185
16483TIP3    H170940   1.178   6.703  11.321 -0.0228  0.9743  0.2695
16483TIP3    H270941   1.027   6.706  11.307 -0.0838 -1.5384 -0.1944
16484TIP3   OH270942   4.861   2.927   3.975 -0.1661 -0.0395 -0.5156
16484TIP3    H170943   4.822   2.998   4.027  2.1734  0.5268  0.5908
16484TIP3    H270944   4.787   2.871   3.952 -1.6556  1.0649  1.2822
16485TIP3   OH270945   1.606   1.417   4.802 -0.1056  0.2859 -0.2715
16485TIP3    H170946   1.534   1.478   4.818  1.8911  1.9880  3.3179
16485TIP3    H270947   1.565   1.331   4.799 -2.4290  1.3264 -0.2049
16486TIP3   OH270948   2.610   5.917  16.351  0.1857  0.1770 -0.0559
16486TIP3    H170949   2.572   5.877  16.273 -0.2575  1.4048 -0.5027
16486TIP3    H270950   2.699   5.941  16.325  0.2839 -0.0777  0.0495
16487TIP3   OH270951   0.527   0.428   3.513  0.4533  0.3136 -0.2393
16487TIP3    H170952   0.500   0.496   3.574  1.1505  0.8082 -0.4762
16487TIP3    H270953   0.450   0.413   3.457 -0.0738  0.1031  0.5186
16488TIP3   OH270954   6.689   3.193  13.583 -0.5992 -0.4261  0.1910
16488TIP3    H170955   6.598   3.221  13.589 -1.1094 -2.0481  0.7061
16488TIP3    H270956   6.696   3.150  13.497 -0.6323 -1.2467  0.5850
16489TIP3   OH270957   1.141   6.401  15.331  0.1488 -0.0915 -0.5557
16489TIP3    H170958   1.102   6.314  15.342 -2.1663  0.5673 -2.4647
16489TIP3    H270959   1.178   6.422  15.416  1.3396 -3.1649 -0.1938
16490TIP3   OH270960   1.718   4.564   2.796  0.5542  0.3297  0.5108
16490TIP3    H170961   1.720   4.556   2.701 -0.8948 -1.2555  0.5766
16490TIP3    H270962   1.802   4.528   2.824  0.1615 -1.1277 -0.0882
16491TIP3   OH270963   5.654   3.788  11.871  0.6042 -0.0020 -0.0346
16491TIP3    H170964   5.745   3.808  11.849  0.3621  0.2529 -0.8180
16491TIP3    H270965   5.604   3.809  11.792 -0.3891  1.6540  0.9571
16492TIP3   OH270966   0.166   3.813  12.174 -0.5239 -0.5360 -0.8109
16492TIP3    H170967   0.256   3.831  12.201 -0.8653 -0.2888  0.2001
16492TIP3    H270968   0.146   3.727  12.211 -0.3291 -1.1190 -2.0190
16493TIP3   OH270969   6.514   5.323  14.199 -0.3783  0.0338 -0.4770
16493TIP3    H170970   6.506   5.234  14.235 -1.3808 -0.2403 -1.3327
16493TIP3    H270971   6.579   5.315  14.129 -0.2822  0.0299 -0.3871
16494TIP3   OH270972   0.493   0.880   4.624 -0.2024 -0.0279  0.3434
16494TIP3    H170973   0.504   0.964   4.668 -0.2530  0.1055  0.1045
16494TIP3    H270974   0.573   0.832   4.645 -0.7520 -0.4437  1.5885
16495TIP3   OH270975   4.727   1.235  15.766 -0.4161  0.0660 -0.2856
16495TIP3    H170976   4.659   1.302  15.760 -0.6173 -0.0050  0.9810
16495TIP3    H270977   4.702   1.170  15.700 -2.9415 -1.1223  1.6813
16496TIP3   OH270978   0.827   6.492  11.275  0.2637  0.2561  0.0683
16496TIP3    H170979   0.766   6.428  11.238 -0.4493  0.9474  0.0222
16496TIP3    H270980   0.904   6.440  11.298 -0.5339 -0.7262  0.6235
16497TIP3   OH270981   0.674   3.944   0.977 -0.0220 -0.6841 -0.2882
16497TIP3    H170982   0.631   3.883   0.918 -1.0769 -0.4369  0.1911
16497TIP3    H270983   0.602   3.987   1.023  0.7557 -0.4642  0.7588
16498TIP3   OH270984   5.454   6.108   0.391 -0.4416  0.2947 -0.0444
16498TIP3    H170985   5.371   6.109   0.343 -0.6352 -3.4374 -0.0696
16498TIP3    H270986   5.432   6.141   0.478 -1.8218 -0.0379 -0.2439
16499TIP3   OH270987   4.432   1.365   4.038 -0.2909 -0.6848 -0.1733
16499TIP3    H170988   4.394   1.425   3.975  0.6943 -0.7820 -0.8924
16499TIP3    H270989   4.358   1.330   4.087 -0.9758  0.1730 -0.5812
16500TIP3   OH270990   5.222   4.031  12.357  0.4636  0.0843  0.1543
16500TIP3    H170991   5.257   3.957  12.308  0.0388  0.7372 -1.1935
16500TIP3    H270992   5.290   4.053  12.420  0.7864 -1.1512  0.2528
16501TIP3   OH270993   2.959   0.463  15.560  0.1843  0.1958  0.3910
16501TIP3    H170994   2.990   0.428  15.643 -0.1283 -1.7515 -0.2497
16501TIP3    H270995   3.034   0.456  15.501  0.2375  1.0330  0.3450
16502TIP3   OH270996   3.479   6.459   5.772 -0.2345 -0.2385 -0.1934
16502TIP3    H170997   3.555   6.406   5.795  0.4435  0.4512 -0.7995
16502TIP3    H270998   3.461   6.438   5.681 -0.5210 -0.1136 -0.1657
16503TIP3   OH270999   6.303   5.359  11.316  0.0698 -0.6343  0.0755
16503TIP3    H171000   6.219   5.353  11.270  0.1090  0.9200 -0.2607
16503TIP3    H271001   6.358   5.412  11.258 -0.0260  1.8097  2.0697
16504TIP3   OH271002   1.731   2.169  13.667 -0.3412  0.2036 -0.2973
16504TIP3    H171003   1.672   2.244  13.679  0.1355  1.1149 -2.8562
16504TIP3    H271004   1.819   2.205  13.681 -0.1908 -0.3366  0.2052
16505TIP3   OH271005   5.122   2.832  16.062 -0.4867 -0.1238  0.2576
16505TIP3    H171006   5.157   2.760  16.115 -0.9042  0.3694  1.2227
16505TIP3    H271007   5.027   2.818  16.064 -0.5531  0.3303  0.2728
16506TIP3   OH271008   4.165   0.870   1.498 -0.4679 -0.5451  0.0064
16506TIP3    H171009   4.130   0.796   1.448 -0.1265 -1.5992  1.2555
16506TIP3    H271010   4.095   0.891   1.560 -1.0028  0.9334 -1.0446
16507TIP3   OH271011   2.803   5.176  16.320 -0.1000 -0.7583  0.2990
16507TIP3    H171012   2.754   5.253  16.349  1.8439  1.0013 -0.7755
16507TIP3    H271013   2.781   5.167  16.227  0.2944 -0.9736  0.2219
16508TIP3   OH271014   2.747   1.998  12.703 -0.1202  0.4397  0.2869
16508TIP3    H171015   2.741   1.942  12.626 -0.1772  0.8181  0.0108
16508TIP3    H271016   2.776   2.083  12.668  0.3115  0.4852  0.7403
16509TIP3   OH271017   1.090   6.094   5.191  0.0543 -0.3784 -0.7387
16509TIP3    H171018   1.066   6.179   5.228 -2.0910 -1.7104  1.2561
16509TIP3    H271019   1.172   6.071   5.234  0.0293  0.1679 -0.3967
16510TIP3   OH271020   6.337   1.516  11.304  0.2259 -0.3847  0.3095
16510TIP3    H171021   6.300   1.451  11.244 -1.2611  0.1070  0.6450
16510TIP3    H271022   6.388   1.574  11.248  0.7727 -1.2697 -0.1302
16511TIP3   OH271023   3.062   0.230  15.207  0.3037  0.1101  0.4913
16511TIP3    H171024   3.070   0.173  15.131  0.1957 -0.5763  0.9846
16511TIP3    H271025   2.977   0.272  15.196  0.3385  0.1009  0.1761
16512TIP3   OH271026   3.151   5.201   1.281 -0.2933 -0.9071 -0.2930
16512TIP3    H171027   3.091   5.145   1.232  0.1096  0.1361 -2.0240
16512TIP3    H271028   3.100   5.232   1.356 -1.8000 -0.3379 -1.5325
16513TIP3   OH271029   3.552   3.489  13.649  0.5276  0.3427 -0.6133
16513TIP3    H171030   3.647   3.481  13.638  0.3711  0.9710 -3.0035
16513TIP3    H271031   3.540   3.568  13.701  1.3186  0.2587 -0.2963
16514TIP3   OH271032   5.266   1.203   1.242  1.2197  0.2566 -0.0382
16514TIP3    H171033   5.304   1.216   1.329  2.7398  1.6103 -0.8453
16514TIP3    H271034   5.192   1.263   1.239  1.3273  0.4039  0.2244
16515TIP3   OH271035   5.543   1.904   6.641  0.4768 -0.4363 -0.4978
16515TIP3    H171036   5.487   1.941   6.573 -1.0746  0.6850  1.2955
16515TIP3    H271037   5.487   1.843   6.689  1.9299 -2.2857 -0.9941
16516TIP3   OH271038   0.468   6.074  10.675  0.2892 -0.2161  0.1066
16516TIP3    H171039   0.532   6.140  10.648  1.0757 -0.3120  1.6038
16516TIP3    H271040   0.390   6.124  10.696  0.6632  0.1775  0.5839
16517TIP3   OH271041   4.336   2.767   4.056  0.3035 -0.6344  0.5806
16517TIP3    H171042   4.256   2.749   4.105 -0.3177  3.6737  1.5603
16517TIP3    H271043   4.382   2.831   4.109  1.1675  1.9320 -2.9214
16518TIP3   OH271044   0.062   5.518   2.522 -0.4368 -0.7061  0.1485
16518TIP3    H171045   0.083   5.493   2.612 -1.6953 -3.0874 -0.1245
16518TIP3    H271046  -0.016   5.573   2.529  0.7290  0.9318  0.6111
16519TIP3   OH271047   4.418   2.940   2.922 -0.4055  0.0732  0.6284
16519TIP3    H171048   4.366   3.020   2.918 -1.5488 -0.6980 -0.5754
16519TIP3    H271049   4.398   2.903   3.008 -0.5665  0.6209  0.8303
16520TIP3   OH271050   3.028   5.917  15.198 -0.4902 -0.1145  0.6013
16520TIP3    H171051   2.982   5.835  15.179  0.6025 -1.0132  1.6509
16520TIP3    H271052   2.961   5.985  15.189 -1.2598 -1.0217 -0.9846
16521TIP3   OH271053   6.808   6.859  15.071 -0.3124  0.1192  0.6604
16521TIP3    H171054   6.775   6.926  15.010 -1.5771 -0.1762  0.9970
16521TIP3    H271055   6.745   6.861  15.143 -0.1836 -1.2169  0.8176
16522TIP3   OH271056   6.026   5.887  11.035  0.1751  0.1166  0.2648
16522TIP3    H171057   6.078   5.965  11.056  0.5206 -0.1026  0.2333
16522TIP3    H271058   5.978   5.912  10.956 -0.4015  0.6068  0.7592
16523TIP3   OH271059   4.041   1.146  14.364  0.1813  0.4109  0.2668
16523TIP3    H171060   3.998   1.202  14.300  1.4807  0.9061 -0.2121
16523TIP3    H271061   3.974   1.084  14.392 -0.5726  0.5708 -1.1223
16524TIP3   OH271062   2.014   0.332   2.582 -0.0864  0.2651 -0.4489
16524TIP3    H171063   1.981   0.313   2.670 -2.4628  0.1602 -1.3047
16524TIP3    H271064   2.066   0.255   2.560 -0.5154 -0.2782  0.3766
16525TIP3   OH271065   3.983   6.458  12.294  0.6465  0.6392 -0.4068
16525TIP3    H171066   3.916   6.448  12.361  0.1343  0.6075 -0.9168
16525TIP3    H271067   4.066   6.446  12.341  0.2397 -1.6706 -0.1413
16526TIP3   OH271068   5.055   6.692  14.835 -0.3000 -0.0763  0.0207
16526TIP3    H171069   5.106   6.612  14.836 -0.9751 -0.5127  0.9180
16526TIP3    H271070   4.965   6.664  14.816 -0.3051  0.6277 -1.1099
16527TIP3   OH271071   4.428   2.313   4.356 -0.2775  0.1915  0.7761
16527TIP3    H171072   4.420   2.220   4.379  0.1954 -0.8113 -2.5054
16527TIP3    H271073   4.520   2.323   4.331 -1.0603  0.4423 -2.5137
16528TIP3   OH271074   2.827   2.016  15.524  0.2123  0.7460 -0.1324
16528TIP3    H171075   2.885   2.076  15.477  0.7920 -1.1408 -1.9695
16528TIP3    H271076   2.784   2.071  15.590 -0.0080  3.3703 -2.2994
16529TIP3   OH271077   1.836   6.837   0.070  0.3188  0.2807  0.0885
16529TIP3    H171078   1.774   6.873   0.007 -0.9572 -0.1210  1.0659
16529TIP3    H271079   1.903   6.905   0.080  0.4802  0.3944 -1.5762
16530TIP3   OH271080   5.073   2.311   4.744 -0.0340 -0.6506  0.6451
16530TIP3    H171081   5.059   2.318   4.650  0.3195 -2.1234  0.4544
16530TIP3    H271082   5.100   2.220   4.757  2.3240  0.1274  1.8591
16531TIP3   OH271083   4.380   6.443   3.185  0.0179 -0.1202  0.7880
16531TIP3    H171084   4.360   6.530   3.149  0.9017  0.1259  0.8659
16531TIP3    H271085   4.302   6.391   3.165  0.7421 -0.2294 -2.1999
16532TIP3   OH271086   5.622   6.378   0.601  0.5376  0.7778 -0.2132
16532TIP3    H171087   5.534   6.354   0.631  1.2382 -0.5749  0.8448
16532TIP3    H271088   5.646   6.454   0.654  0.9452 -0.3447  1.2694
16533TIP3   OH271089   1.070   3.860  10.365 -0.1523  0.1504 -0.2515
16533TIP3    H171090   1.100   3.782  10.411 -2.5845 -0.8023 -0.1627
16533TIP3    H271091   1.091   3.932  10.423  0.7168 -0.5860  0.3749
16534TIP3   OH271092   3.207   2.447   0.958  0.2430 -0.0581  0.0576
16534TIP3    H171093   3.244   2.474   0.874  1.4388 -0.8766  0.3075
16534TIP3    H271094   3.113   2.439   0.941  0.5266 -0.7041 -1.3371
16535TIP3   OH271095   6.548   3.059  13.343 -0.1851 -0.2770  0.0309
16535TIP3    H171096   6.627   3.091  13.300  0.5622  1.4755  2.4590
16535TIP3    H271097   6.538   2.969  13.311  2.6016 -0.4470 -0.6342
16536TIP3   OH271098   4.580   1.125   5.325  0.4028  0.2506  0.0929
16536TIP3    H171099   4.539   1.053   5.278  2.4132 -1.4843  0.7920
16536TIP3    H271100   4.509   1.167   5.374 -0.7733 -1.6256  0.0867
16537TIP3   OH271101   1.501   2.688  13.458 -0.4166  0.1300 -0.2836
16537TIP3    H171102   1.481   2.664  13.367  0.6948  1.1416 -0.8242
16537TIP3    H271103   1.596   2.677  13.466  0.0064  3.0051 -0.2316
16538TIP3   OH271104   4.351   4.797   2.644 -0.0174  0.2654  0.0903
16538TIP3    H171105   4.346   4.721   2.701 -0.0354 -0.8254 -1.3246
16538TIP3    H271106   4.281   4.855   2.675  0.3320 -0.0339  1.5065
16539TIP3   OH271107   0.031   1.118  13.764 -0.4170  0.0271  0.2698
16539TIP3    H171108  -0.018   1.038  13.746 -0.2667  0.3526 -1.8026
16539TIP3    H271109  -0.034   1.177  13.804 -0.2701 -1.4053  2.8583
16540TIP3   OH271110   0.068   2.559   4.918 -0.0355  0.5115 -0.2464
16540TIP3    H171111   0.081   2.552   4.823 -2.3492  1.0650 -0.6709
16540TIP3    H271112   0.084   2.471   4.952 -0.1679  0.0705 -1.3028
16541TIP3   OH271113   3.619   5.280   1.719 -0.0085 -0.4132  0.1126
16541TIP3    H171114   3.655   5.357   1.675  0.2838 -0.9473 -0.6038
16541TIP3    H271115   3.556   5.316   1.781  0.3373  0.4212  0.0003
16542TIP3   OH271116   3.961   2.976  11.394 -0.2272  0.0676 -0.0523
16542TIP3    H171117   3.978   2.882  11.400 -1.1114 -0.0833  0.3209
16542TIP3    H271118   3.874   2.987  11.434 -0.2192  1.0135 -0.2713
16543TIP3   OH271119   4.716   0.272   3.217  0.2310 -0.0692 -0.2872
16543TIP3    H171120   4.655   0.267   3.144 -0.7707 -1.4726  0.5796
16543TIP3    H271121   4.691   0.352   3.264  0.3724  0.4140 -1.0182
16544TIP3   OH271122   3.984   3.510  16.473  0.1601 -0.0459 -0.2891
16544TIP3    H171123   4.052   3.485  16.536  0.1973 -1.2132 -0.7626
16544TIP3    H271124   4.033   3.537  16.395  0.1049 -0.5281 -0.4992
16545TIP3   OH271125   1.334   5.970  14.969 -0.5036  0.2080 -0.1095
16545TIP3    H171126   1.292   5.952  15.053 -2.5119  0.0090 -1.1165
16545TIP3    H271127   1.350   5.884  14.931 -1.2021  0.3275 -0.6830
16546TIP3   OH271128   2.777   2.995   4.904  0.5885  0.4273 -0.4486
16546TIP3    H171129   2.847   3.044   4.860  1.5695  0.3709  0.9815
16546TIP3    H271130   2.734   3.060   4.959  0.3788  0.1718 -0.3133
16547TIP3   OH271131   4.527   2.729  16.118 -0.2197  0.2954 -0.0034
16547TIP3    H171132   4.516   2.824  16.125  0.1052  0.2591  1.4825
16547TIP3    H271133   4.567   2.715  16.032 -0.6212  1.4625 -0.3970
16548TIP3   OH271134   0.854   1.525  16.329  0.2113  0.4213 -0.1623
16548TIP3    H171135   0.800   1.457  16.371  1.5524 -1.4132 -1.2365
16548TIP3    H271136   0.856   1.500  16.237  0.4240  2.2067 -0.6783
16549TIP3   OH271137   0.805   5.842   4.325  0.3113 -0.2123 -0.2778
16549TIP3    H171138   0.783   5.767   4.380  0.4119  0.0383  0.1028
16549TIP3    H271139   0.894   5.824   4.294  0.3554 -0.2255 -0.1442
16550TIP3   OH271140   6.610   3.508  13.839 -0.0133  0.1385 -0.0523
16550TIP3    H171141   6.554   3.488  13.764 -1.9023  0.0664  1.3208
16550TIP3    H271142   6.618   3.425  13.886  1.0116  0.2206 -0.0640
16551TIP3   OH271143   0.637   6.275  13.310 -0.3264 -0.0737  0.2971
16551TIP3    H171144   0.567   6.332  13.279  0.6050  2.4840  2.5828
16551TIP3    H271145   0.716   6.308  13.267 -0.0014 -0.7739  0.3424
16552TIP3   OH271146   1.291   0.335   4.134  0.0396  0.2903  0.5481
16552TIP3    H171147   1.213   0.335   4.189 -0.0286  0.2054  0.4522
16552TIP3    H271148   1.288   0.250   4.089 -0.6087  0.8702 -0.5681
16553TIP3   OH271149   3.063   1.726  15.455 -0.1349 -0.6108  0.3871
16553TIP3    H171150   3.076   1.796  15.391 -0.4762 -1.4105 -0.5917
16553TIP3    H271151   3.035   1.771  15.535  0.1899  0.4006 -0.0550
16554TIP3   OH271152   1.782   4.663  12.057  0.9174  0.5070  0.3481
16554TIP3    H171153   1.709   4.628  12.005  2.8441 -0.6972 -1.7195
16554TIP3    H271154   1.766   4.758  12.059  0.1663  0.4633 -1.5355
16555TIP3   OH271155   3.941   0.759   0.775  0.0796 -0.2141 -0.3039
16555TIP3    H171156   3.868   0.701   0.754 -0.4276 -0.3676  1.7497
16555TIP3    H271157   3.905   0.824   0.835  1.3086  0.5759 -0.3643
16556TIP3   OH271158   2.465   0.201  15.774  0.7597 -0.2304 -0.4369
16556TIP3    H171159   2.536   0.194  15.839  0.5248 -0.0518 -0.1600
16556TIP3    H271160   2.390   0.233  15.824  0.5196 -0.2901 -0.7585
16557TIP3   OH271161   4.763   3.083   5.754  0.5854  0.2156 -0.1164
16557TIP3    H171162   4.723   3.023   5.691  0.0320  0.2232  0.2125
16557TIP3    H271163   4.734   3.050   5.839 -1.3804  2.0322  0.0229
16558TIP3   OH271164   6.123   6.076  16.608 -0.0545  0.0618 -0.2161
16558TIP3    H171165   6.039   6.121  16.614 -0.4079 -0.5402 -0.5362
16558TIP3    H271166   6.159   6.104  16.524 -1.0531 -1.5246 -1.2299
16559TIP3   OH271167   5.621   2.231  11.174 -0.1748 -0.3190  0.4036
16559TIP3    H171168   5.526   2.228  11.164 -0.1233 -0.5973 -0.0428
16559TIP3    H271169   5.635   2.240  11.269 -0.6543  0.7913  0.3806
16560TIP3   OH271170   2.946   3.189  11.601  0.2867 -0.4603 -0.2781
16560TIP3    H171171   2.973   3.128  11.532 -1.5740 -2.5406  0.7060
16560TIP3    H271172   2.851   3.197  11.590 -0.0656 -0.8453  1.9691
16561TIP3   OH271173   0.480   5.708   0.083  0.5794 -0.1134 -0.2332
16561TIP3    H171174   0.540   5.714   0.158 -1.9116 -0.0883  1.8688
16561TIP3    H271175   0.430   5.790   0.086 -0.3534 -0.6240 -1.2605
16562TIP3   OH271176   4.759   5.590  13.497  0.2250 -0.1329  0.0209
16562TIP3    H171177   4.705   5.627  13.566  0.2898 -1.9987  1.1490
16562TIP3    H271178   4.698   5.543  13.441  0.2361  0.9690 -0.9511
16563TIP3   OH271179   2.752   4.970  11.184  0.1604 -0.4594  0.6190
16563TIP3    H171180   2.670   5.002  11.145  0.8005 -0.3730 -0.7155
16563TIP3    H271181   2.804   5.048  11.199 -0.5163 -0.3681  2.8115
16564TIP3   OH271182   1.491   2.815   2.086 -0.7835  0.4800 -0.6557
16564TIP3    H171183   1.446   2.895   2.058  0.8014  0.9782 -1.8871
16564TIP3    H271184   1.563   2.804   2.024  1.0123 -0.1116  1.4292
16565TIP3   OH271185   5.130   4.921   1.363 -0.0025 -0.1576  0.0848
16565TIP3    H171186   5.175   4.977   1.426  0.4887 -0.1094 -0.3064
16565TIP3    H271187   5.073   4.980   1.314 -1.5368 -0.4046  1.4634
16566TIP3   OH271188   0.260   0.631  11.365 -0.4179 -0.1677  0.2806
16566TIP3    H171189   0.318   0.571  11.412  1.2276  0.7083 -0.5138
16566TIP3    H271190   0.275   0.610  11.273  1.6817  2.6345 -0.1354
16567TIP3   OH271191   1.540   3.786   3.742  0.4344 -0.0447 -0.3409
16567TIP3    H171192   1.624   3.750   3.715 -0.5312 -1.7636 -1.2932
16567TIP3    H271193   1.481   3.764   3.669 -1.1187 -0.1146  0.8865
16568TIP3   OH271194   5.989   2.530   1.266  0.0694 -0.4018 -0.3689
16568TIP3    H171195   5.963   2.558   1.354  2.4018  0.1147  0.2054
16568TIP3    H271196   6.052   2.460   1.281 -0.3631 -1.0913 -1.6744
16569TIP3   OH271197   4.915   3.880   2.869 -0.2871  0.5049 -0.5090
16569TIP3    H171198   4.873   3.794   2.870  1.1553 -0.2353 -0.5753
16569TIP3    H271199   4.886   3.922   2.949 -1.1229  0.0196 -0.5427
16570TIP3   OH271200   6.023   2.089   0.549  0.3844  0.0950 -0.4615
16570TIP3    H171201   6.107   2.081   0.595  0.6644 -2.0772 -1.2369
16570TIP3    H271202   6.048   2.105   0.458 -0.0639  0.3099 -0.5452
16571TIP3   OH271203   6.226   1.664   6.122 -0.6323  0.1066 -0.3175
16571TIP3    H171204   6.133   1.685   6.112 -0.5766 -0.8537 -4.2794
16571TIP3    H271205   6.270   1.748   6.111 -0.9423  0.4144  0.6409
16572TIP3   OH271206   2.098   4.981  15.941  0.1336 -0.2933  0.4044
16572TIP3    H171207   2.108   4.954  15.850 -2.4243  0.6340 -0.2302
16572TIP3    H271208   2.048   4.911  15.982 -0.9618  0.4553  0.3927
16573TIP3   OH271209   0.154   4.993   2.902 -0.0661 -0.2144  0.2802
16573TIP3    H171210   0.241   4.997   2.941  1.4981 -2.2996 -2.5363
16573TIP3    H271211   0.119   4.908   2.930 -0.6257  0.0466  0.3765
16574TIP3   OH271212   5.127   2.038  13.081  0.1716 -0.1459 -0.3439
16574TIP3    H171213   5.083   2.078  13.006  0.2400 -0.0134 -0.3133
16574TIP3    H271214   5.059   1.987  13.125  0.1925 -0.4382 -0.6474
16575TIP3   OH271215   3.228   1.532   5.538  0.2574  0.3434 -0.3094
16575TIP3    H171216   3.271   1.602   5.587  0.1951  0.8922 -1.0324
16575TIP3    H271217   3.137   1.561   5.528  0.3527  0.4110 -1.0562
16576TIP3   OH271218   4.764   0.316   1.218 -0.7809 -0.0592 -0.9153
16576TIP3    H171219   4.789   0.319   1.310 -0.5936 -2.2219 -0.8401
16576TIP3    H271220   4.684   0.368   1.213  0.0130  1.3116  0.1514
16577TIP3   OH271221   2.998   1.461   1.172  0.2307 -0.6929 -0.3353
16577TIP3    H171222   3.040   1.497   1.094  0.1027 -2.2448 -1.1488
16577TIP3    H271223   3.064   1.469   1.241  1.1322 -1.2486 -1.1117
16578TIP3   OH271224   2.666   2.406  14.952 -0.0912 -0.2723  0.3624
16578TIP3    H171225   2.608   2.475  14.984 -1.0850 -1.3112  0.8466
16578TIP3    H271226   2.644   2.329  15.004  0.5761 -1.1264 -0.5772
16579TIP3   OH271227   1.056   6.412   0.713  0.1462  0.3454 -0.0452
16579TIP3    H171228   1.106   6.346   0.762 -1.3678 -0.8240 -0.0100
16579TIP3    H271229   1.036   6.370   0.630 -0.9847  0.6753  0.0464
16580TIP3   OH271230   5.158   4.266   4.680  0.0749  0.2015  0.2488
16580TIP3    H171231   5.140   4.222   4.762  0.5866  1.6669  1.1842
16580TIP3    H271232   5.138   4.200   4.613  1.3397 -1.6400  1.5675
16581TIP3   OH271233   5.072   4.372   0.655 -1.0492  0.4381 -0.4243
16581TIP3    H171234   5.007   4.306   0.631 -0.1578 -0.8045  0.4362
16581TIP3    H271235   5.032   4.419   0.728 -0.7105 -0.8331  0.6167
16582TIP3   OH271236   3.247   0.813   3.235 -0.2348 -0.2289 -0.3471
16582TIP3    H171237   3.257   0.891   3.181 -1.8543  0.7661  0.7070
16582TIP3    H271238   3.153   0.794   3.234  0.1440 -2.3559 -0.7913
16583TIP3   OH271239   0.523   0.199  11.601  0.2653  0.0313 -0.0862
16583TIP3    H171240   0.521   0.143  11.679 -1.7546  0.3221  0.1271
16583TIP3    H271241   0.436   0.188  11.562  1.0111  0.4100 -1.9465
16584TIP3   OH271242   5.588   3.421   4.917  0.4331  0.2642 -0.1056
16584TIP3    H171243   5.627   3.500   4.953  1.2758  1.1550 -2.7275
16584TIP3    H271244   5.494   3.436   4.920  0.5935  1.5155 -0.7877
16585TIP3   OH271245   4.367   2.161  11.879  0.2733 -0.5125  0.1219
16585TIP3    H171246   4.459   2.148  11.898  0.8899  1.4595 -1.1054
16585TIP3    H271247   4.364   2.178  11.784 -1.3179 -0.4042  0.1555
16586TIP3   OH271248   0.118   3.516   4.055  0.9510  0.2604  0.3566
16586TIP3    H171249   0.132   3.576   4.128 -1.1305 -0.1126  1.1244
16586TIP3    H271250   0.035   3.542   4.017  2.0992  0.5995 -2.1111
16587TIP3   OH271251   3.193   3.108  13.563  0.6065  0.1818  0.2935
16587TIP3    H171252   3.199   3.110  13.658 -0.4828  1.6451  0.3600
16587TIP3    H271253   3.248   3.181  13.534  0.3728  0.1873 -0.1521
16588TIP3   OH271254   0.697   2.394   5.700  0.3623 -0.1694  0.2847
16588TIP3    H171255   0.646   2.401   5.780  0.7074 -0.1598  0.5027
16588TIP3    H271256   0.788   2.397   5.728  0.4843  0.6517 -0.1804
16589TIP3   OH271257   3.362   0.761  11.693 -0.3267  0.2629  0.6225
16589TIP3    H171258   3.373   0.794  11.603  0.7705  0.6291  0.8731
16589TIP3    H271259   3.358   0.840  11.747 -1.8092  0.0674  0.8345
16590TIP3   OH271260   0.824   2.605  15.680 -0.1866 -0.1540 -0.3624
16590TIP3    H171261   0.760   2.538  15.703 -1.7974  0.9118 -1.5038
16590TIP3    H271262   0.772   2.677  15.643  1.5794  1.2202 -0.3441
16591TIP3   OH271263   3.315   2.324  12.679  0.8014  0.4693  1.0447
16591TIP3    H171264   3.304   2.401  12.622  1.2324  1.1099  1.8075
16591TIP3    H271265   3.230   2.312  12.719  0.2745 -0.4530 -0.2899
16592TIP3   OH271266   1.004   4.702   0.910  0.3331  0.6221 -0.2320
16592TIP3    H171267   0.929   4.732   0.961  0.4280  0.0791  0.2535
16592TIP3    H271268   0.976   4.619   0.872  0.7976  0.2177  0.2694
16593TIP3   OH271269   4.877   0.541  11.184  0.2701  0.3870  0.1368
16593TIP3    H171270   4.878   0.551  11.088 -3.0666  0.3789 -0.0124
16593TIP3    H271271   4.873   0.631  11.217  0.1932  0.3555  0.2116
16594TIP3   OH271272   5.984   2.757  16.928  0.4086  0.8628  0.1384
16594TIP3    H171273   5.956   2.666  16.938  0.3715  0.6793 -1.4373
16594TIP3    H271274   6.037   2.774  17.006 -0.4631 -0.1593  0.9804
16595TIP3   OH271275   4.445   6.653  11.643 -0.3395  0.0069  0.2462
16595TIP3    H171276   4.520   6.711  11.654 -0.1084 -0.2919  0.2845
16595TIP3    H271277   4.484   6.568  11.622 -0.4834 -0.8609  3.0136
16596TIP3   OH271278   6.229   5.250   4.866 -0.2800  0.2363  0.0113
16596TIP3    H171279   6.278   5.214   4.940  1.3182 -0.2244 -1.2037
16596TIP3    H271280   6.199   5.174   4.817 -2.5870  0.5070  0.9032
16597TIP3   OH271281   5.704   3.362   0.777 -0.3383  0.2760  0.0176
16597TIP3    H171282   5.727   3.274   0.747 -0.7415  0.7288 -1.6902
16597TIP3    H271283   5.771   3.381   0.843  1.0021 -0.5356 -1.0246
16598TIP3   OH271284   6.313   2.522  14.893  0.4198  0.3315  0.4180
16598TIP3    H171285   6.223   2.535  14.924  0.4597 -1.0156  1.1763
16598TIP3    H271286   6.327   2.592  14.829 -1.4662  0.0357 -0.3790
16599TIP3   OH271287   1.833   6.229  15.511 -0.0485  0.0799  0.2748
16599TIP3    H171288   1.835   6.313  15.557  1.7081  0.8460 -1.0999
16599TIP3    H271289   1.758   6.235  15.452 -1.7628 -0.5551  2.2566
16600TIP3   OH271290   1.879   0.899  15.157 -0.0628 -0.0378  0.3395
16600TIP3    H171291   1.934   0.824  15.135  1.0716  0.6807  0.6376
16600TIP3    H271292   1.861   0.941  15.073 -0.6893 -0.6243  0.1742
16601TIP3   OH271293   0.788   1.705  10.460  0.1916  0.4140 -0.4143
16601TIP3    H171294   0.732   1.688  10.385 -0.0213 -0.5324 -0.0631
16601TIP3    H271295   0.871   1.736  10.422 -0.1776  0.7056 -0.9882
16602TIP3   OH271296   3.090   5.914   1.668 -0.5583 -0.3644 -0.0663
16602TIP3    H171297   3.178   5.877   1.661 -0.4861  0.0032 -1.4754
16602TIP3    H271298   3.091   5.964   1.749  1.3206  1.5623 -1.1931
16603TIP3   OH271299   5.381   3.314   3.732  0.1674  0.2361  0.2007
16603TIP3    H171300   5.340   3.233   3.702 -1.4796  0.6642  1.1386
16603TIP3    H271301   5.459   3.286   3.779 -0.6046 -0.8601  0.8788
16604TIP3   OH271302   6.136   4.705  13.839  0.2431  0.2024 -0.3909
16604TIP3    H171303   6.043   4.691  13.826  0.4602 -1.0131 -0.6948
16604TIP3    H271304   6.141   4.765  13.913 -0.7319 -1.9361  1.5069
16605TIP3   OH271305   4.848   5.025  13.277  0.3096 -1.0075 -0.7224
16605TIP3    H171306   4.826   4.932  13.270 -0.7602 -0.7121 -1.5045
16605TIP3    H271307   4.926   5.035  13.224  0.9609 -1.6178  0.0919
16606TIP3   OH271308   0.100   1.285  14.308 -0.2925  0.2219 -0.0512
16606TIP3    H171309   0.117   1.253  14.396 -0.8289 -0.3112 -0.1281
16606TIP3    H271310   0.158   1.234  14.252  0.9295  1.4007  0.0952
16607TIP3   OH271311   1.097   4.457   1.507 -0.4437  0.3855  0.0881
16607TIP3    H171312   1.158   4.383   1.505  0.9561  1.5154 -1.4580
16607TIP3    H271313   1.010   4.416   1.510  0.3251 -1.2934  0.5032
16608TIP3   OH271314   4.501   3.414   4.302  0.2386 -0.2277  0.0407
16608TIP3    H171315   4.432   3.438   4.364 -0.5603 -2.2378 -0.0134
16608TIP3    H271316   4.455   3.397   4.220  1.2359  1.9727 -1.0729
16609TIP3   OH271317   1.842   0.633  16.490 -0.2395  0.1779  0.4948
16609TIP3    H171318   1.864   0.718  16.454  0.0303 -0.0033  0.2312
16609TIP3    H271319   1.889   0.570  16.435 -0.1388 -0.1201  0.9179
16610TIP3   OH271320   6.620   2.486  11.253  0.4925  0.6741  0.1445
16610TIP3    H171321   6.646   2.564  11.204  0.8147  1.5997  1.7189
16610TIP3    H271322   6.692   2.472  11.314 -0.5804  0.4948  1.4120
16611TIP3   OH271323   4.811   4.278  15.377 -0.9258 -0.0787 -0.7208
16611TIP3    H171324   4.794   4.310  15.288 -1.5259  1.5733 -0.0516
16611TIP3    H271325   4.868   4.345  15.416 -0.7294 -0.7465  0.1628
16612TIP3   OH271326   6.401   1.377   3.892  0.0346  0.4559  0.1300
16612TIP3    H171327   6.416   1.410   3.980  0.2721 -1.1540  0.7327
16612TIP3    H271328   6.306   1.378   3.881  0.0739  2.8138 -0.5129
16613TIP3   OH271329   3.794   3.292   6.105  0.2348  0.2187 -0.1842
16613TIP3    H171330   3.864   3.227   6.098  1.0669  1.2491 -2.2143
16613TIP3    H271331   3.795   3.338   6.021 -0.6938  2.4851  0.9530
16614TIP3   OH271332   4.176   0.003  16.087 -0.2293  0.0350  0.3160
16614TIP3    H171333   4.153  -0.089  16.071 -0.3212 -0.1162  1.2677
16614TIP3    H271334   4.231   0.027  16.013 -0.8051 -0.5712 -0.3193
16615TIP3   OH271335   0.262   3.506  10.370 -0.1367  0.5750 -0.1403
16615TIP3    H171336   0.341   3.559  10.379  0.3069 -0.1789  0.6917
16615TIP3    H271337   0.190   3.569  10.369  0.4995  1.3149 -1.6004
16616TIP3   OH271338   1.661   4.451   5.589  0.4318 -0.0617  0.2124
16616TIP3    H171339   1.680   4.445   5.495  5.2819 -0.8344  0.9980
16616TIP3    H271340   1.731   4.400   5.631 -2.0814 -0.5784  4.2812
16617TIP3   OH271341   3.842   4.622  15.446  0.3762  0.0020 -0.1646
16617TIP3    H171342   3.787   4.550  15.478  0.6652  0.2469  0.9224
16617TIP3    H271343   3.794   4.657  15.371 -0.2883 -0.6412 -0.0578
16618TIP3   OH271344   6.427   0.123  15.012 -0.2124  0.6698 -0.0104
16618TIP3    H171345   6.400   0.113  15.103  1.2525 -0.7006  0.3190
16618TIP3    H271346   6.446   0.034  14.983 -0.4925  1.1028 -1.6141
16619TIP3   OH271347   4.060   0.961  14.676 -0.3914 -0.1681 -0.6758
16619TIP3    H171348   4.117   0.930  14.605 -1.4135 -3.5631 -0.2131
16619TIP3    H271349   4.010   0.883  14.702 -3.5773  2.0855  0.5278
16620TIP3   OH271350   3.075   1.812   0.562 -0.0936  0.1358  0.2190
16620TIP3    H171351   3.140   1.861   0.511 -0.0492  1.0131  1.0844
16620TIP3    H271352   3.073   1.856   0.647 -1.8284  0.1546  0.2039
16621TIP3   OH271353   1.077   6.435  11.898 -0.2188  0.1498  0.4659
16621TIP3    H171354   1.061   6.380  11.974  0.5246 -1.7555 -0.6788
16621TIP3    H271355   1.173   6.439  11.891 -0.2700 -0.3556 -0.7871
16622TIP3   OH271356   1.353   4.600   5.792  0.3902  0.4413  0.1715
16622TIP3    H171357   1.305   4.636   5.718 -3.0497 -0.6284  1.6993
16622TIP3    H271358   1.403   4.674   5.826  1.2837  1.2005 -2.5152
16623TIP3   OH271359   1.976   3.839  14.547  0.1193 -0.3971  0.1963
16623TIP3    H171360   1.909   3.794  14.598  0.8008 -0.8997  0.6673
16623TIP3    H271361   2.058   3.817  14.591  0.5391  0.7134 -0.0001
16624TIP3   OH271362   2.758   5.351  16.959 -0.0826  0.4278  0.3644
16624TIP3    H171363   2.678   5.401  16.942 -0.1618  0.2020  0.0685
16624TIP3    H271364   2.758   5.282  16.893  0.4257  0.5039  0.2810
16625TIP3   OH271365   6.599   4.118   2.845 -0.3964 -0.0314  0.0629
16625TIP3    H171366   6.635   4.181   2.783 -0.7848  0.1346 -0.0011
16625TIP3    H271367   6.595   4.165   2.928 -0.8202  0.0838 -0.0165
16626TIP3   OH271368   3.074   3.929  14.239  0.2127 -0.1758 -0.1962
16626TIP3    H171369   3.150   3.878  14.212  1.0101  0.5710  0.5766
16626TIP3    H271370   3.045   3.888  14.321 -0.9419 -1.1700 -1.0763
16627TIP3   OH271371   4.848   3.625   2.917 -0.1870  0.4996 -0.2141
16627TIP3    H171372   4.875   3.561   2.852 -2.1206 -0.6210  0.0139
16627TIP3    H271373   4.795   3.576   2.979  0.6769  1.7570  1.6218
16628TIP3   OH271374   6.866   5.664   0.410  0.3551 -0.1523 -0.3253
16628TIP3    H171375   6.856   5.724   0.484 -1.0888 -2.6646  1.7036
16628TIP3    H271376   6.906   5.586   0.448  0.8085 -1.0530 -2.5232
16629TIP3   OH271377   3.989   3.072  13.358  0.6306 -0.2431  0.2957
16629TIP3    H171378   4.038   2.993  13.383  0.2048 -0.0684  1.7643
16629TIP3    H271379   4.006   3.134  13.429 -1.9416 -0.2706  1.0303
16630TIP3   OH271380   0.154   2.931   5.368 -0.1106  0.1840  0.1359
16630TIP3    H171381   0.245   2.933   5.339 -0.2008 -0.2866 -0.1925
16630TIP3    H271382   0.137   3.020   5.400  0.5865  0.1526  0.5994
16631TIP3   OH271383   1.974   0.840  16.319 -0.1208 -0.4231  0.0432
16631TIP3    H171384   1.963   0.841  16.224 -1.8936 -1.1321  0.2039
16631TIP3    H271385   2.069   0.839  16.332  0.1580  0.1554 -1.6942
16632TIP3   OH271386   2.718   0.856  16.392  0.0039 -0.2195  0.0748
16632TIP3    H171387   2.738   0.856  16.299 -2.9548 -1.3315 -0.6650
16632TIP3    H271388   2.672   0.938  16.407 -0.4065 -0.4889  0.3196
16633TIP3   OH271389   5.905   3.098   3.046  0.4543  0.5603 -0.9364
16633TIP3    H171390   5.870   3.095   3.135 -1.5486  0.7176 -1.6856
16633TIP3    H271391   5.985   3.045   3.051 -0.3427 -0.5965  0.6511
16634TIP3   OH271392   2.638   3.472   5.281  0.4390 -0.0688 -0.5905
16634TIP3    H171393   2.545   3.476   5.260  0.1992 -2.2127 -0.0822
16634TIP3    H271394   2.655   3.381   5.304  2.4022  0.5256  0.6171
16635TIP3   OH271395   3.825   6.724   2.672 -0.9530  0.2373  0.1258
16635TIP3    H171396   3.815   6.737   2.578 -2.1907  3.4469  0.5820
16635TIP3    H271397   3.736   6.710   2.704 -0.4325 -2.0720  0.7603
16636TIP3   OH271398   2.975   6.151  14.839  0.0675  0.1536  0.4281
16636TIP3    H171399   2.999   6.060  14.858  0.9836  0.3842  0.4423
16636TIP3    H271400   3.015   6.168  14.753 -1.1185  0.1802 -0.1306
16637TIP3   OH271401   1.101   0.997  16.865 -0.1340 -0.5642 -0.2272
16637TIP3    H171402   1.190   1.017  16.836  0.2335 -1.6662  0.0732
16637TIP3    H271403   1.095   0.901  16.857 -1.0129 -0.5822  0.5106
16638TIP3   OH271404   5.759   1.747   3.443 -0.3801  0.4419 -0.0476
16638TIP3    H171405   5.716   1.662   3.439 -0.2705  0.3512  0.5940
16638TIP3    H271406   5.737   1.781   3.530  1.3937  0.0993  0.5725
16639TIP3   OH271407   2.825   4.289   1.381  0.1471 -0.1659  0.1040
16639TIP3    H171408   2.913   4.325   1.396  0.8302 -1.7057 -0.0765
16639TIP3    H271409   2.809   4.305   1.288  0.4647 -0.3666  0.0134
16640TIP3   OH271410   3.874   6.826  14.772 -0.6130 -0.1722  0.5588
16640TIP3    H171411   3.784   6.858  14.781 -2.1472 -2.7780 -3.0527
16640TIP3    H271412   3.872   6.772  14.693  4.1044 -0.6762  0.5188
16641TIP3   OH271413   1.154   1.446  16.396  0.1097 -0.5640 -0.5015
16641TIP3    H171414   1.087   1.495  16.443 -0.4327 -0.5519 -1.2666
16641TIP3    H271415   1.219   1.512  16.371  1.3250 -0.8230  1.7229
16642TIP3   OH271416   5.518   2.602   2.560  0.4118 -0.7201  0.0907
16642TIP3    H171417   5.561   2.526   2.521 -0.4762 -1.3498  0.3189
16642TIP3    H271418   5.495   2.575   2.648 -1.0605 -0.6489 -0.2443
16643TIP3   OH271419   3.938   3.214   1.696  0.0272  0.2777 -0.0707
16643TIP3    H171420   3.997   3.281   1.731 -0.1705  0.7653 -0.6479
16643TIP3    H271421   3.938   3.229   1.602 -0.2517 -0.3513 -0.1753
16644TIP3   OH271422   1.272   3.355  11.704  0.6556  0.1730 -0.6446
16644TIP3    H171423   1.244   3.423  11.765  0.6481  1.0188 -1.5520
16644TIP3    H271424   1.239   3.384  11.619 -0.0486 -1.3885 -0.9426
16645TIP3   OH271425   2.250   4.280   2.570  0.2020  0.7764 -0.5517
16645TIP3    H171426   2.341   4.264   2.544 -0.0233  1.3697 -1.7577
16645TIP3    H271427   2.223   4.356   2.519 -0.5082  1.5512  0.9197
16646TIP3   OH271428   6.486   5.172   3.910 -0.7184  0.1247  0.2379
16646TIP3    H171429   6.417   5.230   3.876 -3.2180 -1.8655  1.5251
16646TIP3    H271430   6.515   5.123   3.834 -1.3838  0.3979 -0.2064
16647TIP3   OH271431   6.019   2.909  12.809 -0.0553 -0.0558 -0.1820
16647TIP3    H171432   6.033   2.868  12.724  0.9247  0.4546 -0.2770
16647TIP3    H271433   5.967   2.987  12.790 -1.5612 -0.9840 -0.0515
16648TIP3   OH271434   2.734   3.905  14.157 -0.4284  1.0566  0.8439
16648TIP3    H171435   2.644   3.902  14.189 -1.0271 -1.0128 -0.8008
16648TIP3    H271436   2.736   3.840  14.087  2.3891  0.9971  0.8947
16649TIP3   OH271437   2.504   0.248  16.073 -0.2750 -0.6459  0.5081
16649TIP3    H171438   2.588   0.211  16.044  0.2603  0.8807  0.0110
16649TIP3    H271439   2.521   0.341  16.084 -1.5036 -0.5590  2.0084
16650TIP3   OH271440   5.841   2.805  12.459 -0.3154 -0.3136  0.0347
16650TIP3    H171441   5.898   2.815  12.535 -0.7937  4.1499  0.0697
16650TIP3    H271442   5.767   2.753  12.491  0.6358 -0.6322  1.8624
16651TIP3   OH271443   2.327   0.039  14.922 -0.5134  0.0202  0.1854
16651TIP3    H171444   2.417   0.018  14.897 -0.7002  0.1682 -0.6264
16651TIP3    H271445   2.300   0.108  14.862 -1.2230 -0.1213  0.3274
16652TIP3   OH271446   3.962   5.413   1.984  0.2013 -0.1215 -0.0253
16652TIP3    H171447   3.966   5.482   2.050  0.0773  1.1416 -1.3114
16652TIP3    H271448   3.878   5.370   2.000 -0.1809  0.6773  0.1347
16653TIP3   OH271449   3.829   0.936   5.284 -0.5878 -0.1159 -0.6762
16653TIP3    H171450   3.833   1.007   5.220  0.9330 -0.5318 -1.0897
16653TIP3    H271451   3.751   0.885   5.260  0.1535 -0.4888 -2.4682
16654TIP3   OH271452   1.852   5.518   1.183 -0.5581 -0.1457 -0.2018
16654TIP3    H171453   1.862   5.614   1.184 -1.7182  0.0299 -1.9665
16654TIP3    H271454   1.935   5.486   1.218 -1.0697  1.5111  2.8969
16655TIP3   OH271455   1.880   3.249   2.006  0.3734  0.3320 -0.2389
16655TIP3    H171456   1.851   3.265   1.916  0.4208  1.0776 -0.1298
16655TIP3    H271457   1.831   3.172   2.034  0.1851  0.2336 -0.8214
16656TIP3   OH271458   2.484   0.567   3.045 -0.0399 -0.1493 -0.5467
16656TIP3    H171459   2.515   0.500   3.106  1.4640  2.0813  1.3333
16656TIP3    H271460   2.537   0.553   2.967  2.0586  0.2860  0.7093
16657TIP3   OH271461   0.529   3.056   1.120  0.2750 -0.3195 -0.3429
16657TIP3    H171462   0.539   2.977   1.173  0.2513  1.1369  1.9941
16657TIP3    H271463   0.529   3.128   1.184 -1.2658  1.4787 -2.2265
16658TIP3   OH271464   1.394   5.728  14.842 -0.0698 -0.0181 -0.4058
16658TIP3    H171465   1.410   5.651  14.897 -1.7975  0.9544  1.6012
16658TIP3    H271466   1.307   5.714  14.806 -0.0067  0.5802 -0.8090
16659TIP3   OH271467   4.358   5.854   5.109 -0.3831 -0.2553  0.1444
16659TIP3    H171468   4.352   5.868   5.203  0.4977  0.3334  0.1165
16659TIP3    H271469   4.408   5.773   5.100 -0.7050 -0.4604  0.1844
16660TIP3   OH271470   6.009   0.423  11.271 -0.5534 -0.1115  0.3449
16660TIP3    H171471   6.023   0.479  11.195  2.8819 -2.0461 -0.6827
16660TIP3    H271472   6.030   0.478  11.346 -0.1211  0.7773 -0.4065
16661TIP3   OH271473   6.215   2.955  14.109  0.2938  0.4175  0.3460
16661TIP3    H171474   6.279   2.995  14.168 -0.6433  1.8109  0.4745
16661TIP3    H271475   6.179   3.029  14.059 -0.0030 -0.5550 -0.9098
16662TIP3   OH271476   4.646   1.527  15.409 -0.3339 -0.2942 -0.0732
16662TIP3    H171477   4.712   1.580  15.362  0.0184 -0.9582 -0.3377
16662TIP3    H271478   4.575   1.588  15.426  0.0012  0.2360 -0.5166
16663TIP3   OH271479   5.815   0.249   4.750  0.1853  0.3803  0.0837
16663TIP3    H171480   5.771   0.239   4.834  0.6399  0.1305  0.3000
16663TIP3    H271481   5.902   0.210   4.764 -0.2156 -0.9344 -0.9094
16664TIP3   OH271482   6.384   3.101   5.427  0.1584 -0.3042 -0.5256
16664TIP3    H171483   6.471   3.134   5.403  0.5409  0.7378  1.9962
16664TIP3    H271484   6.396   3.007   5.438  0.9043 -0.2076 -0.4498
16665TIP3   OH271485   0.175   6.614  12.678 -0.1293 -0.0860  0.4311
16665TIP3    H171486   0.150   6.522  12.683  1.2086 -0.4805  0.3398
16665TIP3    H271487   0.270   6.612  12.667 -0.0502  1.3154  0.6991
16666TIP3   OH271488   2.675   3.772   2.515 -0.5929 -0.1288 -0.3538
16666TIP3    H171489   2.636   3.711   2.452 -1.6312 -2.2370  2.1773
16666TIP3    H271490   2.601   3.815   2.557 -0.0037 -0.0660  0.6597
16667TIP3   OH271491   0.491   0.466  15.947  0.3621  0.0474 -0.3932
16667TIP3    H171492   0.452   0.498  15.866 -1.3556 -0.8159  0.0540
16667TIP3    H271493   0.434   0.394  15.975  1.1353  0.0622  1.3776
16668TIP3   OH271494   0.079   4.531   3.450  0.1177 -0.2386  0.1639
16668TIP3    H171495   0.124   4.472   3.510  0.3965 -0.4820 -0.2783
16668TIP3    H271496  -0.014   4.524   3.474  0.3856  0.9778  1.7073
16669TIP3   OH271497   1.638   5.937   5.315 -0.6576 -0.8595  0.1424
16669TIP3    H171498   1.594   5.856   5.288  0.8634 -1.9008  0.6064
16669TIP3    H271499   1.704   5.951   5.247 -1.2494  0.3045 -0.2083
16670TIP3   OH271500   1.646   1.205   2.715  0.4736 -0.7808  0.1037
16670TIP3    H171501   1.602   1.285   2.744 -0.3461 -1.2055  0.0631
16670TIP3    H271502   1.578   1.138   2.718 -0.3715 -0.5450 -4.7099
16671TIP3   OH271503   3.069   4.828  12.810 -0.1253  0.9262  0.3440
16671TIP3    H171504   3.105   4.793  12.892 -1.1165  2.1004  1.3292
16671TIP3    H271505   2.996   4.770  12.789  0.0717  0.6781  0.3436
16672TIP3   OH271506   0.050   6.495   4.576  0.2178  0.9336  0.8478
16672TIP3    H171507   0.107   6.512   4.652 -0.3328 -0.9104  1.7342
16672TIP3    H271508  -0.019   6.439   4.611 -0.5767  0.8169 -0.8384
16673TIP3   OH271509   2.624   3.167  12.920 -0.2438 -0.4370  0.3158
16673TIP3    H171510   2.599   3.259  12.914 -0.7745 -0.6363 -1.0000
16673TIP3    H271511   2.684   3.163  12.994  1.4966  1.3412 -0.8845
16674TIP3   OH271512   0.063   6.454  13.412 -0.2542 -0.1269  0.0269
16674TIP3    H171513   0.012   6.535  13.403  0.2285  0.1382 -0.3232
16674TIP3    H271514   0.081   6.448  13.506 -0.6967 -0.0766  0.1171
16675TIP3   OH271515   2.624   5.572  13.586  0.1466 -0.1021 -0.3722
16675TIP3    H171516   2.668   5.590  13.502 -2.1850  1.7956 -1.2886
16675TIP3    H271517   2.564   5.500  13.567  1.4182 -1.4366  0.4130
16676TIP3   OH271518   6.559   6.258   4.194 -0.6169 -0.0602  0.1843
16676TIP3    H171519   6.591   6.272   4.283 -2.0631 -3.2783  1.3522
16676TIP3    H271520   6.583   6.338   4.147  2.7661  0.5829  2.6736
16677TIP3   OH271521   0.812   4.475   3.337 -0.2378 -0.2770 -0.4985
16677TIP3    H171522   0.885   4.528   3.369  0.0534 -1.6180  1.1995
16677TIP3    H271523   0.854   4.400   3.293 -0.5451 -1.2276  0.7751
16678TIP3   OH271524   4.508   2.000   2.760 -0.5073  0.2155  0.3882
16678TIP3    H171525   4.522   2.033   2.849 -0.8330  0.3415  0.3932
16678TIP3    H271526   4.473   2.075   2.712 -0.3819  0.1329  0.1647
16679TIP3   OH271527   3.135   0.402  14.543 -0.3456  0.1900  0.1915
16679TIP3    H171528   3.068   0.470  14.541  0.5679  1.1088 -0.2745
16679TIP3    H271529   3.093   0.328  14.586 -1.3978  1.0173  0.6338
16680TIP3   OH271530   0.753   5.920  16.685  0.1959 -0.1875  0.1691
16680TIP3    H171531   0.849   5.931  16.686  0.0729  1.2896 -0.8072
16680TIP3    H271532   0.721   5.998  16.639 -1.5264 -0.3984  0.9481
16681TIP3   OH271533   1.597   0.588  13.635 -0.6195 -0.6007 -0.1233
16681TIP3    H171534   1.660   0.533  13.588 -1.3259 -1.8585  0.3476
16681TIP3    H271535   1.597   0.671  13.588  2.2675 -0.1089  0.5671
16682TIP3   OH271536   2.344   3.252   2.808 -0.0263  0.4746 -1.2953
16682TIP3    H171537   2.366   3.160   2.798  1.3772  0.7218 -0.7679
16682TIP3    H271538   2.303   3.277   2.725  0.5086 -0.3777 -1.8212
16683TIP3   OH271539   5.724   3.520  12.385  0.7878  0.0764  0.0464
16683TIP3    H171540   5.732   3.594  12.325 -1.5946  0.3348 -0.0620
16683TIP3    H271541   5.775   3.546  12.462  0.6047  1.5038 -0.2866
16684TIP3   OH271542   1.227   4.829   6.227  0.3675  0.0559  0.1695
16684TIP3    H171543   1.207   4.800   6.138 -2.6454  1.3482  0.2978
16684TIP3    H271544   1.206   4.922   6.226 -0.7697 -0.1222  2.4848
16685TIP3   OH271545   0.987   4.586   4.863  0.2549 -0.2010 -0.2950
16685TIP3    H171546   0.989   4.531   4.785 -0.0806 -0.8760  0.1581
16685TIP3    H271547   1.012   4.673   4.833 -0.5384 -0.3002 -1.2700
16686TIP3   OH271548   6.002   2.048   1.506 -1.0241  0.3942  0.1824
16686TIP3    H171549   5.960   2.022   1.424 -2.0101  0.8095  0.5486
16686TIP3    H271550   6.091   2.072   1.480 -0.6191 -1.5812 -0.4313
16687TIP3   OH271551   4.205   4.456   1.011  0.1988 -0.0242  0.1436
16687TIP3    H171552   4.119   4.470   0.972  0.3465 -1.0832 -0.6112
16687TIP3    H271553   4.210   4.361   1.025  1.1348  0.0543  0.4477
16688TIP3   OH271554   5.395   4.938   6.247  0.1316  0.2830 -0.4989
16688TIP3    H171555   5.446   4.875   6.297  0.2585  0.5298 -0.3182
16688TIP3    H271556   5.311   4.894   6.232  0.2184  0.0723 -0.3717
16689TIP3   OH271557   4.106   4.364   0.412  0.4027 -0.3644  0.8155
16689TIP3    H171558   4.108   4.422   0.489 -0.1968 -0.5146  0.9512
16689TIP3    H271559   4.190   4.378   0.369  2.0805 -2.4612  3.1021
16690TIP3   OH271560   0.017   1.842   2.418  0.0130  0.4294  0.0439
16690TIP3    H171561  -0.058   1.783   2.430  1.1257 -1.4848 -1.6548
16690TIP3    H271562   0.093   1.786   2.435  1.1255  1.4132 -1.4938
16691TIP3   OH271563   2.746   4.459   5.857 -0.2028 -0.5279 -0.2863
16691TIP3    H171564   2.836   4.463   5.823 -0.1566 -1.2511 -0.2604
16691TIP3    H271565   2.752   4.498   5.944 -0.3975  1.7420 -1.2166
16692TIP3   OH271566   0.864   3.386   1.486  0.0271  0.0362 -0.1177
16692TIP3    H171567   0.813   3.423   1.414 -0.3084 -1.2776 -0.5794
16692TIP3    H271568   0.817   3.306   1.511  0.3778  0.2306  1.2788
16693TIP3   OH271569   4.500   2.009   3.665 -0.0937 -0.3844  0.4038
16693TIP3    H171570   4.409   2.016   3.635 -0.4903 -2.1801  1.0361
16693TIP3    H271571   4.518   2.093   3.706 -0.3219  1.2450 -2.5771
16694TIP3   OH271572   1.036   4.498  14.523  0.7912 -0.1477 -0.5823
16694TIP3    H171573   1.043   4.412  14.565  1.7239  0.8625  1.4568
16694TIP3    H271574   1.112   4.503  14.465  2.3796  0.3100  1.4012
16695TIP3   OH271575   0.176   4.258   2.267 -0.0572 -0.7041  0.3453
16695TIP3    H171576   0.168   4.176   2.315 -1.5624  0.8473  2.9963
16695TIP3    H271577   0.222   4.317   2.327 -0.3717  0.8356 -0.8417
16696TIP3   OH271578   0.738   2.496   3.703  0.4225  0.5740 -0.0245
16696TIP3    H171579   0.750   2.532   3.792  0.5910 -2.2374  1.1906
16696TIP3    H271580   0.692   2.413   3.717 -1.9987  1.2793 -2.8643
16697TIP3   OH271581   3.639   3.978   1.193 -0.5276 -0.4049 -0.3416
16697TIP3    H171582   3.690   4.016   1.122 -1.1792 -0.6929 -0.9706
16697TIP3    H271583   3.690   3.901   1.221 -0.7725 -0.8790 -1.1833
16698TIP3   OH271584   4.200   5.111   3.592 -0.6023 -0.2730  0.2768
16698TIP3    H171585   4.210   5.145   3.680  2.3075  1.4525 -0.5815
16698TIP3    H271586   4.133   5.166   3.552 -0.6177  0.1485  0.8733
16699TIP3   OH271587   0.951   6.186  15.753  0.0451  0.1639 -0.3013
16699TIP3    H171588   1.023   6.198  15.815  1.8687  0.5496 -2.3597
16699TIP3    H271589   0.922   6.096  15.768 -0.3376  0.5902  1.8148
16700TIP3   OH271590   0.876   2.304  15.972  0.8587 -0.5348  0.0268
16700TIP3    H171591   0.834   2.323  16.056  0.2210 -2.0794  0.0904
16700TIP3    H271592   0.919   2.386  15.947 -1.6249  0.9176  0.2741
16701TIP3   OH271593   4.860   5.902  15.424  0.2142  0.5464  0.0310
16701TIP3    H171594   4.867   5.823  15.478  2.2453 -0.4430 -1.5416
16701TIP3    H271595   4.935   5.955  15.450  0.1351  0.9183 -0.4898
16702TIP3   OH271596   5.227   5.714   5.661 -0.0132 -0.2535 -0.0645
16702TIP3    H171597   5.247   5.746   5.749 -0.1638  0.2993 -0.2251
16702TIP3    H271598   5.138   5.679   5.667 -0.6996  1.3280 -0.3739
16703TIP3   OH271599   5.331   1.355  12.620  0.4562  0.2377 -0.6330
16703TIP3    H171600   5.257   1.409  12.593  0.6589 -0.1101 -1.9549
16703TIP3    H271601   5.377   1.407  12.686 -1.3992  0.1285  0.8316
16704TIP3   OH271602   4.601   4.259  11.166  0.1973 -0.2119 -0.0920
16704TIP3    H171603   4.607   4.185  11.106  0.3093 -0.9686  0.8109
16704TIP3    H271604   4.632   4.334  11.116  0.7048 -0.9020 -0.8366
16705TIP3   OH271605   1.590   4.914  11.503 -0.8810 -0.0620  0.2569
16705TIP3    H171606   1.597   4.823  11.473 -1.4821 -0.6670  1.7981
16705TIP3    H271607   1.646   4.918  11.581 -0.0038  1.2022 -0.4160
16706TIP3   OH271608   4.384   3.933  15.670 -0.1432 -0.6046  0.4989
16706TIP3    H171609   4.349   3.926  15.759  0.3358  0.5076  0.7969
16706TIP3    H271610   4.477   3.912  15.679 -0.0950 -0.4960  0.2703
16707TIP3   OH271611   2.650   0.537  11.265  0.0475  0.0093 -0.4428
16707TIP3    H171612   2.614   0.449  11.275  1.1050 -0.1857  2.7296
16707TIP3    H271613   2.729   0.525  11.213  0.3026 -0.9753  0.1392
16708TIP3   OH271614   3.485   1.125   6.793  0.2205  0.1221 -0.0031
16708TIP3    H171615   3.521   1.065   6.727  0.1903  0.7396 -0.5984
16708TIP3    H271616   3.394   1.140   6.765  0.6451  1.5860 -0.7238
16709TIP3   OH271617   5.002   1.121   5.025  0.4660 -0.2997  0.1950
16709TIP3    H171618   5.078   1.066   5.004  1.0097  0.5784 -0.2035
16709TIP3    H271619   4.985   1.103   5.118  2.8770  1.4667  1.0693
16710TIP3   OH271620   0.196   3.874   2.779  0.0456  0.0973  0.0340
16710TIP3    H171621   0.231   3.859   2.867 -0.0401 -1.0005 -0.1045
16710TIP3    H271622   0.108   3.907   2.793  0.4575  1.0804  0.3659
16711TIP3   OH271623   6.245   1.536  13.077  0.3441 -0.3780 -0.2437
16711TIP3    H171624   6.315   1.506  13.018  0.8454 -0.3409  0.3136
16711TIP3    H271625   6.288   1.540  13.163  0.1872  1.5210 -0.2191
16712TIP3   OH271626   2.290   0.163   2.899 -0.0645 -0.2035  0.2350
16712TIP3    H171627   2.231   0.191   2.968 -0.7038 -1.5896  0.2950
16712TIP3    H271628   2.378   0.184   2.931 -0.4120  0.0639  1.0252
16713TIP3   OH271629   3.397   2.368   1.845 -0.0271 -0.0821  0.3783
16713TIP3    H171630   3.443   2.405   1.920 -0.5748  2.4260 -0.4295
16713TIP3    H271631   3.464   2.322   1.795  0.8545  0.4076  1.0847
16714TIP3   OH271632   1.571   0.148   4.271  0.4734  0.2493 -0.1223
16714TIP3    H171633   1.478   0.153   4.294  0.1759  0.3534 -1.3000
16714TIP3    H271634   1.591   0.235   4.235  0.4691 -0.4383 -1.8450
16715TIP3   OH271635   5.295   5.449  12.937 -0.0650 -0.2390  0.2377
16715TIP3    H171636   5.234   5.426  12.867 -1.4151  0.9732  0.9665
16715TIP3    H271637   5.309   5.367  12.983 -1.8243 -0.4121  0.5453
16716TIP3   OH271638   1.709   2.541   0.623 -0.0883  0.1379  0.2374
16716TIP3    H171639   1.624   2.569   0.592  0.8433  2.2117 -0.6150
16716TIP3    H271640   1.727   2.598   0.698  0.9155  0.3352 -0.1408
16717TIP3   OH271641   5.350   2.702  12.713  0.0683  0.7366  0.0778
16717TIP3    H171642   5.299   2.625  12.687 -0.5449  1.2900 -0.3705
16717TIP3    H271643   5.380   2.740  12.630  0.6944  0.7692  0.3126
16718TIP3   OH271644   4.216   2.748   0.677 -0.7898  0.6612 -0.2465
16718TIP3    H171645   4.191   2.689   0.606 -3.7460 -3.8907  3.9220
16718TIP3    H271646   4.135   2.794   0.700 -0.1261  1.3914  0.7024
16719TIP3   OH271647   5.345   0.952  13.504  0.0088 -0.4823 -0.3561
16719TIP3    H171648   5.287   0.919  13.573  0.2680  2.5579  1.5101
16719TIP3    H271649   5.287   0.980  13.434 -0.4077 -1.6020 -0.4771
16720TIP3   OH271650   5.691   1.921  11.701  0.2817  0.2077 -0.7837
16720TIP3    H171651   5.608   1.968  11.700  1.1336  1.8112  0.1570
16720TIP3    H271652   5.668   1.830  11.720 -1.2456  0.6409 -0.5001
16721TIP3   OH271653   6.350   5.142   5.106  0.2431  0.2458  0.3951
16721TIP3    H171654   6.417   5.076   5.087  0.4877  0.6338 -0.1183
16721TIP3    H271655   6.307   5.111   5.186  0.8542 -0.1444  0.5756
16722TIP3   OH271656   5.218   5.555   3.467  0.0415  0.7483  0.6926
16722TIP3    H171657   5.195   5.569   3.376 -0.2021  0.3418  0.6883
16722TIP3    H271658   5.307   5.588   3.475 -0.8286  3.2469  0.9293
16723TIP3   OH271659   4.549   3.147   4.694 -0.1035  0.0239 -0.1428
16723TIP3    H171660   4.631   3.193   4.679 -0.6978  0.9298 -0.7287
16723TIP3    H271661   4.564   3.096   4.773  0.9406  0.3685 -0.1074
16724TIP3   OH271662   0.212   3.832  16.166  0.3548 -0.2430 -0.0752
16724TIP3    H171663   0.237   3.870  16.250 -0.9318  0.3022  0.0876
16724TIP3    H271664   0.204   3.907  16.107  1.4682 -0.6399 -0.7691
16725TIP3   OH271665   2.307   0.099   4.133  0.2296  0.5403  0.3585
16725TIP3    H171666   2.257   0.169   4.175  0.0001  0.6726 -0.1294
16725TIP3    H271667   2.298   0.025   4.193  0.3134  0.8689  0.7817
16726TIP3   OH271668   3.923   0.246  13.137 -0.6626 -0.3356 -0.3612
16726TIP3    H171669   3.863   0.213  13.204 -1.2502  0.7958 -0.3069
16726TIP3    H271670   3.874   0.316  13.093 -0.7085 -1.7380 -2.7201
16727TIP3   OH271671   6.378   3.383   4.488 -0.9004  0.2289  0.1097
16727TIP3    H171672   6.392   3.297   4.528 -2.7899 -0.3081 -0.2476
16727TIP3    H271673   6.295   3.413   4.525  0.2827  2.4656  1.1001
16728TIP3   OH271674   1.300   0.605  13.411 -0.1416 -0.7008  0.0315
16728TIP3    H171675   1.283   0.673  13.477 -0.8766 -0.8559  0.0149
16728TIP3    H271676   1.313   0.654  13.329 -0.5539 -0.5699  0.0410
16729TIP3   OH271677   5.967   2.065   3.667 -0.5582  0.2718 -0.0451
16729TIP3    H171678   5.982   2.121   3.743 -1.0005  0.7994 -0.3392
16729TIP3    H271679   6.037   1.999   3.671  0.4278  1.2943 -0.1309
16730TIP3   OH271680   3.717   0.657  13.829 -0.0942  0.6659  0.7283
16730TIP3    H171681   3.646   0.632  13.769 -0.0626  0.7663  0.6499
16730TIP3    H271682   3.779   0.705  13.775 -0.2734  1.1340  0.9320
16731TIP3   OH271683   5.820   3.972   3.940 -0.3534 -0.1646 -0.0881
16731TIP3    H171684   5.817   3.877   3.945  0.2178 -0.1919 -0.1496
16731TIP3    H271685   5.738   3.997   3.898 -1.9676 -0.3828  2.7148
16732TIP3   OH271686   3.589   5.164  16.674 -0.0106  0.2710  0.2689
16732TIP3    H171687   3.664   5.198  16.723  0.5967 -0.7474  0.0786
16732TIP3    H271688   3.522   5.231  16.683  1.3600  1.8435 -0.6584
16733TIP3   OH271689   0.839   0.572   3.094 -0.2065  0.2667 -0.2145
16733TIP3    H171690   0.862   0.518   3.169  0.9343 -0.5942 -1.1586
16733TIP3    H271691   0.776   0.519   3.044  0.1354  0.2310 -0.6131
16734TIP3   OH271692   0.972   6.287  12.711 -0.0889 -0.3551 -0.3517
16734TIP3    H171693   0.896   6.245  12.751 -0.1201  0.5634  0.6032
16734TIP3    H271694   0.947   6.300  12.619  0.0818 -2.7236 -0.7746
16735TIP3   OH271695   2.936   5.846   4.867  0.7556  0.2049  0.4478
16735TIP3    H171696   2.854   5.857   4.820  0.9915  1.0666  0.2059
16735TIP3    H271697   3.000   5.824   4.800  1.1443  1.6895  0.2875
16736TIP3   OH271698   0.343   2.455   3.726 -0.0247 -0.1535 -0.3213
16736TIP3    H171699   0.264   2.427   3.773 -0.2875 -1.2789 -1.3796
16736TIP3    H271700   0.310   2.483   3.640  0.6269  0.3512 -0.4128
16737TIP3   OH271701   3.905   5.192  16.210  0.0494 -0.1226  0.6749
16737TIP3    H171702   3.811   5.192  16.195  0.1072 -1.2402  0.1930
16737TIP3    H271703   3.917   5.132  16.284  0.2595  1.1742  1.7260
16738TIP3   OH271704   5.369   6.709  12.409  0.2765  0.1172 -0.4216
16738TIP3    H171705   5.300   6.752  12.459 -0.6152 -0.3951 -1.1724
16738TIP3    H271706   5.440   6.696  12.471  0.0113  1.3783  0.1659
16739TIP3   OH271707   4.389   5.381   4.663  0.3062 -0.2821  0.1624
16739TIP3    H171708   4.385   5.471   4.632  0.1541  0.8977  3.2425
16739TIP3    H271709   4.300   5.360   4.691  0.3184 -1.4619 -0.5752
16740TIP3   OH271710   3.163   5.160   0.579 -0.1210  0.1508 -0.1250
16740TIP3    H171711   3.255   5.155   0.556  0.3400 -0.3670  1.6386
16740TIP3    H271712   3.160   5.133   0.671 -2.0288  0.1698 -0.1401
16741TIP3   OH271713   3.269   0.938  14.622  0.1119 -0.5514  0.2750
16741TIP3    H171714   3.337   0.886  14.579  0.6672 -0.3165  0.8393
16741TIP3    H271715   3.284   0.922  14.716 -0.0838  0.1556  0.4317
16742TIP3   OH271716   5.173   5.407  11.720 -0.4526 -0.0007  0.4467
16742TIP3    H171717   5.174   5.336  11.784 -0.0821  0.3683  0.8581
16742TIP3    H271718   5.109   5.379  11.655 -1.5902  0.0825  1.4914
16743TIP3   OH271719   4.321   2.053  12.326  0.0200 -0.5180  0.0552
16743TIP3    H171720   4.244   2.035  12.381 -0.1283 -0.0039  0.0221
16743TIP3    H271721   4.340   1.969  12.284 -1.2275 -0.3845 -0.8297
16744TIP3   OH271722   3.548   0.571  16.103  0.4580  0.1665 -0.2907
16744TIP3    H171723   3.548   0.641  16.168  0.0583 -1.0808  1.1015
16744TIP3    H271724   3.551   0.617  16.018  1.7543  1.8093  0.5914
16745TIP3   OH271725   6.000   3.956   4.917  0.0411 -0.0455 -0.2915
16745TIP3    H171726   5.966   4.020   4.854 -0.3259  0.8341  0.7738
16745TIP3    H271727   6.003   3.874   4.868  2.7307  1.1786 -2.4074
16746TIP3   OH271728   0.471   3.199  11.205  0.2162  0.1325  0.3382
16746TIP3    H171729   0.464   3.285  11.163  1.5572 -0.3239 -0.8991
16746TIP3    H271730   0.381   3.176  11.227 -0.0940  2.4005  1.9087
16747TIP3   OH271731   2.062   0.267   5.559 -0.0236  0.3570 -0.5552
16747TIP3    H171732   1.970   0.240   5.565  0.4197 -0.9134  1.2349
16747TIP3    H271733   2.067   0.348   5.610 -0.2619  0.7880 -1.2058
16748TIP3   OH271734   0.047   4.117  13.436  0.1614  0.1075  0.2290
16748TIP3    H171735  -0.010   4.052  13.394 -0.3925 -1.7158  3.4658
16748TIP3    H271736   0.136   4.087  13.417 -0.0692 -0.5174  0.1300
16749TIP3   OH271737   4.587   3.417   5.835  0.0415 -0.1431  0.0970
16749TIP3    H171738   4.606   3.361   5.911 -1.4631  0.0720  0.6604
16749TIP3    H271739   4.567   3.502   5.872  1.6191  0.6308 -0.7223
16750TIP3   OH271740   4.039   0.118   2.721 -0.0978 -0.8458 -0.7245
16750TIP3    H171741   4.114   0.173   2.743 -1.5606  0.7346  0.6278
16750TIP3    H271742   4.005   0.156   2.639  0.2803 -1.2469 -1.0688
16751TIP3   OH271743   4.902   1.675  15.993  0.2080 -0.2599 -0.0100
16751TIP3    H171744   4.984   1.647  15.954 -0.0634 -0.6086 -0.3441
16751TIP3    H271745   4.903   1.640  16.082  0.3710 -0.3498 -0.0489
16752TIP3   OH271746   5.342   0.763  13.118 -0.2151  0.3434 -0.0337
16752TIP3    H171747   5.387   0.769  13.034 -0.2172  0.5551 -0.0200
16752TIP3    H271748   5.287   0.685  13.110  0.2848 -0.0253  0.0143
16753TIP3   OH271749   0.232   0.226  14.273 -0.1647 -0.2190 -0.4064
16753TIP3    H171750   0.281   0.144  14.279  0.3281  0.1906  3.8136
16753TIP3    H271751   0.140   0.199  14.269  0.0124 -1.0104  0.5105
16754TIP3   OH271752   5.122   2.339   5.991  0.7152  0.1468  0.2030
16754TIP3    H171753   5.121   2.429   6.023 -2.8812 -0.4181  2.2799
16754TIP3    H271754   5.072   2.341   5.910 -0.7680 -0.1291  1.0754
16755TIP3   OH271755   1.851   4.234   1.460  0.1117 -0.0889 -0.0369
16755TIP3    H171756   1.882   4.145   1.477  2.4184  0.4047 -1.2262
16755TIP3    H271757   1.835   4.271   1.547 -0.3010 -1.4487  0.4951
16756TIP3   OH271758   0.238   2.169  14.181  0.1498  0.3050 -0.1268
16756TIP3    H171759   0.153   2.185  14.140 -0.1693  1.9579  1.0675
16756TIP3    H271760   0.221   2.098  14.243  0.0168 -0.3998 -0.9502
16757TIP3   OH271761   6.349   3.625  14.316 -0.2985 -0.1484 -0.1854
16757TIP3    H171762   6.440   3.599  14.302 -0.2895  0.2082 -0.8307
16757TIP3    H271763   6.331   3.603  14.407  0.2958 -0.6367 -0.1834
16758TIP3   OH271764   3.775   3.829   0.142  0.1230 -0.0797  0.1751
16758TIP3    H171765   3.777   3.734   0.131 -0.7420 -0.0024 -0.9391
16758TIP3    H271766   3.850   3.849   0.198 -0.2482 -1.5074  1.2386
16759TIP3   OH271767   3.207   6.510   4.718 -0.3473  0.4708 -0.0337
16759TIP3    H171768   3.252   6.428   4.738  0.8227  1.2918  0.8129
16759TIP3    H271769   3.135   6.484   4.660 -0.1031 -1.1661  0.3447
16760TIP3   OH271770   6.378   6.103  16.431 -0.4577  0.3345  0.1655
16760TIP3    H171771   6.361   6.015  16.465 -1.6553  0.4789 -0.0145
16760TIP3    H271772   6.472   6.116  16.444 -0.3212 -0.8459  0.4822
16761TIP3   OH271773   6.330   5.830  16.525  0.7764  0.1522  0.3475
16761TIP3    H171774   6.296   5.741  16.527 -1.6886  0.8550 -2.5151
16761TIP3    H271775   6.341   5.854  16.617 -1.4635 -2.0407  1.2922
16762TIP3   OH271776   2.328   2.758   5.012 -0.3810 -0.8640  0.2507
16762TIP3    H171777   2.383   2.774   4.935  0.8474  2.3459  1.6023
16762TIP3    H271778   2.387   2.718   5.076 -0.0697  0.6871  0.9965
16763TIP3   OH271779   1.540   6.423  13.810 -0.1507 -0.4762 -0.2935
16763TIP3    H171780   1.455   6.421  13.855  0.9380  2.3103  2.1922
16763TIP3    H271781   1.591   6.354  13.853 -0.4593 -0.7465 -0.3473
16764TIP3   OH271782   3.236   0.530   5.587 -0.4607 -0.2237  0.1437
16764TIP3    H171783   3.222   0.437   5.570  0.9557 -0.7798  1.7597
16764TIP3    H271784   3.150   0.562   5.614 -1.0463 -0.9621 -0.7772
16765TIP3   OH271785   2.697   0.835   5.911 -0.2891  0.0442  0.0759
16765TIP3    H171786   2.684   0.809   6.002 -0.1011  1.6134  0.5714
16765TIP3    H271787   2.769   0.779   5.881 -0.7402 -0.9005  0.6829
16766TIP3   OH271788   5.196   5.543   5.352 -0.1805 -0.1887 -0.0981
16766TIP3    H171789   5.109   5.528   5.389  0.4157 -1.0841  0.9992
16766TIP3    H271790   5.186   5.519   5.259 -0.6605 -2.2330  0.4182
16767TIP3   OH271791   4.199   0.533  14.890 -0.1347  0.1608 -0.1676
16767TIP3    H171792   4.282   0.525  14.844  0.8184 -0.5545  1.5726
16767TIP3    H271793   4.192   0.453  14.942 -1.5732  0.5204  0.2592
16768TIP3   OH271794   3.387   5.848   5.111  0.0453  0.1210  0.1613
16768TIP3    H171795   3.312   5.791   5.128  1.0140 -1.9872 -2.1253
16768TIP3    H271796   3.415   5.877   5.198 -0.0007 -3.6102  1.5889
16769TIP3   OH271797   4.748   4.855  12.890 -0.5211  0.1384 -0.0031
16769TIP3    H171798   4.736   4.950  12.890  0.0303  0.2209 -0.9626
16769TIP3    H271799   4.842   4.843  12.879 -0.5728 -0.5265  0.2343
16770TIP3   OH271800   2.507   4.616  14.829  0.0798 -0.2281 -0.9014
16770TIP3    H171801   2.480   4.551  14.893  0.1793  0.3818 -0.2327
16770TIP3    H271802   2.548   4.565  14.759  0.2278 -0.8719 -0.3490
16771TIP3   OH271803   2.045   3.837   2.002  0.1228  0.6636 -0.1099
16771TIP3    H171804   1.956   3.823   1.967 -0.2050 -1.8231  1.5035
16771TIP3    H271805   2.102   3.787   1.943 -0.0189 -0.6564  0.8295
16772TIP3   OH271806   0.413   4.070   3.687 -0.1967 -0.1777  0.5275
16772TIP3    H171807   0.424   4.113   3.771  0.0704  0.6112  0.1026
16772TIP3    H271808   0.500   4.037   3.665  0.2660  1.5988 -0.4695
16773TIP3   OH271809   5.820   2.002  11.178 -0.0214  0.2699 -0.4726
16773TIP3    H171810   5.838   2.007  11.272 -2.0056  1.0870 -0.0954
16773TIP3    H271811   5.790   2.090  11.154  0.8334  0.1803 -1.9681
16774TIP3   OH271812   0.427   3.578   4.034 -0.0446 -0.0792  0.2537
16774TIP3    H171813   0.376   3.564   4.114 -0.8325 -3.1356 -0.6572
16774TIP3    H271814   0.362   3.576   3.963  1.0276 -1.6788 -0.7534
16775TIP3   OH271815   0.286   3.419   5.425 -0.4628 -0.0730  0.2988
16775TIP3    H171816   0.364   3.438   5.477  0.4828  0.8068 -1.3578
16775TIP3    H271817   0.232   3.498   5.432 -0.4145 -0.0209  0.0747
16776TIP3   OH271818   1.542   4.951  13.097 -0.2834 -0.2267 -0.6462
16776TIP3    H171819   1.454   4.933  13.130 -0.4752 -0.0416 -1.0506
16776TIP3    H271820   1.600   4.909  13.160 -0.6550 -0.1988 -0.2774
16777TIP3   OH271821   4.050   4.409   3.534 -0.6160 -0.4091  0.5491
16777TIP3    H171822   4.045   4.330   3.588 -0.8057 -0.4687  0.4482
16777TIP3    H271823   4.005   4.476   3.585 -0.5434 -0.3924  0.5911
16778TIP3   OH271824   1.097   0.341  14.934  0.0528 -0.6368 -0.1179
16778TIP3    H171825   1.011   0.364  14.900  0.3508  1.8980  0.6440
16778TIP3    H271826   1.104   0.389  15.016  2.2783 -0.5987 -0.2698
16779TIP3   OH271827   0.166   6.342  11.220 -0.9115  0.1074  0.1130
16779TIP3    H171828   0.112   6.397  11.165 -0.7033  1.4712  1.2136
16779TIP3    H271829   0.118   6.259  11.226 -1.3628  0.2462 -1.3521
16780TIP3   OH271830   0.929   5.412  12.184 -0.0677 -0.1384  0.5142
16780TIP3    H171831   0.834   5.418  12.199  0.1409  0.9492  1.4961
16780TIP3    H271832   0.950   5.320  12.202 -0.5514  0.1515  2.8294
16781TIP3   OH271833   4.796   0.688   1.253 -0.0106  0.1133  0.6537
16781TIP3    H171834   4.846   0.770   1.256  0.5387 -0.1738 -0.3053
16781TIP3    H271835   4.734   0.701   1.181  0.6188 -0.6007 -0.0379
16782TIP3   OH271836   3.283   2.633   1.947  0.7844 -0.0089 -0.3567
16782TIP3    H171837   3.270   2.582   1.867 -0.6698  0.3195 -0.3629
16782TIP3    H271838   3.351   2.697   1.923 -0.7736  1.1736 -1.9130
16783TIP3   OH271839   2.186   4.642   2.645 -0.0843  0.2911 -0.4427
16783TIP3    H171840   2.182   4.578   2.716 -1.1484 -1.7653 -2.2159
16783TIP3    H271841   2.255   4.703   2.671 -1.8362  0.9384  3.3199
16784TIP3   OH271842   3.764   4.624   2.264  0.0627  0.3205  0.1839
16784TIP3    H171843   3.801   4.685   2.328 -0.7913 -0.1820  1.1769
16784TIP3    H271844   3.818   4.545   2.272 -0.9157 -0.2514  1.3127
16785TIP3   OH271845   2.125   3.379   4.433 -0.5134 -0.0829  0.1796
16785TIP3    H171846   2.116   3.472   4.412 -0.1987  0.5627  2.5847
16785TIP3    H271847   2.047   3.359   4.484  0.1823 -0.7183  1.0006
16786TIP3   OH271848   1.824   0.925   1.464  0.2317  0.6795  0.3639
16786TIP3    H171849   1.805   0.890   1.377 -0.1334 -0.3728  0.8568
16786TIP3    H271850   1.919   0.939   1.464  0.3318  0.0361  0.0293
16787TIP3   OH271851   3.368   1.858  12.667  0.6773  0.1856  1.0004
16787TIP3    H171852   3.452   1.812  12.675  1.0369  0.6443  0.0766
16787TIP3    H271853   3.302   1.790  12.673  1.2207 -0.6667 -1.5343
16788TIP3   OH271854   6.695   4.558  16.492  0.5428 -0.7721  0.2617
16788TIP3    H171855   6.638   4.499  16.442  0.6876 -1.9713  1.4308
16788TIP3    H271856   6.652   4.643  16.488 -0.4090 -1.2650 -0.3281
16789TIP3   OH271857   4.361   4.523   4.171 -0.0477 -0.1715  0.0683
16789TIP3    H171858   4.327   4.509   4.259 -1.2808  0.5109 -0.2813
16789TIP3    H271859   4.376   4.435   4.136  3.1395 -0.5088  1.9108
16790TIP3   OH271860   1.673   5.578   3.756 -0.2397  0.2541  0.1413
16790TIP3    H171861   1.609   5.521   3.798 -2.1441  1.1766 -1.3926
16790TIP3    H271862   1.730   5.517   3.707 -0.0362 -0.5540  1.3355
16791TIP3   OH271863   2.602   0.098   6.097  0.0994  0.2533 -0.0400
16791TIP3    H171864   2.526   0.047   6.127  0.8778 -0.5383  0.6345
16791TIP3    H271865   2.615   0.071   6.007  0.4490 -0.6941  0.2835
16792TIP3   OH271866   0.242   6.760  11.922 -0.0686  0.2918 -0.0125
16792TIP3    H171867   0.333   6.738  11.945 -0.7171 -2.6813  0.1429
16792TIP3    H271868   0.189   6.712  11.985 -1.7805  0.8087 -0.9979
16793TIP3   OH271869   3.661   3.198  12.263  0.7520 -0.5339 -0.3250
16793TIP3    H171870   3.610   3.133  12.215  1.5577 -0.6788 -1.0164
16793TIP3    H271871   3.729   3.146  12.307  0.3350 -0.3458  0.5749
16794TIP3   OH271872   6.841   5.516   4.684  0.3055 -0.2370 -0.1125
16794TIP3    H171873   6.864   5.607   4.665 -0.4536  0.3528  1.6050
16794TIP3    H271874   6.785   5.490   4.611 -1.2245  1.3963  0.4020
16795TIP3   OH271875   4.386   2.371  14.873  0.4769 -0.6626 -0.4048
16795TIP3    H171876   4.371   2.393  14.781  1.3965  0.7121 -0.2474
16795TIP3    H271877   4.456   2.306  14.872 -0.8409 -2.1406 -0.7555
16796TIP3   OH271878   4.731   5.911   4.702 -0.2565 -0.3516  0.1417
16796TIP3    H171879   4.704   5.879   4.616  0.5711  0.4213 -0.4055
16796TIP3    H271880   4.822   5.885   4.710  0.1111  0.8867  0.1499
16797TIP3   OH271881   0.531   0.555   6.095  0.3142 -0.1639 -0.0927
16797TIP3    H171882   0.542   0.589   6.007  1.0968  0.4423  0.2324
16797TIP3    H271883   0.436   0.542   6.104  0.3185 -1.3348 -1.4131
16798TIP3   OH271884   6.671   5.573   3.124  0.5428  0.1513  0.2378
16798TIP3    H171885   6.595   5.518   3.144 -0.3039  0.9783 -0.5983
16798TIP3    H271886   6.715   5.585   3.208  0.9365 -2.0294  0.4103
16799TIP3   OH271887   4.793   3.792  13.208  0.4422 -0.0806  0.3437
16799TIP3    H171888   4.823   3.795  13.299  0.7591  0.6539  0.2251
16799TIP3    H271889   4.714   3.846  13.207 -0.4604 -1.3775  0.4952
16800TIP3   OH271890   3.619   6.382  15.034 -0.8591 -0.6298  0.1878
16800TIP3    H171891   3.599   6.469  14.999 -2.0029 -0.3438  1.4550
16800TIP3    H271892   3.556   6.324  14.992 -0.8956 -0.6352  0.2503
16801TIP3   OH271893   0.785   0.372  11.743 -0.0601 -0.3749  0.1848
16801TIP3    H171894   0.733   0.302  11.783  1.1190 -0.4936  1.5840
16801TIP3    H271895   0.840   0.405  11.814 -0.3490  1.7738 -0.5112
16802TIP3   OH271896   4.631   0.601  15.340 -0.4267  0.4695  0.6137
16802TIP3    H171897   4.695   0.657  15.297  0.4995  0.0093  1.3635
16802TIP3    H271898   4.627   0.523  15.285  1.0438 -0.2844  1.5126
16803TIP3   OH271899   2.729   1.369  16.083 -0.0008  0.1336  0.3726
16803TIP3    H171900   2.730   1.277  16.054 -0.2298  0.8153 -1.9720
16803TIP3    H271901   2.821   1.395  16.082 -0.1064  0.6511 -1.6879
16804TIP3   OH271902   1.058   0.038   2.746 -0.0018  0.7099  0.7958
16804TIP3    H171903   1.022   0.035   2.657  1.2869 -1.0397  0.2800
16804TIP3    H271904   0.989   0.079   2.798 -0.8827  1.5807 -0.9486
16805TIP3   OH271905   0.762   0.090  11.816 -0.6290  0.0576  0.1658
16805TIP3    H171906   0.835   0.106  11.876 -0.8965 -3.6002  1.7291
16805TIP3    H271907   0.802   0.089  11.729  0.5766  1.2250  0.6839
16806TIP3   OH271908   3.318   0.310  12.754 -0.0072  0.2792 -0.6878
16806TIP3    H171909   3.335   0.217  12.739 -2.6572 -0.3768 -0.2079
16806TIP3    H271910   3.304   0.317  12.848  1.2799  1.4199 -0.5548
16807TIP3   OH271911   2.726   6.451   3.460 -0.1963  0.5595 -0.4257
16807TIP3    H171912   2.772   6.531   3.484 -0.8249  0.1885  2.3107
16807TIP3    H271913   2.792   6.382   3.465 -0.4961  0.3575  1.2837
16808TIP3   OH271914   1.443   5.450   2.611 -0.1672  0.0547 -0.2484
16808TIP3    H171915   1.408   5.511   2.676 -0.6081  0.6782 -1.0393
16808TIP3    H271916   1.378   5.380   2.606 -0.5004  0.3730 -0.5185
16809TIP3   OH271917   5.961   0.378   1.644 -0.4584  0.1111  0.0990
16809TIP3    H171918   6.018   0.446   1.608 -1.1864  0.4544 -0.4304
16809TIP3    H271919   5.985   0.373   1.737 -1.4341  2.1848  0.5199
16810TIP3   OH271920   0.506   6.871  11.795  0.7763 -0.3554  0.1762
16810TIP3    H171921   0.596   6.867  11.827  0.7247 -0.2317  0.3363
16810TIP3    H271922   0.495   6.789  11.746  0.8794 -0.5157  0.4155
16811TIP3   OH271923   5.590   4.335   5.771 -0.2079  0.0430 -0.1397
16811TIP3    H171924   5.544   4.292   5.699  0.7671 -1.2844 -0.0096
16811TIP3    H271925   5.549   4.299   5.850 -1.5420  1.7883  0.0185
16812TIP3   OH271926   2.736   0.472   5.889  0.5452  0.4893 -0.4318
16812TIP3    H171927   2.797   0.545   5.895 -0.2858  1.1054  1.0786
16812TIP3    H271928   2.679   0.481   5.966  0.3906 -1.7319 -0.2089
16813TIP3   OH271929   4.964   4.264  14.610 -0.8958 -0.4714 -0.2246
16813TIP3    H171930   4.880   4.220  14.595 -0.6139 -2.3932  2.9577
16813TIP3    H271931   5.028   4.206  14.568 -0.8754 -1.0336  0.5581
16814TIP3   OH271932   0.184   2.485  15.881  0.3449  0.1941  0.0918
16814TIP3    H171933   0.264   2.529  15.909 -0.6640  2.7936 -0.7806
16814TIP3    H271934   0.113   2.544  15.908 -1.0193 -0.2338 -2.2662
16815TIP3   OH271935   1.608   0.674  14.996  0.3876  0.1290  0.2633
16815TIP3    H171936   1.522   0.715  14.996  0.5729  0.5268  0.6039
16815TIP3    H271937   1.596   0.592  14.946  0.1237  0.8149 -0.8407
16816TIP3   OH271938   6.101   6.285   3.565  0.3172  0.3724 -0.6386
16816TIP3    H171939   6.008   6.268   3.578  0.5754  0.0703  1.0768
16816TIP3    H271940   6.113   6.281   3.470 -1.4192  0.5077 -0.9068
16817TIP3   OH271941   0.917   5.330   0.230  0.7209  0.2550  1.0579
16817TIP3    H171942   0.983   5.343   0.161  2.3783 -0.4804  2.4273
16817TIP3    H271943   0.949   5.254   0.279 -0.6297  0.5124  2.4013
16818TIP3   OH271944   6.314   0.938   1.561  0.3500 -0.2593 -0.0247
16818TIP3    H171945   6.281   0.860   1.605  0.9234  0.4587  1.7501
16818TIP3    H271946   6.395   0.909   1.519 -0.1563 -0.9300 -0.5697
16819TIP3   OH271947   6.611   2.422   5.480  0.1052  0.6131  0.4435
16819TIP3    H171948   6.663   2.342   5.482  0.1017  0.6199  1.1190
16819TIP3    H271949   6.522   2.394   5.499  0.1059  0.7740  0.6943
16820TIP3   OH271950   1.929   1.469  14.121  0.2000  0.7565 -0.1246
16820TIP3    H171951   1.835   1.466  14.137 -0.3428 -3.9023 -2.3718
16820TIP3    H271952   1.941   1.421  14.039  4.5959  0.9357  0.1509
16821TIP3   OH271953   1.427   5.953  13.807  0.1870  0.4854  0.0135
16821TIP3    H171954   1.335   5.974  13.787 -0.3802 -0.7957  1.1544
16821TIP3    H271955   1.452   6.017  13.874 -0.4464 -0.2575  0.9822
16822TIP3   OH271956   4.008   2.958   5.064 -0.0486  0.0349 -0.3736
16822TIP3    H171957   3.913   2.970   5.071 -0.0833 -0.2532 -0.3322
16822TIP3    H271958   4.027   2.884   5.121 -0.2464 -1.9512 -2.6898
16823TIP3   OH271959   4.027   6.429  16.241  0.1164 -0.3093 -0.1801
16823TIP3    H171960   3.940   6.417  16.204 -0.5908  0.3221  1.1951
16823TIP3    H271961   4.033   6.363  16.310 -0.0732  0.8880  1.0330
16824TIP3   OH271962   3.652   6.821   1.838 -0.0567 -0.5280 -0.1729
16824TIP3    H171963   3.591   6.872   1.784  0.2729  0.1057  0.0413
16824TIP3    H271964   3.727   6.804   1.780  0.3664  0.2880  0.1206
16825TIP3   OH271965   4.024   4.671  15.655  0.3000  0.6274  0.4804
16825TIP3    H171966   3.967   4.653  15.580  0.7825 -2.5645  0.7159
16825TIP3    H271967   3.964   4.678  15.729  0.0329 -0.0636  0.3376
16826TIP3   OH271968   0.419   4.063   0.994  0.0210  0.2038 -0.0750
16826TIP3    H171969   0.408   4.135   0.932  0.4040 -0.2273 -0.6449
16826TIP3    H271970   0.335   4.017   0.993  0.1070  0.0516 -0.4636
16827TIP3   OH271971   4.153   5.107  16.390  0.3637  0.1118  0.5579
16827TIP3    H171972   4.184   5.184  16.342  2.0366  0.3275  1.8622
16827TIP3    H271973   4.101   5.143  16.462 -0.5852 -0.1067 -0.0081
16828TIP3   OH271974   5.070   1.260  16.482 -0.0011  0.4204  0.4243
16828TIP3    H171975   5.022   1.332  16.523  1.5604 -0.0072  3.2489
16828TIP3    H271976   5.152   1.254  16.531  0.6099 -2.2912 -0.7308
16829TIP3   OH271977   4.527   2.112  13.690 -0.5917  0.1972  0.4703
16829TIP3    H171978   4.440   2.085  13.658 -1.4650  1.4544  1.6914
16829TIP3    H271979   4.554   2.181  13.629  0.9667 -2.1868 -1.7353
16830TIP3   OH271980   0.063   4.034  13.707 -0.4708 -0.3545 -0.1927
16830TIP3    H171981   0.095   3.963  13.652  1.9873  1.7579 -1.6741
16830TIP3    H271982  -0.010   4.071  13.657 -1.7050 -1.6362  0.5440
16831TIP3   OH271983   6.855   4.070   5.164  0.1167 -0.4373 -0.0740
16831TIP3    H171984   6.821   4.155   5.192 -1.5508 -1.0874 -0.0186
16831TIP3    H271985   6.922   4.048   5.230 -1.8872 -0.7374  1.9780
16832TIP3   OH271986   0.472   0.490  13.986 -0.0445 -0.5084  0.8105
16832TIP3    H171987   0.434   0.497  13.898 -0.4149 -0.7918  0.9418
16832TIP3    H271988   0.467   0.397  14.006  2.0626 -0.7731  0.2677
16833TIP3   OH271989   3.767   6.569   0.410 -0.1748  0.1155  0.2214
16833TIP3    H171990   3.813   6.564   0.494  1.3358  2.2849 -0.3982
16833TIP3    H271991   3.717   6.650   0.414  1.0760  1.0290 -1.4621
16834TIP3   OH271992   0.112   0.864   4.321 -0.0293 -0.1215 -0.0779
16834TIP3    H171993   0.195   0.838   4.360  0.3117  0.9445 -0.0725
16834TIP3    H271994   0.050   0.862   4.394  0.2780  0.3832  0.2005
16835TIP3   OH271995   3.888   4.057   1.021 -0.0486  0.3826 -0.0835
16835TIP3    H171996   3.928   4.131   1.066  1.0043 -0.3387  0.2111
16835TIP3    H271997   3.948   3.984   1.037 -1.3324 -0.6665  0.0978
16836TIP3   OH271998   6.281   5.429   5.154  0.1920  0.1283  0.3200
16836TIP3    H171999   6.218   5.424   5.226  1.5223  0.7694  1.5882
16836TIP3    H272000   6.309   5.338   5.141 -0.1740 -0.0138  0.4983
16837TIP3   OH272001   2.937   6.421   0.314 -0.2551 -0.2677  0.6462
16837TIP3    H172002   2.915   6.498   0.261 -0.6854 -0.0223  1.1742
16837TIP3    H272003   2.854   6.394   0.353 -0.0674 -0.8788  0.6317
16838TIP3   OH272004   4.864   4.612   1.791 -0.3231 -0.5971 -0.1395
16838TIP3    H172005   4.774   4.608   1.758 -0.8274 -1.8992  1.3071
16838TIP3    H272006   4.895   4.522   1.786  1.1896 -0.0582 -1.2911
16839TIP3   OH272007   3.688   5.483   0.252  0.5853  0.2030 -0.3976
16839TIP3    H172008   3.637   5.535   0.315 -0.2274  0.0032 -0.8783
16839TIP3    H272009   3.688   5.536   0.173  0.9461  0.1031 -0.4618
16840TIP3   OH272010   2.445   1.123  12.127  0.0022  0.5897 -0.3876
16840TIP3    H172011   2.440   1.180  12.204  1.6241 -1.2097  1.1481
16840TIP3    H272012   2.372   1.062  12.138  0.1314  0.4369 -0.3842
16841TIP3   OH272013   3.762   5.777   0.541  0.0865 -0.8511  0.3193
16841TIP3    H172014   3.701   5.704   0.543 -1.2585  0.2326  0.8914
16841TIP3    H272015   3.724   5.838   0.478  0.7712 -0.3002  0.4242
16842TIP3   OH272016   4.073   3.324  14.160 -0.8617  0.6929 -0.0931
16842TIP3    H172017   3.994   3.363  14.122 -0.2629  2.6803  0.5499
16842TIP3    H272018   4.119   3.286  14.086 -0.9440  2.2411 -0.9849
16843TIP3   OH272019   5.787   6.812  16.465 -0.2563  0.0463 -0.4225
16843TIP3    H172020   5.740   6.729  16.469  1.8912 -1.2178 -0.4742
16843TIP3    H272021   5.809   6.823  16.372  0.5381  0.0488 -0.2385
16844TIP3   OH272022   6.747   3.694   4.180  0.3174  0.3442 -0.4909
16844TIP3    H172023   6.679   3.760   4.167  1.5422  1.5368 -0.9526
16844TIP3    H272024   6.726   3.626   4.116 -0.8012  0.3722 -0.1864
16845TIP3   OH272025   5.863   4.412  14.006  0.1950  0.2877  0.3465
16845TIP3    H172026   5.890   4.463  14.083  1.8535  3.0384 -1.8934
16845TIP3    H272027   5.791   4.462  13.968 -1.8077 -1.9628  0.9286
16846TIP3   OH272028   2.201   1.163  14.097  0.0461  0.5646 -0.0747
16846TIP3    H172029   2.231   1.103  14.166  1.8416  0.1281 -1.1612
16846TIP3    H272030   2.190   1.247  14.142 -0.2071 -0.0171  1.0020
16847TIP3   OH272031   3.405   2.948   4.021 -0.9672 -0.4208  0.4450
16847TIP3    H172032   3.466   2.956   3.948 -0.6089 -0.1280  0.7692
16847TIP3    H272033   3.425   2.864   4.061 -2.5420 -1.5600 -1.0072
16848TIP3   OH272034   4.042   2.410   5.515  1.0795  0.1535  0.1471
16848TIP3    H172035   4.067   2.418   5.607 -0.3399 -1.0066  0.6791
16848TIP3    H272036   4.011   2.320   5.506 -0.4335  0.7307 -1.0100
16849TIP3   OH272037   0.341   2.145   4.554 -0.1736 -0.1467 -0.3455
16849TIP3    H172038   0.362   2.056   4.527 -0.0657 -0.3554  0.4221
16849TIP3    H272039   0.250   2.158   4.525 -0.4528 -0.7810  0.2318
16850TIP3   OH272040   3.756   1.577   1.716  0.0162  0.7276 -0.3683
16850TIP3    H172041   3.713   1.505   1.671 -1.4483  1.4331 -0.1722
16850TIP3    H272042   3.755   1.649   1.653 -0.9504  1.3541  0.3199
16851TIP3   OH272043   5.297   4.940  12.242 -0.0453  0.4507 -0.6216
16851TIP3    H172044   5.301   4.879  12.316  2.8521  0.5852 -0.5579
16851TIP3    H272045   5.214   4.919  12.198  0.8490 -3.7394 -0.7392
16852TIP3   OH272046   6.197   3.131   2.370  0.1192 -0.0381 -0.0327
16852TIP3    H172047   6.147   3.162   2.446 -1.9375 -2.5458 -0.2328
16852TIP3    H272048   6.190   3.203   2.307  0.1780  1.2759  1.4082
16853TIP3   OH272049   2.626   3.399   0.802 -0.0068  0.6752  0.3041
16853TIP3    H172050   2.600   3.457   0.874  3.1783  0.7114  1.5851
16853TIP3    H272051   2.623   3.455   0.724 -0.4819  1.5405  0.9245
16854TIP3   OH272052   0.403   2.056  10.719 -0.1432  0.2410 -0.0186
16854TIP3    H172053   0.351   2.136  10.726 -0.0655  0.3535 -0.7260
16854TIP3    H272054   0.362   2.007  10.648 -0.7680 -0.7841  0.9959
16855TIP3   OH272055   4.804   4.404   4.146 -0.3217 -0.3203 -0.2765
16855TIP3    H172056   4.753   4.371   4.072  0.1764 -3.9134  0.7525
16855TIP3    H272057   4.890   4.364   4.134  0.4177  0.8037  1.1040
16856TIP3   OH272058   4.842   4.913  11.530 -0.2271 -0.3790 -0.4485
16856TIP3    H172059   4.815   4.934  11.440  0.5970  2.3171 -0.1442
16856TIP3    H272060   4.912   4.848  11.519 -2.1029 -2.3592 -1.5382
16857TIP3   OH272061   3.715   4.844  16.180 -0.2884  0.1800 -0.1140
16857TIP3    H172062   3.671   4.925  16.154  0.5357  0.0488 -2.0580
16857TIP3    H272063   3.797   4.874  16.220 -0.9801  0.3332  1.2745
16858TIP3   OH272064   1.713   3.409  11.104 -0.0175 -0.2184  0.5227
16858TIP3    H172065   1.621   3.396  11.128 -0.2173  0.4351  0.1453
16858TIP3    H272066   1.762   3.388  11.184 -0.5768  0.6037  1.0998
16859TIP3   OH272067   1.902   0.278  10.383 -0.0279 -0.1596  0.4939
16859TIP3    H172068   1.880   0.339  10.312 -0.4872 -0.8455  0.0444
16859TIP3    H272069   1.994   0.296  10.401  0.3043 -0.4931 -0.7868
16860TIP3   OH272070   6.205   5.585   4.462  0.5098 -0.4560  0.1805
16860TIP3    H172071   6.229   5.502   4.422 -0.7315 -0.8015  0.0990
16860TIP3    H272072   6.117   5.603   4.428  0.7641  0.9038  0.1763
16861TIP3   OH272073   6.465   2.676   0.715 -0.6054 -0.2210  0.6194
16861TIP3    H172074   6.459   2.588   0.680 -1.5379  0.3286 -0.6565
16861TIP3    H272075   6.408   2.676   0.792  0.1741 -0.9765  1.2222
16862TIP3   OH272076   2.600   2.360   4.769  0.0855 -0.2300 -0.0082
16862TIP3    H172077   2.614   2.266   4.780  0.4050 -0.1835 -0.0162
16862TIP3    H272078   2.531   2.381   4.831 -3.2172 -1.2968 -2.9214
16863TIP3   OH272079   0.937   2.828   5.497 -0.5020  0.0108  0.0410
16863TIP3    H172080   0.858   2.794   5.539  0.1545 -1.1285  0.4137
16863TIP3    H272081   1.000   2.838   5.568 -0.6972  2.2444 -0.0198
16864TIP3   OH272082   1.535   2.166  13.981  0.4421 -0.1089  0.6021
16864TIP3    H172083   1.611   2.159  14.038  0.4329 -2.3607  0.4488
16864TIP3    H272084   1.568   2.149  13.893  0.1847  1.6989  0.1211
16865TIP3   OH272085   5.049   3.755   2.376 -0.2453  0.4440 -0.4035
16865TIP3    H172086   5.129   3.714   2.343 -1.4459 -2.1784 -0.2783
16865TIP3    H272087   5.068   3.774   2.468 -1.0831 -4.5405  1.0891
16866TIP3   OH272088   3.624   5.162  14.102  0.5299  0.1880  0.3128
16866TIP3    H172089   3.570   5.199  14.032 -2.0948 -1.5565  1.2569
16866TIP3    H272090   3.709   5.148  14.061 -0.5529  0.3188 -2.1843
16867TIP3   OH272091   5.332   4.925   3.806  0.3687  0.6151  0.5021
16867TIP3    H172092   5.331   4.944   3.900  1.0695 -2.8145  1.3599
16867TIP3    H272093   5.418   4.953   3.776  0.2479  1.4788  0.9472
16868TIP3   OH272094   5.072   3.295   3.082  0.7992  0.4492  0.2672
16868TIP3    H172095   5.123   3.219   3.106  1.2263  1.3237  2.2733
16868TIP3    H272096   5.000   3.260   3.029  2.4189 -0.9926 -1.0731
16869TIP3   OH272097   1.509   6.138   0.590  0.0307  0.3792 -0.8480
16869TIP3    H172098   1.511   6.043   0.595 -0.4922  0.3090 -1.7169
16869TIP3    H272099   1.597   6.163   0.560  0.5783  0.2745  0.6070
16870TIP3   OH272100   5.944   6.361  10.337 -0.3109 -0.1965  0.1072
16870TIP3    H172101   6.015   6.379  10.397 -0.7499 -0.4786  0.7172
16870TIP3    H272102   5.957   6.270  10.310 -0.0806 -0.0532 -0.2824
16871TIP3   OH272103   0.072   0.728  15.587  0.3031 -0.1758 -0.3251
16871TIP3    H172104   0.162   0.704  15.563 -0.7570 -2.3330 -2.6046
16871TIP3    H272105   0.068   0.709  15.681  2.1288 -0.3550 -0.2301
16872TIP3   OH272106   5.548   6.689  11.212  0.1386 -0.3625 -0.1036
16872TIP3    H172107   5.471   6.712  11.264  0.0501 -1.2919  0.1982
16872TIP3    H272108   5.518   6.691  11.121  0.6816  2.8302 -0.3312
16873TIP3   OH272109   2.417   3.569  13.157  0.2254 -0.0217 -0.2888
16873TIP3    H172110   2.435   3.609  13.242  0.7267 -0.9320  0.0426
16873TIP3    H272111   2.354   3.628  13.116  1.7193  1.7047 -0.2583
16874TIP3   OH272112   0.367   2.774   0.571  0.1935  0.0006  0.2901
16874TIP3    H172113   0.283   2.764   0.616  0.2113  2.3454  0.9324
16874TIP3    H272114   0.431   2.784   0.641  0.4899  1.7760 -0.1883
16875TIP3   OH272115   0.852   2.788  11.585  0.4612  0.4723 -0.2085
16875TIP3    H172116   0.919   2.817  11.524 -0.1609  1.5495 -0.4072
16875TIP3    H272117   0.771   2.827  11.552  0.0119  0.5699  0.9549
16876TIP3   OH272118   6.679   2.465   4.732 -0.0823  0.3637 -0.6001
16876TIP3    H172119   6.749   2.522   4.700  0.2813  0.1481 -0.1931
16876TIP3    H272120   6.700   2.379   4.697 -1.2807  0.6849 -2.2216
16877TIP3   OH272121   2.481   3.202   0.952  0.0676  0.0597 -0.4287
16877TIP3    H172122   2.576   3.186   0.946  0.1198  0.6160 -1.1700
16877TIP3    H272123   2.449   3.192   0.862 -0.5425  0.1192 -0.2231
16878TIP3   OH272124   0.368   0.894  15.123  0.7951 -0.2814  0.3268
16878TIP3    H172125   0.298   0.952  15.094  1.0669 -0.0788  0.0623
16878TIP3    H272126   0.341   0.807  15.094  0.4315 -0.2780  0.6408
16879TIP3   OH272127   0.667   1.939  15.029 -0.0352 -0.0701  0.2610
16879TIP3    H172128   0.708   1.861  15.067  1.7408 -0.0048 -1.3404
16879TIP3    H272129   0.741   1.997  15.008 -1.2472  1.6815  0.5761
16880TIP3   OH272130   2.703   2.389   2.081  0.2562 -0.6648 -0.8211
16880TIP3    H172131   2.791   2.392   2.044  0.5153 -1.4953 -0.3068
16880TIP3    H272132   2.679   2.481   2.094  1.3715 -0.4417 -0.2257
16881TIP3   OH272133   6.159   3.237   4.790 -0.4126 -0.0398  0.2396
16881TIP3    H172134   6.251   3.254   4.808 -0.0311 -1.0499 -0.6534
16881TIP3    H272135   6.125   3.201   4.872 -0.1808  0.9318  0.7739
16882TIP3   OH272136   1.719   1.841   1.827  0.4557 -0.6091  0.0215
16882TIP3    H172137   1.673   1.799   1.900  0.7179  1.0787  1.2053
16882TIP3    H272138   1.722   1.934   1.850 -0.4061  0.1801 -2.6548
16883TIP3   OH272139   6.003   0.294  10.568  0.0738 -0.2200  0.3798
16883TIP3    H172140   6.015   0.388  10.580  0.2573 -0.0466 -0.9921
16883TIP3    H272141   5.914   0.286  10.533  0.5087 -0.4341 -0.7021
16884TIP3   OH272142   4.180   6.333   2.452  0.2408  0.3290 -0.0713
16884TIP3    H172143   4.120   6.406   2.438  0.3445  0.7327  1.3715
16884TIP3    H272144   4.125   6.265   2.491  0.4440  0.1860 -0.0367
16885TIP3   OH272145   0.301   2.154   2.266 -0.1074  0.1597  0.7211
16885TIP3    H172146   0.312   2.150   2.171 -3.0247 -0.1619  0.3081
16885TIP3    H272147   0.365   2.092   2.301  0.4945 -0.2777 -1.0826
16886TIP3   OH272148   2.371   1.692   3.461  0.2040 -0.2464  0.6299
16886TIP3    H172149   2.407   1.604   3.459 -0.6194 -0.6781  2.6441
16886TIP3    H272150   2.282   1.683   3.429  0.4621  0.0792 -0.2225
16887TIP3   OH272151   2.838   4.056  14.371 -0.4568 -0.5004 -0.2015
16887TIP3    H172152   2.800   4.008  14.298  0.0770 -0.0413 -0.7892
16887TIP3    H272153   2.926   4.019  14.381  0.3154  0.9519 -1.2649
16888TIP3   OH272154   1.745   0.388  15.161  0.1285  0.1094  0.0936
16888TIP3    H172155   1.821   0.367  15.214 -0.0058 -0.9640 -0.1256
16888TIP3    H272156   1.753   0.333  15.083 -0.5169  0.4815 -0.2484
16889TIP3   OH272157   3.028   1.081  16.882  0.3422  0.5309  0.0693
16889TIP3    H172158   3.114   1.055  16.916 -0.0391 -0.9260 -0.0141
16889TIP3    H272159   3.033   1.176  16.876  2.5150  0.4078 -1.3937
16890TIP3   OH272160   6.313   5.114   6.346 -0.0691  0.0154  0.3368
16890TIP3    H172161   6.277   5.107   6.257  0.2960  0.6544  0.1340
16890TIP3    H272162   6.347   5.203   6.351  1.3741 -0.5337  0.5760
16891TIP3   OH272163   2.576   2.612   0.343 -0.4308 -0.5476 -0.7910
16891TIP3    H172164   2.611   2.535   0.299 -0.1884 -0.4931 -0.6954
16891TIP3    H272165   2.535   2.578   0.422  1.2892 -0.4095  0.2139
16892TIP3   OH272166   2.391   2.886   2.307 -0.0442 -0.1921  0.3963
16892TIP3    H172167   2.483   2.910   2.295 -0.3398  0.6786 -0.2658
16892TIP3    H272168   2.375   2.817   2.242  0.7630 -2.1683  2.1856
16893TIP3   OH272169   5.675   1.705   5.811  0.3234 -0.3515 -0.4309
16893TIP3    H172170   5.637   1.752   5.886  0.2677 -1.3706  0.1995
16893TIP3    H272171   5.699   1.619   5.847  1.2904 -0.4720 -1.3272
16894TIP3   OH272172   3.868   1.247   6.038 -0.2182 -0.0674  0.0911
16894TIP3    H172173   3.904   1.189   6.106 -0.1923 -0.6818 -0.4308
16894TIP3    H272174   3.906   1.333   6.057 -2.0230  0.3613  2.2654
16895TIP3   OH272175   1.023   4.722  11.354 -0.1487 -0.2255 -0.1076
16895TIP3    H172176   1.019   4.728  11.258  2.3057 -0.2264 -0.2583
16895TIP3    H272177   1.065   4.637  11.370 -2.0455 -1.0018  1.0620
16896TIP3   OH272178   1.217   4.451  16.869  0.3492  0.2205  0.0235
16896TIP3    H172179   1.238   4.544  16.881 -0.3084  0.3579  0.1106
16896TIP3    H272180   1.301   4.406  16.884  0.0761  0.5263  3.3491
16897TIP3   OH272181   0.916   0.043   1.806  0.3882  0.0141 -0.3636
16897TIP3    H172182   0.844  -0.005   1.848 -1.0983  3.5964  1.5856
16897TIP3    H272183   0.993  -0.013   1.820 -1.2767 -2.0894  1.1281
16898TIP3   OH272184   3.917   3.641  12.298  0.1786  0.2278 -0.1778
16898TIP3    H172185   3.876   3.559  12.270 -1.9215  0.2394  2.3998
16898TIP3    H272186   3.909   3.699  12.223 -1.5927 -0.8557 -0.8945
16899TIP3   OH272187   5.944   6.009   5.689  0.3734  0.4949  0.2471
16899TIP3    H172188   6.015   6.070   5.707 -2.5728  4.3551 -0.0117
16899TIP3    H272189   5.951   5.990   5.595  1.9510 -0.5757  0.5458
16900TIP3   OH272190   5.181   1.649   0.057  0.5103 -0.2809 -0.2226
16900TIP3    H172191   5.120   1.618  -0.009 -0.4371 -0.6077  0.7857
16900TIP3    H272192   5.239   1.708   0.010 -2.1443  2.1140 -0.7499
16901TIP3   OH272193   6.650   6.277  11.144 -0.2939  0.1377 -0.2352
16901TIP3    H172194   6.724   6.331  11.119  1.2487 -1.6207  0.3364
16901TIP3    H272195   6.624   6.233  11.063 -1.4463  1.5443 -0.6659
16902TIP3   OH272196   4.624   2.518  11.874  0.3803  0.4026 -0.4377
16902TIP3    H172197   4.666   2.602  11.856  1.3000 -0.1392 -0.9131
16902TIP3    H272198   4.630   2.470  11.791 -0.1898 -0.1027 -0.1930
16903TIP3   OH272199   0.065   1.974   3.684 -0.6204 -0.1579  0.0369
16903TIP3    H172200   0.029   2.060   3.706  1.3908 -0.2310  4.8751
16903TIP3    H272201  -0.012   1.919   3.672 -1.9839  1.6890 -0.2450
16904TIP3   OH272202   2.100   5.759   4.735  0.2735 -0.0852  0.4617
16904TIP3    H172203   2.151   5.786   4.658  0.1301 -0.3762  0.2609
16904TIP3    H272204   2.040   5.832   4.751  0.1347 -0.1258  0.1424
16905TIP3   OH272205   1.209   2.018  14.133  0.0082  0.0845 -0.1841
16905TIP3    H172206   1.277   2.079  14.162 -0.6648  0.3892  0.7956
16905TIP3    H272207   1.257   1.939  14.109  0.7677  0.5188 -0.1457
16906TIP3   OH272208   5.958   2.307  13.911 -0.2897  0.0741 -0.1128
16906TIP3    H172209   5.891   2.250  13.948 -0.2383  0.8873  1.3084
16906TIP3    H272210   5.998   2.255  13.842 -0.3017 -1.5980  1.0683
16907TIP3   OH272211   3.547   2.252   0.566  0.1005 -0.6718 -0.8897
16907TIP3    H172212   3.576   2.238   0.476 -0.4398 -0.5949 -1.0737
16907TIP3    H272213   3.452   2.260   0.561 -0.1198 -2.3139 -0.1128
16908TIP3   OH272214   6.381   0.854   4.208  0.2092  0.0992  0.0970
16908TIP3    H172215   6.324   0.840   4.284  0.5802  0.1975  0.3944
16908TIP3    H272216   6.339   0.925   4.160  0.2121  0.3435  0.4498
16909TIP3   OH272217   2.183   2.484   4.768 -0.0223  0.6518  0.5045
16909TIP3    H172218   2.224   2.563   4.734  0.5926  0.1340  0.0087
16909TIP3    H272219   2.235   2.461   4.845 -0.4010  0.9025  0.8413
16910TIP3   OH272220   0.435   0.790  14.489  0.1318  0.2269 -0.6685
16910TIP3    H172221   0.379   0.860  14.455  0.4708  0.0035 -1.7545
16910TIP3    H272222   0.487   0.831  14.557 -1.9436  0.2313  1.0077
16911TIP3   OH272223   3.009   1.663   5.845  0.2864 -0.3242  0.7492
16911TIP3    H172224   3.100   1.634   5.858  0.2749 -0.7506 -0.1223
16911TIP3    H272225   3.012   1.758   5.863  0.7136 -0.4872  1.6161
16912TIP3   OH272226   1.145   2.392   3.290 -0.5038 -0.0710 -0.1693
16912TIP3    H172227   1.149   2.297   3.299  0.6000 -0.1177 -0.9185
16912TIP3    H272228   1.059   2.416   3.323 -1.0055 -1.3854 -0.4639
16913TIP3   OH272229   1.872   1.469  16.346 -0.1603 -0.0015 -0.6408
16913TIP3    H172230   1.917   1.531  16.403 -1.0148 -1.4318  1.7478
16913TIP3    H272231   1.786   1.509  16.329  0.6135  1.1044 -2.2801
16914TIP3   OH272232   4.802   3.269   1.550 -0.1935  0.3014 -0.3390
16914TIP3    H172233   4.766   3.343   1.599 -2.4998  0.9477 -2.7810
16914TIP3    H272234   4.737   3.200   1.560  1.3682 -1.0594  0.9299
16915TIP3   OH272235   1.629   0.411   1.379 -0.2038 -0.3795  0.2284
16915TIP3    H172236   1.649   0.439   1.468  0.0369 -2.1811  0.7858
16915TIP3    H272237   1.714   0.400   1.337 -0.2918 -0.2755  0.0205
16916TIP3   OH272238   4.677   0.099   6.217 -0.0971  0.1165  0.1158
16916TIP3    H172239   4.638   0.052   6.291 -2.2627 -1.3290 -1.8017
16916TIP3    H272240   4.698   0.185   6.252  1.7308 -1.4190  3.1429
16917TIP3   OH272241   0.583   4.250   3.298  0.8772  0.1902  0.2028
16917TIP3    H172242   0.584   4.312   3.370 -2.8327 -0.8521  1.3891
16917TIP3    H272243   0.657   4.192   3.315  0.7404  0.6174  2.6045
16918TIP3   OH272244   5.029   1.317  11.519  0.3623 -0.2369  0.3619
16918TIP3    H172245   5.048   1.337  11.610  0.5233 -1.7530  0.6848
16918TIP3    H272246   5.043   1.400  11.473  1.6293  0.2185  1.5107
16919TIP3   OH272247   5.313   6.431   2.006 -0.0724  0.1535  0.2589
16919TIP3    H172248   5.254   6.475   2.068  2.4903  0.1424  2.9349
16919TIP3    H272249   5.360   6.502   1.963  0.8700  0.1656  1.2561
16920TIP3   OH272250   3.805   0.872   6.554  0.1148 -0.2976 -0.6265
16920TIP3    H172251   3.848   0.951   6.586  0.0090 -0.8733  1.0672
16920TIP3    H272252   3.874   0.805   6.556 -0.1093 -0.5344 -0.7716
16921TIP3   OH272253   1.646   4.493  12.883 -0.1479 -0.0917  0.4519
16921TIP3    H172254   1.717   4.502  12.947  0.8276 -0.9534 -0.4603
16921TIP3    H272255   1.668   4.556  12.814 -0.3886 -0.2007  0.2717
16922TIP3   OH272256   4.040   4.289   0.147 -0.3220  0.2282  0.1514
16922TIP3    H172257   3.982   4.241   0.087 -1.1015 -0.9457  1.7563
16922TIP3    H272258   4.104   4.224   0.175 -0.3305  0.5858  1.0278
16923TIP3   OH272259   6.532   5.053   4.607  0.0424 -0.7772 -0.4284
16923TIP3    H172260   6.479   4.975   4.625 -0.7649 -0.3567 -0.9225
16923TIP3    H272261   6.470   5.117   4.572  0.4065  0.5907  1.2776
16924TIP3   OH272262   0.412   5.968  10.982 -0.5628 -0.2645  0.4862
16924TIP3    H172263   0.375   6.055  10.965 -0.9486 -0.7510 -1.3447
16924TIP3    H272264   0.506   5.980  10.974 -0.6288 -0.0603  0.0093
16925TIP3   OH272265   5.982   0.867  15.490  0.0593 -0.6126 -0.2462
16925TIP3    H172266   6.061   0.836  15.446 -0.0168  0.2859 -1.0544
16925TIP3    H272267   5.910   0.830  15.440 -0.0589  1.9288 -2.1469
16926TIP3   OH272268   1.641   1.024  12.545  0.9364 -0.9337 -0.3283
16926TIP3    H172269   1.646   1.116  12.569  0.0872 -0.7621 -0.7482
16926TIP3    H272270   1.722   1.007  12.497  1.8315 -0.8362  1.0975
16927TIP3   OH272271   6.733   2.909   5.234 -0.3506 -0.7732 -0.0160
16927TIP3    H172272   6.713   2.846   5.164  1.0141 -1.9954  0.6422
16927TIP3    H272273   6.826   2.897   5.251 -1.0704 -2.4087  3.7333
16928TIP3   OH272274   6.868   2.526   6.092 -0.0211 -0.3703 -0.2603
16928TIP3    H172275   6.922   2.458   6.051  1.7159  2.0215 -2.2720
16928TIP3    H272276   6.916   2.548   6.172  2.1173  1.5808 -1.9203
16929TIP3   OH272277   1.400   4.172  11.662  0.5221 -0.0585  0.0521
16929TIP3    H172278   1.395   4.088  11.707 -2.8502 -0.0876 -0.1563
16929TIP3    H272279   1.370   4.155  11.573 -0.3387  1.3424  0.0309
16930TIP3   OH272280   4.118   5.684  14.295 -0.4186  0.2841 -0.1708
16930TIP3    H172281   4.044   5.704  14.353  0.5595  2.3437  0.4866
16930TIP3    H272282   4.167   5.766  14.291  2.0462 -1.1143 -0.2762
16931TIP3   OH272283   4.872   6.795  11.021  0.6735 -0.2438 -0.2753
16931TIP3    H172284   4.878   6.737  10.945  2.1368  0.7010 -0.9361
16931TIP3    H272285   4.782   6.828  11.019  0.5263 -0.6628 -1.2788
16932TIP3   OH272286   3.066   5.948  14.275  0.0138 -0.0926  0.8950
16932TIP3    H172287   3.017   5.927  14.355 -0.0732 -0.3265  0.7790
16932TIP3    H272288   3.000   5.983  14.215  0.0244 -0.2252  0.8069
16933TIP3   OH272289   2.922   3.780  15.863  0.4398 -0.1153  0.1416
16933TIP3    H172290   3.006   3.772  15.908  0.7284  1.5216 -0.0349
16933TIP3    H272291   2.917   3.873  15.839 -1.2426 -0.2701 -0.2055
16934TIP3   OH272292   3.418   3.550   1.686  0.0314  0.2006 -0.1139
16934TIP3    H172293   3.483   3.597   1.633  0.0753  1.0877  0.7005
16934TIP3    H272294   3.463   3.532   1.768 -0.3143 -0.4201 -0.0534
16935TIP3   OH272295   4.485   5.343   4.938 -0.1279 -0.2592 -0.5145
16935TIP3    H172296   4.462   5.376   4.852  1.7491  0.3685 -0.8197
16935TIP3    H272297   4.578   5.361   4.947 -0.0314 -1.3264  1.2016
16936TIP3   OH272298   4.290   0.554   3.173  0.3975 -0.0927 -0.1442
16936TIP3    H172299   4.249   0.637   3.148  0.3594 -0.5952 -1.8817
16936TIP3    H272300   4.225   0.509   3.227  0.7771  1.3669  1.6637
16937TIP3   OH272301   0.418   2.921   4.035 -0.2374  0.7318 -0.0596
16937TIP3    H172302   0.429   2.975   3.957 -1.0128  1.9446  0.6438
16937TIP3    H272303   0.459   2.837   4.011 -0.1583  1.1741 -1.6343
16938TIP3   OH272304   1.961   6.302  12.800  0.1116 -0.1702  0.1112
16938TIP3    H172305   1.889   6.352  12.762 -0.6991 -1.7766 -0.5986
16938TIP3    H272306   1.940   6.297  12.894 -1.0619 -1.0887 -0.1674
16939TIP3   OH272307   6.251   2.221  16.335 -0.3370  0.5485  0.0540
16939TIP3    H172308   6.315   2.154  16.313  0.4281  1.4544 -0.5354
16939TIP3    H272309   6.274   2.296  16.280 -0.7432  1.5445  1.1946
16940TIP3   OH272310   1.894   0.815   5.578 -0.2983 -0.0490  0.0097
16940TIP3    H172311   1.820   0.868   5.547  0.0741  1.1445  1.0575
16940TIP3    H272312   1.854   0.753   5.639 -0.4235  0.7987  0.8152
16941TIP3   OH272313   1.559   5.571   5.639  0.5626 -0.4005 -0.0800
16941TIP3    H172314   1.582   5.658   5.607  1.7336 -0.6698 -0.0033
16941TIP3    H272315   1.634   5.543   5.692 -0.1414 -1.1266  0.5780
16942TIP3   OH272316   5.996   4.005   0.864 -0.3023 -0.0354 -0.0461
16942TIP3    H172317   6.028   3.927   0.820 -1.0664  0.7057 -2.0495
16942TIP3    H272318   6.075   4.052   0.891  0.1651 -1.7656  1.8414
16943TIP3   OH272319   6.066   6.748  14.622  0.0905 -0.0008  0.1837
16943TIP3    H172320   6.136   6.721  14.682 -0.5242 -0.4360  0.7265
16943TIP3    H272321   6.094   6.715  14.537  0.3283 -0.5893  0.4801
16944TIP3   OH272322   1.889   6.725   4.101  0.3798 -0.4841  0.5092
16944TIP3    H172323   1.853   6.656   4.156  2.1709 -0.6029  1.6296
16944TIP3    H272324   1.892   6.802   4.158  0.0975  0.0426 -0.1678
16945TIP3   OH272325   0.933   2.784   5.076  0.7583 -0.1406 -0.4495
16945TIP3    H172326   0.911   2.724   5.148 -0.0470 -0.2083 -0.7396
16945TIP3    H272327   0.922   2.871   5.114  1.0249 -0.1769 -0.2885
16946TIP3   OH272328   6.528   0.633  11.921  0.2452 -0.0640 -0.7063
16946TIP3    H172329   6.470   0.707  11.906  0.0283  0.8488  3.3146
16946TIP3    H272330   6.612   0.661  11.885 -0.3438  1.2690 -1.1087
16947TIP3   OH272331   2.541   4.578   2.546  0.2647 -0.7092  0.1089
16947TIP3    H172332   2.485   4.512   2.587 -0.7527 -0.9542 -1.6159
16947TIP3    H272333   2.496   4.661   2.562  0.3843 -0.6814  0.3148
16948TIP3   OH272334   4.699   2.964  11.263  0.2787 -0.1270 -0.0595
16948TIP3    H172335   4.737   2.880  11.235 -0.4432 -0.4943  0.0320
16948TIP3    H272336   4.605   2.954  11.245 -0.0572  0.0138  1.5285
16949TIP3   OH272337   4.261   2.324  13.912  0.3730 -0.3236  0.3018
16949TIP3    H172338   4.237   2.390  13.976  1.0008 -0.3582  0.5850
16949TIP3    H272339   4.345   2.289  13.943  2.4017  1.8862 -2.1662
16950TIP3   OH272340   5.910   0.380  15.146  0.1182  0.2987  0.2479
16950TIP3    H172341   5.862   0.377  15.064 -0.0314  3.7444  0.0628
16950TIP3    H272342   5.853   0.336  15.209 -0.8385 -0.3360 -1.0234
16951TIP3   OH272343   3.901   6.786   6.111 -0.0518  0.0844  0.5257
16951TIP3    H172344   3.814   6.748   6.101  0.4470 -0.5843 -1.8325
16951TIP3    H272345   3.886   6.880   6.115 -0.9443 -0.0750  1.3102
16952TIP3   OH272346   0.041   4.973  11.902  0.4116  0.2560 -0.0416
16952TIP3    H172347   0.134   4.952  11.909  0.5543  0.9987  0.3638
16952TIP3    H272348   0.027   4.988  11.808  1.2115  2.3532  0.1342
16953TIP3   OH272349   2.974   6.150  16.737 -0.4498 -0.0950 -0.3631
16953TIP3    H172350   2.901   6.205  16.708 -0.4871 -0.3476 -0.7665
16953TIP3    H272351   2.965   6.070  16.685 -1.1313 -1.0085  1.1025
16954TIP3   OH272352   1.022   5.789  11.917 -0.7989 -0.5447  0.4418
16954TIP3    H172353   1.027   5.720  11.983 -2.9223  0.7828  2.0854
16954TIP3    H272354   0.965   5.856  11.955 -0.8314  1.0121 -2.1004
16955TIP3   OH272355   6.080   0.596   3.367 -0.2184  0.1261 -0.2787
16955TIP3    H172356   6.107   0.659   3.300 -0.9598  1.0609  0.2686
16955TIP3    H272357   6.163   0.562   3.402  0.1852 -1.1066 -2.2809
16956TIP3   OH272358   5.764   5.187  12.544  0.5485 -0.2972 -0.6037
16956TIP3    H172359   5.779   5.158  12.634 -1.3649 -5.0501 -1.5431
16956TIP3    H272360   5.841   5.158  12.496  0.1180 -0.7809 -1.0158
16957TIP3   OH272361   1.192   2.892  15.423  0.1064 -0.0426 -0.0548
16957TIP3    H172362   1.200   2.798  15.439 -0.0961 -0.1020 -0.3033
16957TIP3    H272363   1.098   2.910  15.432  0.0115 -0.0393 -0.9704
16958TIP3   OH272364   2.029   0.272   2.258  0.6640 -0.4867 -0.3133
16958TIP3    H172365   2.044   0.183   2.227  1.2746 -1.0377  1.4382
16958TIP3    H272366   1.969   0.262   2.332  1.4765  0.4381  0.5022
16959TIP3   OH272367   6.394   2.583  13.172  0.1447  0.1616 -0.1501
16959TIP3    H172368   6.382   2.497  13.212  0.7795 -0.0067 -0.3148
16959TIP3    H272369   6.449   2.567  13.095  2.0252  0.9765  0.9482
16960TIP3   OH272370   2.755   5.011  12.254  0.1351  0.7823 -0.3442
16960TIP3    H172371   2.824   5.053  12.306  0.4544 -0.8497  0.6026
16960TIP3    H272372   2.770   4.917  12.264 -0.2449  0.3971 -2.8335
16961TIP3   OH272373   0.765   2.941   3.377  0.0932  0.0963  0.4996
16961TIP3    H172374   0.741   2.873   3.440  2.1042 -0.6167  0.5728
16961TIP3    H272375   0.705   2.929   3.304 -2.1544  0.7935  2.1161
16962TIP3   OH272376   2.038   2.136   1.384  0.0417  0.0858  0.5067
16962TIP3    H172377   1.971   2.076   1.351 -2.0192  2.0205  0.9570
16962TIP3    H272378   1.997   2.222   1.381  2.0945  1.2067  2.0035
16963TIP3   OH272379   2.445   0.502   4.285  0.0350  0.8062 -0.2779
16963TIP3    H172380   2.524   0.521   4.336 -1.3625  1.8319  1.6563
16963TIP3    H272381   2.473   0.510   4.194  2.8647 -1.9323  0.1747
16964TIP3   OH272382   4.034   2.312  16.129  0.6484 -0.1799 -0.0448
16964TIP3    H172383   4.090   2.235  16.127 -0.2528 -0.8398 -0.1012
16964TIP3    H272384   4.049   2.354  16.044  1.5179 -0.0011  0.1826
16965TIP3   OH272385   6.717   6.509   6.062  0.2429 -0.6266  0.1215
16965TIP3    H172386   6.660   6.562   6.117  0.4331  0.4744 -0.7022
16965TIP3    H272387   6.804   6.519   6.101  0.0298 -1.6893  0.9261
16966TIP3   OH272388   2.431   3.022  13.876  0.7550 -0.0816 -0.0206
16966TIP3    H172389   2.404   2.943  13.923 -0.1503  0.1761 -0.0960
16966TIP3    H272390   2.398   3.010  13.787  1.0823  0.1449 -0.1769
16967TIP3   OH272391   1.184   0.879   4.872 -0.2883  0.1651  0.9010
16967TIP3    H172392   1.129   0.938   4.924 -2.4524 -0.7361 -0.2226
16967TIP3    H272393   1.205   0.930   4.794  0.0978  0.3549  1.1274
16968TIP3   OH272394   0.132   0.585  10.711 -0.6674  0.1611  0.2797
16968TIP3    H172395   0.105   0.661  10.659  0.9305  0.2341 -0.5236
16968TIP3    H272396   0.136   0.617  10.801 -4.2159 -0.1557  0.6717
16969TIP3   OH272397   0.710   5.659  11.969  0.0006  0.2289  0.0706
16969TIP3    H172398   0.725   5.583  12.025 -1.9852  0.0623  0.4561
16969TIP3    H272399   0.788   5.665  11.915  0.3029 -1.9398  0.1856
16970TIP3   OH272400   2.606   3.587   4.076 -0.2006  0.0431  0.2325
16970TIP3    H172401   2.532   3.621   4.126  0.5771 -1.4426  2.5447
16970TIP3    H272402   2.646   3.522   4.133  2.6948  0.5225 -1.0611
16971TIP3   OH272403   3.126   3.446  11.163  0.4590  0.3734 -0.0329
16971TIP3    H172404   3.197   3.434  11.100 -0.0270 -2.1074 -0.1902
16971TIP3    H272405   3.108   3.358  11.197 -0.3481  1.3955  2.4436
16972TIP3   OH272406   3.489   1.424  15.919  0.2886 -0.2339  0.1593
16972TIP3    H172407   3.426   1.352  15.923 -0.7570  0.6106 -0.6483
16972TIP3    H272408   3.440   1.497  15.882  1.1963  1.0468  1.3966
16973TIP3   OH272409   0.985   2.135   1.709 -0.1763  0.3970  0.2557
16973TIP3    H172410   0.925   2.205   1.681 -2.9456 -2.3536 -1.2628
16973TIP3    H272411   1.030   2.108   1.629 -0.2516 -0.5209  0.5109
16974TIP3   OH272412   4.035   2.075   1.760  0.3660 -0.4812 -0.3733
16974TIP3    H172413   4.044   2.039   1.672  1.3491  1.0413 -0.9204
16974TIP3    H272414   4.116   2.123   1.775 -0.7579  1.2629  0.4262
16975TIP3   OH272415   5.746   1.069  15.335  0.3248  0.0608  0.5204
16975TIP3    H172416   5.818   1.052  15.275 -0.9168  0.7162 -1.2337
16975TIP3    H272417   5.741   1.164  15.341 -0.5772  0.0283  0.3880
16976TIP3   OH272418   0.382   2.845   2.213 -0.6055 -0.0449  0.5397
16976TIP3    H172419   0.363   2.756   2.182  0.9342 -0.3306  0.3047
16976TIP3    H272420   0.407   2.893   2.135 -1.1111  0.5050  0.7146
16977TIP3   OH272421   3.947   0.742  13.664  1.3599 -0.0609 -0.5648
16977TIP3    H172422   3.980   0.761  13.576  1.1328 -1.7599 -1.0471
16977TIP3    H272423   3.948   0.827  13.709  2.3547  0.6657 -1.9004
16978TIP3   OH272424   1.398   5.326  14.307  0.2246  0.0448 -0.0375
16978TIP3    H172425   1.324   5.353  14.361 -0.0274  2.1625 -1.3208
16978TIP3    H272426   1.357   5.283  14.231  0.2385  1.4016 -0.8498
16979TIP3   OH272427   0.691   0.137   1.372  0.1062  0.0855 -0.2290
16979TIP3    H172428   0.755   0.142   1.301  0.4680  0.8153  0.1347
16979TIP3    H272429   0.653   0.050   1.364  0.4827 -0.0136 -1.0236
16980TIP3   OH272430   5.627   5.709  11.133 -0.7340  0.7510 -0.0374
16980TIP3    H172431   5.585   5.623  11.127 -2.4719  1.4621  1.1512
16980TIP3    H272432   5.565   5.763  11.182  1.2530  2.1151  1.1298
16981TIP3   OH272433   4.810   2.662   3.154 -0.1106 -0.0455  0.0965
16981TIP3    H172434   4.904   2.674   3.171 -0.2987  3.0233 -0.3339
16981TIP3    H272435   4.771   2.653   3.241  0.5076 -0.7507  0.3100
16982TIP3   OH272436   1.722   6.255  14.196  0.3982  0.2225 -0.1441
16982TIP3    H172437   1.778   6.310  14.250  0.9921  1.2347 -1.7151
16982TIP3    H272438   1.764   6.169  14.196  1.8488  0.9037 -1.0965
16983TIP3   OH272439   1.825   2.853   1.644  0.4084 -0.7868 -0.4560
16983TIP3    H172440   1.757   2.880   1.706  0.9974  0.5277 -0.3552
16983TIP3    H272441   1.907   2.881   1.684  0.8125 -0.0372 -1.7585
16984TIP3   OH272442   0.584   5.114  15.497  0.1154  0.5804 -0.2793
16984TIP3    H172443   0.601   5.078  15.410  0.7308 -0.3535  0.2129
16984TIP3    H272444   0.659   5.171  15.514  0.7017 -0.3046  0.1847
16985TIP3   OH272445   1.983   3.089  13.523  0.0438 -0.2452 -0.4318
16985TIP3    H172446   1.921   3.039  13.575 -0.0867 -2.0974 -2.2056
16985TIP3    H272447   2.048   3.121  13.585 -0.5191 -1.6815  0.9513
16986TIP3   OH272448   4.085   0.732  14.307 -0.3851  0.2196  0.5175
16986TIP3    H172449   4.101   0.654  14.361  1.5309 -0.0624 -0.3737
16986TIP3    H272450   4.039   0.699  14.230  0.0967  0.0250  0.3112
16987TIP3   OH272451   1.644   6.529   3.270 -0.1728  0.5063 -0.1168
16987TIP3    H172452   1.622   6.530   3.363 -1.8236  1.3400 -0.4650
16987TIP3    H272453   1.636   6.621   3.243  1.5466  0.4823 -0.8290
16988TIP3   OH272454   5.166   4.960   0.661  0.3458  0.2724  0.1338
16988TIP3    H172455   5.246   4.909   0.660  0.1913  0.0140  0.7442
16988TIP3    H272456   5.131   4.950   0.749 -0.2926  0.4865 -0.0812
16989TIP3   OH272457   1.129   5.457   1.437  0.3583 -0.6909 -0.1062
16989TIP3    H172458   1.192   5.404   1.389  1.3892  1.2821 -1.0420
16989TIP3    H272459   1.060   5.476   1.374 -0.2167 -1.2463  0.3472
16990TIP3   OH272460   6.024   4.903   1.917 -0.3740  0.5108  0.0258
16990TIP3    H172461   6.043   4.868   2.004  1.1603 -1.8885 -1.1707
16990TIP3    H272462   6.060   4.992   1.918  0.5600  0.1469  1.5209
16991TIP3   OH272463   4.828   6.317  12.517 -0.0059  0.1946  0.1635
16991TIP3    H172464   4.850   6.407  12.494  3.5053 -0.4218  0.5841
16991TIP3    H272465   4.785   6.282  12.439  1.5808  1.3171 -1.2863
16992TIP3   OH272466   6.410   4.644  16.099  0.3747 -0.0607  0.1351
16992TIP3    H172467   6.362   4.671  16.020 -0.4562  1.0290  0.9831
16992TIP3    H272468   6.383   4.553  16.114 -1.3786  0.4832  0.5241
16993TIP3   OH272469   1.395   5.138  15.695 -0.1822 -0.2812 -0.0745
16993TIP3    H172470   1.405   5.075  15.624  1.4936  0.9790 -1.0211
16993TIP3    H272471   1.343   5.209  15.658 -0.2757 -0.1355  0.3277
16994TIP3   OH272472   2.728   0.562   4.356 -0.2705 -0.0692  0.3140
16994TIP3    H172473   2.820   0.536   4.354  0.3155  1.6235  1.9450
16994TIP3    H272474   2.717   0.618   4.279  0.2009  0.1476  0.4058
16995TIP3   OH272475   6.040   5.142   2.213  0.2567 -0.1220 -0.3757
16995TIP3    H172476   6.013   5.171   2.300  1.4350  0.9398 -0.3337
16995TIP3    H272477   6.132   5.120   2.223  0.3765 -0.0888 -1.3336
16996TIP3   OH272478   1.920   1.372  14.807  0.4893 -0.0670  0.2710
16996TIP3    H172479   1.985   1.427  14.764  0.2338 -0.2858 -0.4161
16996TIP3    H272480   1.872   1.331  14.735 -0.3395  0.0111  0.7640
16997TIP3   OH272481   4.840   2.793  14.377 -0.0120 -0.2783  0.5311
16997TIP3    H172482   4.817   2.853  14.449 -0.1802 -1.3770  1.4201
16997TIP3    H272483   4.887   2.848  14.315 -1.2614  1.0661  0.7083
16998TIP3   OH272484   4.656   3.272  12.397  0.2436  0.1064  0.3727
16998TIP3    H172485   4.703   3.253  12.316 -0.2233 -0.1478  0.1587
16998TIP3    H272486   4.688   3.359  12.423  3.3956 -1.3744  2.0755
16999TIP3   OH272487   6.313   6.372  16.529 -0.5168  0.1864 -0.0608
16999TIP3    H172488   6.329   6.341  16.618  1.0976  0.1855 -0.3146
16999TIP3    H272489   6.357   6.308  16.473 -0.5257  0.8146 -0.8008
17000TIP3   OH272490   1.398   0.203  12.000 -0.0091 -0.2741  0.1196
17000TIP3    H172491   1.421   0.128  11.945  0.3506  0.1328 -0.2972
17000TIP3    H272492   1.455   0.274  11.969 -1.8673  0.8095 -1.0538
17001TIP3   OH272493   1.554   0.223   0.210  0.4014  0.1417 -0.0426
17001TIP3    H172494   1.490   0.293   0.210 -0.2207 -0.4166 -0.4045
17001TIP3    H272495   1.503   0.143   0.197  1.1860 -0.2952 -0.5773
17002TIP3   OH272496   0.957   6.448  15.651  0.3932 -0.6771  0.3057
17002TIP3    H172497   0.918   6.377  15.702 -0.2666 -0.7415 -0.2627
17002TIP3    H272498   0.918   6.439  15.564  0.2675  0.3913  0.2294
17003TIP3   OH272499   2.602   6.170  15.633 -0.0918  0.7720 -0.0817
17003TIP3    H172500   2.612   6.210  15.719 -2.5434 -0.9978  1.1579
17003TIP3    H272501   2.558   6.237  15.580 -0.4599  1.1564  0.6950
17004TIP3   OH272502   1.820   4.414  11.152 -0.9110  0.0728  0.4431
17004TIP3    H172503   1.742   4.397  11.099  0.4153 -0.3500 -1.4799
17004TIP3    H272504   1.890   4.426  11.088  0.5560  0.7720  2.1010
17005TIP3   OH272505   3.209   5.159   5.485 -0.1815 -0.8379 -0.6023
17005TIP3    H172506   3.265   5.220   5.532 -3.3991  1.1360  0.9963
17005TIP3    H272507   3.195   5.087   5.547 -2.7221  0.7590  0.8470
17006TIP3   OH272508   6.760   1.078  13.196 -0.3302  0.1744 -0.7348
17006TIP3    H172509   6.738   1.165  13.162 -3.0164 -0.1667 -0.1109
17006TIP3    H272510   6.717   1.017  13.137  1.5923 -0.8072 -1.2085
17007TIP3   OH272511   4.606   4.255   4.277 -0.2242 -0.3505  0.4282
17007TIP3    H172512   4.541   4.234   4.210  0.8525  0.1785 -0.8246
17007TIP3    H272513   4.671   4.309   4.232  1.0405 -0.7724  1.6587
17008TIP3   OH272514   0.965   3.602  13.370  0.2038  0.1637  0.0822
17008TIP3    H172515   1.054   3.638  13.373  0.4606 -0.4083  3.6131
17008TIP3    H272516   0.913   3.671  13.328  2.1149  0.8847 -1.2722
17009TIP3   OH272517   4.780   6.226  11.830 -0.1311  0.0114 -0.1183
17009TIP3    H172518   4.700   6.214  11.880  0.8540  2.1298  2.2068
17009TIP3    H272519   4.850   6.208  11.892  1.1916  0.6224 -1.3677
17010TIP3   OH272520   4.436   1.729  15.125  0.0000  0.1285 -0.8454
17010TIP3    H172521   4.514   1.682  15.096 -0.5167 -0.2514 -1.6654
17010TIP3    H272522   4.429   1.707  15.218  0.8737  0.1809 -0.7600
17011TIP3   OH272523   5.654   4.011  11.468  0.1207  0.1219 -0.6652
17011TIP3    H172524   5.643   4.038  11.559  2.0997 -1.6316  0.1767
17011TIP3    H272525   5.748   4.001  11.457 -0.1920 -1.5434 -2.3303
17012TIP3   OH272526   2.284   3.302   4.669  0.1201 -0.0698 -0.6753
17012TIP3    H172527   2.223   3.317   4.597  1.0005  1.2148 -1.2031
17012TIP3    H272528   2.310   3.390   4.697 -0.8056 -0.5171  1.7847
17013TIP3   OH272529   5.013   5.891   2.989 -0.7679  0.1656 -0.3997
17013TIP3    H172530   5.013   5.866   3.081  0.0415 -0.1148 -0.4685
17013TIP3    H272531   5.035   5.984   2.989 -0.9662  0.2134 -0.3027
17014TIP3   OH272532   0.263   5.102   5.317 -0.0123 -0.2112 -0.2702
17014TIP3    H172533   0.185   5.140   5.276  0.9549  0.7637 -1.2876
17014TIP3    H272534   0.234   5.016   5.348 -2.0065  0.9121  1.2241
17015TIP3   OH272535   3.049   3.260   1.001 -0.9537 -0.6231 -0.2655
17015TIP3    H172536   3.064   3.340   1.052 -2.6015  0.1956 -0.9944
17015TIP3    H272537   3.134   3.216   1.001 -0.2794  0.5695  1.0907
17016TIP3   OH272538   4.002   5.458   0.142 -0.1410 -0.2643  0.5472
17016TIP3    H172539   3.923   5.475   0.091 -0.3445 -0.3340  0.8326
17016TIP3    H272540   4.012   5.362   0.140  0.7874 -0.1612 -0.7414
17017TIP3   OH272541   5.614   6.089   6.231 -0.0048 -0.2242 -0.0891
17017TIP3    H172542   5.522   6.108   6.251 -0.0251  0.6066 -0.9379
17017TIP3    H272543   5.663   6.156   6.278  0.0667  0.3290 -0.9272
17018TIP3   OH272544   6.451   0.351  11.878  0.0495 -0.4729  0.8233
17018TIP3    H172545   6.505   0.430  11.887  1.1953 -1.1609  0.0825
17018TIP3    H272546   6.415   0.357  11.790 -0.6004 -0.3395  1.0897
17019TIP3   OH272547   2.865   2.185   0.541 -0.5994  0.0049 -0.4029
17019TIP3    H172548   2.777   2.206   0.512 -1.1150 -1.7496 -0.2049
17019TIP3    H272549   2.913   2.169   0.459  0.0562  2.6369 -0.6188
17020TIP3   OH272550   4.149   5.394   2.267  0.6078  0.0709 -0.4067
17020TIP3    H172551   4.184   5.426   2.350  2.5175 -1.7351 -0.4427
17020TIP3    H272552   4.107   5.311   2.288 -0.1253  0.2628 -1.0503
17021TIP3   OH272553   2.766   6.650  14.964 -0.9356  0.3781  0.2408
17021TIP3    H172554   2.787   6.564  14.929  1.0237  0.5224  0.9539
17021TIP3    H272555   2.801   6.650  15.053 -1.1378  1.8134  0.3531
17022TIP3   OH272556   4.761   5.736   1.849  0.0370  0.7597  0.4347
17022TIP3    H172557   4.722   5.669   1.792 -1.4859  1.2019  0.9162
17022TIP3    H272558   4.707   5.813   1.836  0.6956  1.3694  1.2314
17023TIP3   OH272559   3.565   0.199  11.190 -0.3392 -0.0187 -0.1610
17023TIP3    H172560   3.630   0.134  11.162 -0.9544 -0.5271 -0.4454
17023TIP3    H272561   3.556   0.184  11.284  0.3502  0.4221 -0.0203
17024TIP3   OH272562   3.338   5.812   1.615 -0.4854  0.5296  0.2020
17024TIP3    H172563   3.398   5.738   1.613 -0.1303  0.8125  0.3321
17024TIP3    H272564   3.316   5.828   1.524  0.7317  1.3107  0.0247
17025TIP3   OH272565   2.133   3.257   4.916 -0.1562 -0.5749  0.2147
17025TIP3    H172566   2.154   3.266   4.823  0.2100 -0.5788  0.2959
17025TIP3    H272567   2.037   3.261   4.920 -0.1353  1.7981  0.0706
17026TIP3   OH272568   6.349   4.731  12.331  0.0190  0.4131  0.5896
17026TIP3    H172569   6.445   4.736  12.331  0.0657 -0.0859 -0.4541
17026TIP3    H272570   6.329   4.675  12.406  0.7113 -1.2969 -0.4137
17027TIP3   OH272571   3.418   6.402  13.147  0.1051 -0.8916 -0.3502
17027TIP3    H172572   3.335   6.449  13.149  0.1500 -0.7378 -1.4769
17027TIP3    H272573   3.473   6.452  13.086  0.9676 -1.0809  0.2535
17028TIP3   OH272574   1.030   6.442  10.529 -0.2213  0.2826  0.0689
17028TIP3    H172575   1.038   6.498  10.452  1.2457 -0.0380 -0.0394
17028TIP3    H272576   1.116   6.403  10.539 -0.6658 -0.4262  1.3185
17029TIP3   OH272577   0.914   2.014   4.145  0.0583 -0.6924  0.1938
17029TIP3    H172578   0.972   1.962   4.200 -1.5183 -2.8280 -0.0667
17029TIP3    H272579   0.965   2.032   4.066  1.0401 -0.8252  0.7907
17030TIP3   OH272580   5.419   0.766  12.237  0.4092 -0.3956 -0.5127
17030TIP3    H172581   5.351   0.793  12.175 -0.4226 -0.6523  0.2678
17030TIP3    H272582   5.492   0.737  12.182  1.3214  3.1890 -1.4465
17031TIP3   OH272583   5.205   4.399  12.773 -0.1119  0.2427  0.5648
17031TIP3    H172584   5.156   4.366  12.698 -0.0533  2.1134 -0.3695
17031TIP3    H272585   5.140   4.405  12.843 -0.6678  0.4069  0.0457
17032TIP3   OH272586   1.023   4.336   2.475  0.0118  0.1494 -0.3561
17032TIP3    H172587   0.992   4.256   2.433 -0.6137  0.2514 -0.1017
17032TIP3    H272588   0.943   4.378   2.508  0.3385  0.8555 -0.4533
17033TIP3   OH272589   6.146   1.475  15.106  0.2103 -0.1855  0.1614
17033TIP3    H172590   6.209   1.516  15.046  0.9554 -0.1752  0.9372
17033TIP3    H272591   6.198   1.450  15.182 -1.0073  1.4256  1.6182
17034TIP3   OH272592   4.497   0.140  11.272 -0.6448  0.4271 -0.0800
17034TIP3    H172593   4.527   0.059  11.230 -2.7577 -0.6898  0.4245
17034TIP3    H272594   4.572   0.199  11.267  0.7391 -1.3251 -1.0738
17035TIP3   OH272595   1.330   6.339  11.421  0.0317 -0.4677 -0.2289
17035TIP3    H172596   1.289   6.363  11.338  0.1987 -0.8790 -0.4335
17035TIP3    H272597   1.413   6.298  11.396 -0.4349 -1.6476  0.0827
17036TIP3   OH272598   4.558   6.740  13.962 -0.4557 -0.8037  0.6386
17036TIP3    H172599   4.467   6.759  13.983 -1.1009 -2.7752 -0.1490
17036TIP3    H272600   4.574   6.787  13.880 -0.9852 -1.0306  0.4016
17037TIP3   OH272601   1.602   3.239   4.840 -0.4126 -0.2938 -0.9389
17037TIP3    H172602   1.535   3.296   4.878 -0.2836 -1.2160  0.7794
17037TIP3    H272603   1.554   3.185   4.777 -0.4270  2.0211 -3.0339
17038TIP3   OH272604   6.588   2.110   3.573 -0.3610  0.0709 -0.4763
17038TIP3    H172605   6.517   2.130   3.512 -0.5390  0.9497  0.0051
17038TIP3    H272606   6.560   2.148   3.656  0.4098 -0.0911 -0.1342
17039TIP3   OH272607   6.873   0.374   5.511 -0.5537 -0.6133 -0.2925
17039TIP3    H172608   6.862   0.310   5.441  2.3351 -0.7808 -0.7400
17039TIP3    H272609   6.850   0.458   5.472 -0.3100 -0.8878 -1.0300
17040TIP3   OH272610   3.210   2.720  12.574 -0.4304 -0.1497 -0.7276
17040TIP3    H172611   3.218   2.790  12.508  0.9817 -0.4286 -0.8776
17040TIP3    H272612   3.292   2.672  12.567 -0.1876 -0.0896  1.3616
17041TIP3   OH272613   2.667   5.992  15.275 -0.0732 -0.4977  1.0840
17041TIP3    H172614   2.722   6.071  15.278 -0.9518  0.4173 -2.3706
17041TIP3    H272615   2.577   6.025  15.278 -0.4515 -1.3866  0.1434
17042TIP3   OH272616   0.318   5.149  15.254  0.4692 -0.2490  0.4453
17042TIP3    H172617   0.241   5.136  15.308  0.0626  0.4998  0.0708
17042TIP3    H272618   0.298   5.105  15.171  0.7703 -0.7254  0.6216
17043TIP3   OH272619   2.368   2.437  15.125 -0.1011  0.1129  0.2786
17043TIP3    H172620   2.362   2.486  15.043 -0.8307  1.6323  1.2049
17043TIP3    H272621   2.277   2.410  15.144 -0.0657  0.4646  0.9837
17044TIP3   OH272622   2.927   1.746  12.766 -0.2104  0.3179  0.0764
17044TIP3    H172623   2.856   1.693  12.804 -0.6047  0.3130 -0.6578
17044TIP3    H272624   2.903   1.836  12.788  0.3291  0.2327  1.1026
17045TIP3   OH272625   0.186   0.661   2.632  0.7045  0.0245  0.3494
17045TIP3    H172626   0.218   0.725   2.695  1.9403  0.8928 -1.0798
17045TIP3    H272627   0.265   0.614   2.604  0.0958 -0.7337 -0.1124
17046TIP3   OH272628   2.316   2.085   3.038 -0.0506  0.0747 -0.2774
17046TIP3    H172629   2.388   2.144   3.017 -0.1004  0.2547  0.0504
17046TIP3    H272630   2.345   2.038   3.116  1.3856 -2.7224 -2.3327
17047TIP3   OH272631   2.304   1.410  14.436 -0.1638 -0.5703  0.8655
17047TIP3    H172632   2.265   1.389  14.352 -0.7242  1.3683  0.5920
17047TIP3    H272633   2.298   1.505  14.443  0.1394 -0.6410  2.9735
17048TIP3   OH272634   0.481   3.277   5.748  0.4182 -0.0898 -0.1614
17048TIP3    H172635   0.536   3.303   5.821  1.0325 -1.0414 -0.2779
17048TIP3    H272636   0.393   3.307   5.772  0.4791 -1.0157  1.2880
17049TIP3   OH272637   0.220   1.701   2.997  0.2125 -0.6790  0.5253
17049TIP3    H172638   0.285   1.641   3.033  0.9649 -0.8061 -0.9639
17049TIP3    H272639   0.198   1.664   2.912  0.9624  1.3251 -0.6116
17050TIP3   OH272640   6.672   1.850   3.612 -0.1841 -0.5275  0.1410
17050TIP3    H172641   6.618   1.770   3.610 -1.5183  0.2925  1.2979
17050TIP3    H272642   6.608   1.921   3.618  0.9776  0.6683 -1.0047
17051TIP3   OH272643   3.170   3.306   5.988 -0.7798  0.2328 -0.4031
17051TIP3    H172644   3.202   3.396   5.994 -0.3636 -0.0010  1.6218
17051TIP3    H272645   3.250   3.253   5.981 -0.6461 -0.2227  2.8585
17052TIP3   OH272646   3.478   3.824  12.631 -0.7741  0.3986  0.0233
17052TIP3    H172647   3.521   3.910  12.627  0.6130 -0.2433  0.2576
17052TIP3    H272648   3.537   3.771  12.685 -1.8545 -0.5717  0.2944
17053TIP3   OH272649   2.824   5.256  11.464  0.1253 -0.1301 -0.0727
17053TIP3    H172650   2.812   5.184  11.527  1.1118 -1.4665 -1.3598
17053TIP3    H272651   2.912   5.244  11.429 -0.0595  1.1298 -1.0623
17054TIP3   OH272652   0.593   6.715   4.558  0.0801 -0.4046 -0.2152
17054TIP3    H172653   0.678   6.732   4.516 -0.0657  1.3542  0.1351
17054TIP3    H272654   0.602   6.751   4.646 -1.4367  1.0435 -0.5997
17055TIP3   OH272655   3.584   0.487  16.833  0.0892  0.0476  0.3333
17055TIP3    H172656   3.677   0.470  16.819  0.1299 -0.1965  0.8457
17055TIP3    H272657   3.566   0.448  16.919 -0.5482 -0.1493  0.1165
17056TIP3   OH272658   1.987   1.799   3.272 -0.2223  0.0544  0.6502
17056TIP3    H172659   2.083   1.805   3.274 -0.2739  0.9944  2.2000
17056TIP3    H272660   1.962   1.849   3.195  0.5847 -1.7192 -0.8301
17057TIP3   OH272661   0.465   0.306   3.108  0.2180  0.2517 -0.0698
17057TIP3    H172662   0.420   0.306   3.023  1.6287  1.2979 -0.8654
17057TIP3    H272663   0.433   0.386   3.151  0.2759  0.2642 -0.0500
17058TIP3   OH272664   5.411   4.100  11.889 -0.3553  0.2157 -0.1682
17058TIP3    H172665   5.356   4.161  11.840 -0.3490 -0.2832 -0.8153
17058TIP3    H272666   5.487   4.151  11.915 -0.4741  0.5520 -0.4778
17059TIP3   OH272667   3.289   2.048  14.917 -0.1489 -0.5695  0.1387
17059TIP3    H172668   3.378   2.014  14.928  0.3918  0.2157 -1.4955
17059TIP3    H272669   3.294   2.138  14.950 -0.5202 -0.7428  0.6744
17060TIP3   OH272670   0.272   0.060  11.421  0.1330  0.5477 -0.4521
17060TIP3    H172671   0.355   0.067  11.376 -0.2808  0.1294 -1.3132
17060TIP3    H272672   0.292   0.012  11.502  0.7675  0.7035 -0.5162
17061TIP3   OH272673   3.777   3.587  14.410 -0.1219 -0.3143  0.3657
17061TIP3    H172674   3.815   3.628  14.332 -1.7768  0.5823 -0.0135
17061TIP3    H272675   3.788   3.651  14.480 -1.5519  0.2847  0.0749
17062TIP3   OH272676   0.176   1.526   1.784 -0.2865  0.1685 -0.4175
17062TIP3    H172677   0.256   1.489   1.748 -0.2438 -0.8414  0.6469
17062TIP3    H272678   0.174   1.495   1.875 -1.6823  0.5003 -0.3133
17063TIP3   OH272679   2.868   2.948  11.101  0.4898  0.2641 -0.3180
17063TIP3    H172680   2.869   2.919  11.010  1.3264 -0.5834 -0.0541
17063TIP3    H272681   2.815   2.882  11.146 -0.5215  1.0674 -0.2992
17064TIP3   OH272682   2.011   6.393   1.888  0.1994  0.2487 -0.2050
17064TIP3    H172683   1.950   6.321   1.904 -2.0782  2.1360  0.1286
17064TIP3    H272684   2.097   6.352   1.887 -0.9087 -2.2934  1.0822
17065TIP3   OH272685   1.524   4.989   1.316  0.0161  0.1569 -0.3091
17065TIP3    H172686   1.572   5.047   1.376 -0.9900  1.5095 -0.7745
17065TIP3    H272687   1.539   5.026   1.229 -1.0816  0.0520 -0.5595
17066TIP3   OH272688   1.898   0.903  12.951 -0.1154 -0.3380 -0.0622
17066TIP3    H172689   1.841   0.980  12.943 -1.3540 -0.8687  2.5424
17066TIP3    H272690   1.864   0.842  12.885 -1.7297 -0.1323  0.5306
17067TIP3   OH272691   4.522   4.403  15.288  0.5023  0.1318 -0.0427
17067TIP3    H172692   4.582   4.354  15.345  2.0492  0.9709 -0.8955
17067TIP3    H272693   4.493   4.476  15.342 -0.2032 -0.5528  0.5440
17068TIP3   OH272694   2.899   0.029   5.719  0.5133  0.4510  0.3720
17068TIP3    H172695   2.831  -0.022   5.764 -1.4505 -0.3260 -3.0748
17068TIP3    H272696   2.863   0.117   5.714 -0.0983  0.1512 -1.0225
17069TIP3   OH272697   1.097   0.559   0.730 -0.1092 -0.3345 -0.2069
17069TIP3    H172698   1.032   0.605   0.783 -0.3331 -0.1798 -0.6073
17069TIP3    H272699   1.136   0.495   0.789 -0.1935 -0.0122  0.2032
17070TIP3   OH272700   3.603   5.427  14.204  0.3757 -0.2621 -0.2514
17070TIP3    H172701   3.612   5.334  14.180 -0.2113 -0.0829 -1.2206
17070TIP3    H272702   3.554   5.426  14.285  2.1025 -0.8809  0.8513
17071TIP3   OH272703   0.066   2.547   0.348  0.3777  0.5229  0.1805
17071TIP3    H172704   0.119   2.623   0.323 -0.3920  1.0527  0.1340
17071TIP3    H272705   0.115   2.505   0.419  0.4119  1.5291  0.7607
17072TIP3   OH272706   4.659   6.317  15.147  0.1780  0.0001 -0.6477
17072TIP3    H172707   4.700   6.317  15.234  1.3385  2.6177 -1.0914
17072TIP3    H272708   4.733   6.319  15.086 -0.6288 -1.2223 -1.7066
17073TIP3   OH272709   4.059   6.140  13.877 -0.0811 -0.0643 -0.3135
17073TIP3    H172710   3.964   6.131  13.892  0.0958 -0.5960  0.5879
17073TIP3    H272711   4.068   6.138  13.782 -0.8248 -1.9496 -0.3987
17074TIP3   OH272712   4.531   6.232  14.142  0.2448 -0.0965  0.1889
17074TIP3    H172713   4.608   6.207  14.092  0.5166 -2.9792  1.8052
17074TIP3    H272714   4.545   6.323  14.166  1.9180  0.1824 -1.6321
17075TIP3   OH272715   0.285   0.054   5.998 -0.8213  0.5800 -0.3977
17075TIP3    H172716   0.275  -0.040   6.011 -1.0071  0.5608 -0.6738
17075TIP3    H272717   0.242   0.094   6.074 -0.8359  0.4452 -0.3360
17076TIP3   OH272718   0.163   3.969   5.327 -0.5530  0.1062  0.1055
17076TIP3    H172719   0.103   4.000   5.395  0.8855  0.3638  1.3137
17076TIP3    H272720   0.208   3.894   5.367  1.1034  0.9401 -0.1198
17077TIP3   OH272721   3.773   4.593   5.590  0.0293  0.2438  0.0351
17077TIP3    H172722   3.782   4.528   5.660 -0.7778 -0.5122 -0.5434
17077TIP3    H272723   3.857   4.588   5.543  0.0368 -0.2538  0.0970
17078TIP3   OH272724   4.247   0.421  12.866  0.3872 -0.3910  0.0293
17078TIP3    H172725   4.240   0.367  12.788  0.6118 -1.2546  0.5989
17078TIP3    H272726   4.310   0.489  12.842  0.1900 -0.4431 -0.6521
17079TIP3   OH272727   1.872   0.571  15.381 -0.0365 -0.3153 -0.2810
17079TIP3    H172728   1.929   0.641  15.349 -0.1399  0.2402  0.7183
17079TIP3    H272729   1.784   0.598  15.355  0.0748 -0.8415 -1.2354
17080TIP3   OH272730   2.298   1.473  11.844 -0.3825 -0.1574  0.5703
17080TIP3    H172731   2.248   1.553  11.861 -3.0148 -1.2601 -1.2687
17080TIP3    H272732   2.241   1.402  11.875  1.6839 -1.3839  1.7378
17081TIP3   OH272733   4.817   6.237   5.302  0.8048  0.9989  0.0027
17081TIP3    H172734   4.912   6.238   5.319  0.6681  0.2347  0.8881
17081TIP3    H272735   4.808   6.191   5.219  1.1323 -0.1887  0.6009
17082TIP3   OH272736   1.212   5.302  16.752 -0.9474  0.1053 -0.3073
17082TIP3    H172737   1.201   5.257  16.836 -1.0281 -0.1417 -0.4501
17082TIP3    H272738   1.185   5.238  16.687  0.6879 -0.2830 -0.6263
17083TIP3   OH272739   2.485   3.767  11.244  0.3575  0.3134  0.4790
17083TIP3    H172740   2.453   3.677  11.252  0.6783  0.2278  0.8308
17083TIP3    H272741   2.411   3.821  11.273  0.0275  0.1826 -0.1130
17084TIP3   OH272742   2.575   2.126   5.849 -0.1308 -0.1473  1.1537
17084TIP3    H172743   2.534   2.213   5.851 -1.6913 -0.8653  1.7314
17084TIP3    H272744   2.652   2.135   5.905  0.2101  1.0765  0.5277
17085TIP3   OH272745   6.170   0.847  12.684 -0.5054  0.4198  0.0091
17085TIP3    H172746   6.184   0.838  12.590  1.4563  2.0600  0.0613
17085TIP3    H272747   6.141   0.938  12.696 -1.0820  0.1244  0.9538
17086TIP3   OH272748   3.813   5.319  10.692  0.2043 -0.4736  0.2256
17086TIP3    H172749   3.722   5.346  10.682  0.4961 -0.1129 -1.9307
17086TIP3    H272750   3.808   5.235  10.738 -1.5091 -2.0643 -2.5811
17087TIP3   OH272751   6.627   5.821  12.169 -0.1245  0.3453  0.0533
17087TIP3    H172752   6.563   5.765  12.212 -0.5078  0.3876 -0.4496
17087TIP3    H272753   6.706   5.767  12.163 -0.6789 -0.3908 -0.9870
17088TIP3   OH272754   2.090   0.134  16.484 -1.0102  0.1786  0.2512
17088TIP3    H172755   2.155   0.204  16.486 -2.3794  1.4822  1.0381
17088TIP3    H272756   2.140   0.055  16.505  1.1545  0.2986 -3.5776
17089TIP3   OH272757   6.791   1.353  14.138 -0.3392  0.6640  0.5796
17089TIP3    H172758   6.842   1.304  14.203 -0.8045  0.8506  1.0950
17089TIP3    H272759   6.746   1.286  14.087 -0.8360  0.5452  1.1667
17090TIP3   OH272760   5.505   2.413  16.377 -0.2057 -0.1696 -0.6779
17090TIP3    H172761   5.600   2.422  16.371 -0.0167  0.5276  2.0523
17090TIP3    H272762   5.473   2.503  16.375 -0.7887 -0.3844 -1.1805
17091TIP3   OH272763   1.451   2.401  12.531 -0.4984  0.4534  0.2585
17091TIP3    H172764   1.522   2.361  12.581  0.7185  0.9920 -0.9879
17091TIP3    H272765   1.407   2.328  12.488 -1.5350 -0.0141  2.0272
17092TIP3   OH272766   0.754   1.329  16.548 -0.0511 -0.1264  0.1673
17092TIP3    H172767   0.833   1.315  16.600 -0.6604 -1.5342  0.7538
17092TIP3    H272768   0.758   1.263  16.479  0.4599  1.3530 -1.2946
17093TIP3   OH272769   2.585   0.732   0.713  0.4576  0.3521  0.8562
17093TIP3    H172770   2.548   0.666   0.654 -1.8641  0.5478  1.9613
17093TIP3    H272771   2.652   0.776   0.661 -0.5032 -0.4228 -1.1400
17094TIP3   OH272772   3.708   3.631   3.037 -0.1630  0.4509 -0.0543
17094TIP3    H172773   3.694   3.726   3.041  0.9211  0.7289 -1.6167
17094TIP3    H272774   3.738   3.616   2.947  0.7837 -1.2159  0.5021
17095TIP3   OH272775   0.434   5.299  12.134 -0.2697  0.2094 -0.0725
17095TIP3    H172776   0.515   5.336  12.098 -0.8289 -0.1650 -1.8683
17095TIP3    H272777   0.414   5.226  12.075 -1.9425  0.3317  0.2925
17096TIP3   OH272778   4.572   0.095  15.700  0.2497  0.5150  0.4210
17096TIP3    H172779   4.591   0.179  15.659 -0.3565  0.7953  0.7048
17096TIP3    H272780   4.505   0.056  15.644  2.4177 -1.0180 -1.2858
17097TIP3   OH272781   6.318   1.672  14.986  0.2989 -0.5151 -0.5116
17097TIP3    H172782   6.319   1.764  14.960 -1.0591 -0.0251  1.0273
17097TIP3    H272783   6.410   1.651  15.004  0.6205  0.5411 -0.8782
17098TIP3   OH272784   6.081   0.030   5.193  0.2743  0.4136 -0.0504
17098TIP3    H172785   6.157   0.081   5.165  0.1828  1.6350  1.7516
17098TIP3    H272786   6.107  -0.009   5.276  0.4423 -2.8481 -1.4948
17099TIP3   OH272787   4.443   1.269  16.136  0.3127  0.3793  0.0359
17099TIP3    H172788   4.528   1.232  16.112 -0.4923 -2.0289  0.5420
17099TIP3    H272789   4.405   1.298  16.054  1.2777  0.7147 -0.3042
17100TIP3   OH272790   0.550   2.661   4.403  0.4220 -0.1156  0.2887
17100TIP3    H172791   0.549   2.597   4.473 -0.3257  0.2653  0.6326
17100TIP3    H272792   0.458   2.681   4.386  0.5800 -0.2666 -0.8639
17101TIP3   OH272793   6.222   2.015   5.664 -0.0567  0.0454  0.2604
17101TIP3    H172794   6.186   1.926   5.662  1.7613 -0.7171 -0.2096
17101TIP3    H272795   6.145   2.072   5.654 -1.0353 -1.5224 -1.8670
17102TIP3   OH272796   6.532   3.983   4.573 -0.4101 -0.0666 -0.2775
17102TIP3    H172797   6.467   4.053   4.584  0.8146  0.8473  1.7105
17102TIP3    H272798   6.481   3.907   4.545 -2.1683  0.9313  0.0760
17103TIP3   OH272799   5.219   4.929   0.239  0.0507 -0.2265  0.4276
17103TIP3    H172800   5.206   4.966   0.326 -0.6116 -2.0979  1.1766
17103TIP3    H272801   5.252   5.002   0.186 -2.7166  1.8873  1.3603
17104TIP3   OH272802   2.735   5.455  14.111  0.6705 -0.4159 -0.1574
17104TIP3    H172803   2.804   5.494  14.164  0.0040  1.1796 -0.3931
17104TIP3    H272804   2.745   5.495  14.025  0.8762 -1.9346 -0.8650
17105TIP3   OH272805   6.561   0.802   1.448  0.1066 -0.0385 -0.0159
17105TIP3    H172806   6.609   0.873   1.405  0.2185  0.4667  0.9228
17105TIP3    H272807   6.596   0.800   1.537  0.4016 -1.5556 -0.1398
17106TIP3   OH272808   1.091   3.019  16.453  0.2986  0.4059  0.3873
17106TIP3    H172809   1.061   3.093  16.506  0.5853  1.3029 -0.6520
17106TIP3    H272810   1.137   3.060  16.380  1.6917 -0.8468  0.5071
17107TIP3   OH272811   3.489   3.356  13.912 -0.5537 -0.4584 -0.1195
17107TIP3    H172812   3.494   3.382  13.820 -1.1305 -1.7293 -0.5247
17107TIP3    H272813   3.435   3.424  13.954 -0.6826 -0.1319 -0.8119
17108TIP3   OH272814   2.811   4.838  11.809 -0.3952 -0.5992 -0.1201
17108TIP3    H172815   2.756   4.833  11.888  0.0614  0.1818  0.2674
17108TIP3    H272816   2.897   4.866  11.842 -0.5624  1.0927 -1.0250
17109TIP3   OH272817   6.285   4.410   5.714  1.3654  0.6233  0.1777
17109TIP3    H172818   6.244   4.333   5.676  0.2459  1.0408  0.4959
17109TIP3    H272819   6.267   4.403   5.808  2.4419  0.5765  0.3891
17110TIP3   OH272820   2.194   5.572  12.706 -0.6675 -0.6960 -0.1052
17110TIP3    H172821   2.217   5.657  12.746 -2.1638 -0.0380 -0.5774
17110TIP3    H272822   2.120   5.541  12.757 -1.7614 -0.4782 -1.4970
17111TIP3   OH272823   5.082   0.077   1.360  0.4543 -0.4510  0.2044
17111TIP3    H172824   5.131   0.078   1.278  0.5944 -0.8108  0.2841
17111TIP3    H272825   5.022   0.152   1.353 -1.4925 -2.0579 -1.4080
17112TIP3   OH272826   5.214   1.955   4.665  0.0570  0.2316 -0.5499
17112TIP3    H172827   5.259   1.977   4.746 -0.0845  0.4485 -0.5263
17112TIP3    H272828   5.277   1.903   4.615  0.3441  0.5571 -0.5326
17113TIP3   OH272829   5.574   5.862   1.328  0.2046 -0.5183  0.1536
17113TIP3    H172830   5.565   5.919   1.404 -0.2150 -1.0914  0.5434
17113TIP3    H272831   5.596   5.777   1.365 -1.4013 -1.1489 -0.2615
17114TIP3   OH272832   2.098   0.124   0.619 -0.6324 -0.3493 -0.1982
17114TIP3    H172833   2.120   0.055   0.556 -0.3709  0.6172 -1.2007
17114TIP3    H272834   2.107   0.205   0.569 -0.9824  0.4108  0.9445
17115TIP3   OH272835   4.252   2.811   1.499 -0.2011 -0.5048 -0.1031
17115TIP3    H172836   4.185   2.757   1.457 -1.2606 -1.2807  2.3836
17115TIP3    H272837   4.323   2.817   1.435 -1.7455 -1.4697 -1.9901
17116TIP3   OH272838   5.101   5.180   2.289  0.3211  0.7351 -0.1825
17116TIP3    H172839   5.047   5.245   2.245  1.2160  0.9857 -0.9542
17116TIP3    H272840   5.127   5.119   2.219  1.8905  1.2207 -0.0696
17117TIP3   OH272841   2.075   1.867  10.706 -0.1867  0.7586 -0.2050
17117TIP3    H172842   2.115   1.864  10.793  1.6402  0.9177 -0.9983
17117TIP3    H272843   1.990   1.908  10.721 -1.9742 -3.1947  2.2120
17118TIP3   OH272844   3.590   4.166  11.264 -0.8450  0.0573  0.0714
17118TIP3    H172845   3.552   4.216  11.336 -2.3304 -1.0657  0.0995
17118TIP3    H272846   3.516   4.120  11.225  0.4347 -2.0737  0.0205
17119TIP3   OH272847   2.594   1.552   1.564  0.6509 -1.0548  0.0652
17119TIP3    H172848   2.611   1.458   1.567 -1.1658 -1.3789  1.7678
17119TIP3    H272849   2.603   1.581   1.654 -0.5105  0.0553 -0.1496
17120TIP3   OH272850   4.530   2.269   1.122  0.2189 -0.1608 -0.4805
17120TIP3    H172851   4.607   2.242   1.072  1.1269  0.2901  0.6265
17120TIP3    H272852   4.561   2.274   1.213 -1.4653 -1.3367  0.2142
17121TIP3   OH272853   5.798   3.509  13.183  0.6835 -0.3890 -0.2564
17121TIP3    H172854   5.858   3.583  13.191 -2.1850  2.0498  0.1811
17121TIP3    H272855   5.765   3.495  13.272  2.4042 -3.4556  0.0412
17122TIP3   OH272856   5.320   1.343  15.612  0.2763 -1.0331 -0.1250
17122TIP3    H172857   5.323   1.364  15.519  0.8620  1.6076  0.4160
17122TIP3    H272858   5.227   1.332  15.632  0.0095  0.0666 -0.7030
17123TIP3   OH272859   6.540   6.059  16.009 -0.3927 -0.2867 -0.3148
17123TIP3    H172860   6.605   5.995  15.981 -1.7215 -0.8491 -2.3260
17123TIP3    H272861   6.465   6.007  16.037 -1.2452  0.3385 -1.3515
17124TIP3   OH272862   4.181   6.178  12.893 -0.0299 -0.1720 -0.4759
17124TIP3    H172863   4.090   6.204  12.876 -0.2260  0.4800  1.3829
17124TIP3    H272864   4.176   6.084  12.911 -0.8446  0.3185  2.3943
17125TIP3   OH272865   5.918   5.672   1.641 -0.5844  0.0744  0.8867
17125TIP3    H172866   5.930   5.583   1.607 -0.4239  0.8372 -1.2016
17125TIP3    H272867   6.005   5.699   1.669 -0.4393 -0.0624  0.5684
17126TIP3   OH272868   5.167   2.139  13.963 -0.1843 -0.4398  0.2474
17126TIP3    H172869   5.252   2.120  13.922 -0.7670 -2.1206 -0.2780
17126TIP3    H272870   5.120   2.056  13.960 -2.0356  0.5595  0.1307
17127TIP3   OH272871   2.543   6.586  15.920  0.5340 -0.0236 -0.5052
17127TIP3    H172872   2.516   6.637  15.843  0.7796  0.3475 -0.3474
17127TIP3    H272873   2.608   6.641  15.964  1.0867 -0.6330 -0.5380
17128TIP3   OH272874   5.745   4.484   2.522  0.4056  0.3682  0.0525
17128TIP3    H172875   5.693   4.412   2.558 -1.8727  1.5053 -0.8054
17128TIP3    H272876   5.787   4.447   2.445 -1.3747  0.1223 -0.8359
17129TIP3   OH272877   3.235   4.276  16.053  0.0080 -0.0382 -0.2531
17129TIP3    H172878   3.297   4.279  15.981 -1.2011 -2.0284 -1.5054
17129TIP3    H272879   3.207   4.367  16.066  1.5224  0.5775 -1.1158
17130TIP3   OH272880   0.625   6.002  12.726  0.2491  0.6005 -0.3736
17130TIP3    H172881   0.553   5.940  12.715 -0.1901  1.0859 -0.3301
17130TIP3    H272882   0.678   5.993  12.646 -0.5524  1.0990 -0.9856
17131TIP3   OH272883   2.547   4.183  15.557 -0.1983  0.1610  0.4408
17131TIP3    H172884   2.515   4.096  15.535 -0.0378  0.0982  0.4543
17131TIP3    H272885   2.629   4.192  15.508  0.2250 -0.0262  1.1093
17132TIP3   OH272886   5.706   6.206  14.955  0.4103  0.0666  0.2906
17132TIP3    H172887   5.727   6.255  15.035 -0.3793 -0.3653  0.7791
17132TIP3    H272888   5.792   6.181  14.919  0.7857  0.6381  0.7678
17133TIP3   OH272889   5.589   0.879   4.542  0.1083 -0.0944  0.2593
17133TIP3    H172890   5.607   0.889   4.449  0.4440 -1.4904  0.1541
17133TIP3    H272891   5.493   0.872   4.547  0.1023 -0.1785  0.0142
17134TIP3   OH272892   1.378   0.247  16.252 -0.3414 -0.0253  0.6128
17134TIP3    H172893   1.386   0.342  16.244  0.2016 -0.1692 -0.6386
17134TIP3    H272894   1.436   0.224  16.325 -0.1551  0.5501  0.6472
17135TIP3   OH272895   1.793   6.804   1.440  0.0029 -0.1296  0.3533
17135TIP3    H172896   1.836   6.822   1.357 -0.9149 -1.2767 -0.3977
17135TIP3    H272897   1.841   6.729   1.476 -0.1778 -0.2219  0.4048
17136TIP3   OH272898   6.493   0.827   1.836  0.0267  0.2402  0.8021
17136TIP3    H172899   6.409   0.805   1.795  0.7953  1.5095 -1.6749
17136TIP3    H272900   6.478   0.910   1.880  0.2651  1.1382 -0.7607
17137TIP3   OH272901   5.542   4.021  13.034 -0.7542 -0.5564  0.1014
17137TIP3    H172902   5.564   4.112  13.014 -1.5845 -0.2754  0.3943
17137TIP3    H272903   5.594   3.969  12.974 -1.4574  0.1699 -1.1705
17138TIP3   OH272904   2.127   6.101  15.253  0.3121  0.1979  0.0354
17138TIP3    H172905   2.073   6.053  15.190  1.5739  1.2593 -1.9502
17138TIP3    H272906   2.115   6.193  15.231  1.3563  0.5569  0.8705
17139TIP3   OH272907   2.962   0.169  13.263 -0.2661  0.1518  0.0920
17139TIP3    H172908   2.939   0.243  13.208 -0.0822  0.0298 -0.1503
17139TIP3    H272909   2.947   0.092  13.209  0.2899  0.0502  0.0695
17140TIP3   OH272910   5.662   3.234  16.448 -0.3877  0.0432  0.9491
17140TIP3    H172911   5.611   3.222  16.528  0.2608 -2.4447  1.0862
17140TIP3    H272912   5.753   3.232  16.477 -0.1469  0.4922  0.2747
17141TIP3   OH272913   1.297   5.672   1.485  0.1836  0.0677 -0.0181
17141TIP3    H172914   1.244   5.594   1.500  0.6844 -0.0657  1.2206
17141TIP3    H272915   1.293   5.686   1.391 -2.2503  0.2060  0.0243
17142TIP3   OH272916   4.276   6.871  14.463  0.0181 -0.0427  0.7070
17142TIP3    H172917   4.228   6.878  14.380 -0.8039 -0.8186  1.0911
17142TIP3    H272918   4.341   6.803  14.447 -0.6435 -0.7355  0.9166
17143TIP3   OH272919   2.053   1.749   2.812  0.2804  0.1664 -0.1591
17143TIP3    H172920   2.138   1.784   2.839 -0.0106 -0.4322  1.7055
17143TIP3    H272921   2.053   1.659   2.844 -1.5671  0.5701  1.1460
17144TIP3   OH272922   3.699   6.837  11.775 -0.0922 -0.8049  0.4939
17144TIP3    H172923   3.776   6.788  11.803  0.1564  0.2248  1.7238
17144TIP3    H272924   3.670   6.794  11.694  1.2618 -1.7203  0.4759
17145TIP3   OH272925   0.761   6.188  13.557  0.2889  0.0150 -0.3062
17145TIP3    H172926   0.816   6.119  13.519 -0.5770 -0.5517 -0.5762
17145TIP3    H272927   0.694   6.204  13.491 -0.0496  0.4666  0.1405
17146TIP3   OH272928   2.951   3.404  15.801 -0.7402  0.2789 -0.4367
17146TIP3    H172929   3.022   3.394  15.738 -0.5598  1.1998 -0.3870
17146TIP3    H272930   2.989   3.378  15.885 -0.9908 -0.9857 -0.6957
17147TIP3   OH272931   4.743   3.149  14.467 -0.4989 -0.6518 -0.2495
17147TIP3    H172932   4.784   3.077  14.515  1.7823 -1.0527 -2.5619
17147TIP3    H272933   4.742   3.222  14.528 -0.3917 -1.8882  1.2908
17148TIP3   OH272934   5.458   5.195  13.103 -0.4646 -0.3004 -0.4385
17148TIP3    H172935   5.528   5.151  13.055  0.2412  1.9141 -1.5710
17148TIP3    H272936   5.501   5.271  13.143 -2.1370  1.0214 -1.0312
17149TIP3   OH272937   2.994   0.832   4.432 -0.0402  0.0775  0.0308
17149TIP3    H172938   3.013   0.839   4.339 -0.1924  1.3440  0.0875
17149TIP3    H272939   2.906   0.869   4.441 -0.3825 -0.8172  0.5664
17150TIP3   OH272940   4.243   5.003  13.588  0.2039  0.0392 -0.2355
17150TIP3    H172941   4.195   5.085  13.590  0.1282  0.0286 -1.1710
17150TIP3    H272942   4.329   5.026  13.553 -0.2601 -0.4737 -1.7971
17151TIP3   OH272943   5.568   3.981   5.102  0.0529  0.0531  0.9720
17151TIP3    H172944   5.647   3.936   5.132 -0.1567 -0.4632  0.7568
17151TIP3    H272945   5.499   3.952   5.163 -0.5271 -1.5418 -0.3666
17152TIP3   OH272946   0.099   1.164  12.448  0.4094 -0.4202  0.3259
17152TIP3    H172947   0.051   1.235  12.490  1.1081  0.7358 -0.7396
17152TIP3    H272948   0.097   1.186  12.354  0.3822 -1.9764 -0.0622
17153TIP3   OH272949   4.629   2.046  10.801 -0.4244  0.0075  0.1597
17153TIP3    H172950   4.576   2.050  10.722 -0.1718 -0.3657 -0.0283
17153TIP3    H272951   4.567   2.062  10.872 -0.7201 -0.0581 -0.0815
17154TIP3   OH272952   5.745   2.696   2.362 -0.6982 -0.1957  0.3244
17154TIP3    H172953   5.827   2.697   2.311  0.1090 -0.2658  1.5639
17154TIP3    H272954   5.691   2.630   2.319 -0.1156 -0.1146 -0.5516
17155TIP3   OH272955   0.333   5.272   1.502  0.2516  0.4919 -0.5986
17155TIP3    H172956   0.332   5.252   1.409 -0.2002  0.8861 -0.6847
17155TIP3    H272957   0.279   5.204   1.542 -2.0412  1.9466 -0.9980
17156TIP3   OH272958   5.965   1.905  15.882 -0.0915 -0.2027 -0.2243
17156TIP3    H172959   5.934   1.984  15.838 -0.0463  0.1693  0.3976
17156TIP3    H272960   5.981   1.842  15.811 -0.9037  0.0708 -0.6652
17157TIP3   OH272961   4.518   2.736  11.424  0.1290 -0.5121  0.2271
17157TIP3    H172962   4.583   2.680  11.467  0.8799 -0.9453 -1.3704
17157TIP3    H272963   4.558   2.758  11.340 -0.5935  1.6168  0.3894
17158TIP3   OH272964   1.395   6.387   1.507  0.2378 -0.4404  0.2708
17158TIP3    H172965   1.390   6.302   1.464 -0.8686 -0.6284  0.7323
17158TIP3    H272966   1.478   6.425   1.476  0.2062 -1.2021 -0.8100
17159TIP3   OH272967   2.675   2.105   5.561 -0.2318 -0.1480  0.6859
17159TIP3    H172968   2.768   2.104   5.583 -0.1394 -0.6373  0.2647
17159TIP3    H272969   2.631   2.121   5.645  0.0742 -2.8797  1.4397
17160TIP3   OH272970   1.934   1.135  14.172  0.3865  0.0892 -0.0557
17160TIP3    H172971   2.022   1.153  14.141  0.5778 -1.1692 -0.3238
17160TIP3    H272972   1.929   1.176  14.258  0.7453  1.3565 -0.6184
17161TIP3   OH272973   2.486   3.285  13.195  0.7606  0.2723 -0.6807
17161TIP3    H172974   2.465   3.365  13.146 -0.0509  0.1211 -0.5958
17161TIP3    H272975   2.579   3.270  13.177  1.2661  1.9375  0.2920
17162TIP3   OH272976   2.029   4.208   1.827  0.1746  0.1001 -0.1327
17162TIP3    H172977   2.042   4.157   1.907 -0.1662  0.3593  0.0915
17162TIP3    H272978   2.041   4.299   1.856 -3.7000  0.5636  0.4799
17163TIP3   OH272979   6.669   1.392   1.495  0.3830 -0.0311  0.2687
17163TIP3    H172980   6.650   1.409   1.587 -1.5454  1.0965 -0.2920
17163TIP3    H272981   6.610   1.320   1.471  1.5059 -0.9333  0.1042
17164TIP3   OH272982   4.188   2.148   5.404  0.5385 -0.0702  0.2069
17164TIP3    H172983   4.256   2.210   5.429  0.0347  0.1110  1.1706
17164TIP3    H272984   4.171   2.167   5.312  0.0273  1.5882  0.6088
17165TIP3   OH272985   5.227   1.165   5.351 -0.1527 -0.1890  0.3791
17165TIP3    H172986   5.307   1.124   5.384  0.5702  0.6802 -0.2673
17165TIP3    H272987   5.257   1.232   5.290 -1.3937 -0.3299 -0.4345
17166TIP3   OH272988   4.444   2.881   0.710  0.0593 -0.4505 -0.3326
17166TIP3    H172989   4.364   2.829   0.702 -0.8288  0.5193  1.4304
17166TIP3    H272990   4.481   2.883   0.622  0.0737 -3.8740 -0.5373
17167TIP3   OH272991   0.485   0.922  13.770  0.4183  0.6639  0.2270
17167TIP3    H172992   0.493   0.934  13.864  1.0862 -0.6003  0.3635
17167TIP3    H272993   0.576   0.912  13.740  0.1438 -0.5372 -0.2870
17168TIP3   OH272994   3.858   5.939   2.361  0.0941 -0.5357  0.3851
17168TIP3    H172995   3.881   5.846   2.362 -0.7096 -0.7342  1.1494
17168TIP3    H272996   3.784   5.946   2.422 -2.4184 -0.0572 -2.4860
17169TIP3   OH272997   4.745   0.717  15.111 -0.4517 -0.2691 -0.0268
17169TIP3    H172998   4.817   0.705  15.048 -1.0832  1.9443 -1.2961
17169TIP3    H272999   4.670   0.738  15.056 -1.2102  0.9956  1.4402
17170TIP3   OH273000   5.027   2.153  13.650 -0.2808 -0.3301  0.3091
17170TIP3    H173001   5.083   2.204  13.590 -0.4012 -0.8465 -0.2543
17170TIP3    H273002   5.036   2.198  13.734  0.1878  0.1935 -0.0048
17171TIP3   OH273003   1.978   6.323   4.554  0.3177 -0.1845  0.0904
17171TIP3    H173004   1.890   6.317   4.591  0.5562 -0.0699  0.6903
17171TIP3    H273005   2.032   6.354   4.626  0.4021  2.3130 -0.9399
17172TIP3   OH273006   2.604   0.061   1.278  0.1615  0.2263  0.5451
17172TIP3    H173007   2.547   0.064   1.355  0.7066  2.0821  0.9469
17172TIP3    H273008   2.646  -0.025   1.282 -1.2069 -0.4403  1.2624
17173TIP3   OH273009   0.328   4.225   3.205 -0.0744 -0.1784  0.3704
17173TIP3    H173010   0.414   4.244   3.242 -0.5313  0.8081  0.9757
17173TIP3    H273011   0.296   4.310   3.175 -0.3653 -0.7157 -0.9085
17174TIP3   OH273012   5.130   2.892   2.048 -0.2979  0.8795  0.2717
17174TIP3    H173013   5.044   2.851   2.048  0.4092 -0.6986 -0.1079
17174TIP3    H273014   5.152   2.901   2.141  0.2123 -1.2399  0.4227
17175TIP3   OH273015   3.941   2.743  12.869 -0.0041  0.3729 -0.1756
17175TIP3    H173016   3.991   2.814  12.910  1.5215 -0.1364 -1.0835
17175TIP3    H273017   3.926   2.773  12.779 -1.1903  0.4229  0.0164
17176TIP3   OH273018   3.308   4.231  12.142  0.3719 -0.3089  0.0587
17176TIP3    H173019   3.213   4.241  12.139  0.5744  1.8106 -2.7549
17176TIP3    H273020   3.329   4.178  12.065  1.4413 -1.8712  1.3505
17177TIP3   OH273021   2.993   4.325  15.819  0.0100 -0.0835 -0.3805
17177TIP3    H173022   2.920   4.386  15.832  0.4805  0.4984 -0.4571
17177TIP3    H273023   2.952   4.239  15.822 -0.4262  0.1232  1.6070
17178TIP3   OH273024   4.862   3.709   0.850  0.3211  0.5678 -0.5044
17178TIP3    H173025   4.792   3.697   0.914  0.9447  1.7843  0.4530
17178TIP3    H273026   4.841   3.647   0.780 -0.2414 -1.0008  0.9720
17179TIP3   OH273027   4.087   4.652  15.013  0.1961  0.0570 -0.1496
17179TIP3    H173028   4.119   4.570  15.053 -0.7377 -0.4964 -0.5079
17179TIP3    H273029   4.053   4.702  15.087  0.1244 -0.1813 -0.0180
17180TIP3   OH273030   3.128   1.355  12.714  0.2551  0.1171 -0.1539
17180TIP3    H173031   3.114   1.369  12.620  1.9959 -0.5934 -0.5682
17180TIP3    H273032   3.220   1.377  12.727  0.0032  0.3155  1.4253
17181TIP3   OH273033   2.639   6.076   0.622  0.2750  0.1455 -0.3392
17181TIP3    H173034   2.730   6.083   0.653 -0.0766 -0.9224  1.0291
17181TIP3    H273035   2.604   6.000   0.668 -1.3995  0.6759 -0.6755
17182TIP3   OH273036   6.678   2.794   2.201  0.0661 -0.5351  0.3996
17182TIP3    H173037   6.662   2.888   2.207 -0.1177 -0.5493  0.1422
17182TIP3    H273038   6.592   2.753   2.211 -0.1074 -0.6046 -1.0941
17183TIP3   OH273039   5.969   2.529  15.197  0.5160 -0.0141  0.4330
17183TIP3    H173040   6.016   2.540  15.114 -1.5632 -0.5890 -0.9098
17183TIP3    H273041   5.970   2.434  15.211  0.5475  0.0542  0.8770
17184TIP3   OH273042   6.736   1.546   4.740 -0.1806  0.8237 -0.1955
17184TIP3    H173043   6.724   1.480   4.672 -0.9187  1.5699 -0.8120
17184TIP3    H273044   6.826   1.533   4.770 -0.8577 -1.6989  1.0514
17185TIP3   OH273045   4.985   2.190   4.433  0.3693 -0.1077 -0.5034
17185TIP3    H173046   5.026   2.150   4.356  2.2452 -1.0402  0.9165
17185TIP3    H273047   4.954   2.115   4.485 -1.9660  0.5337 -0.8374
17186TIP3   OH273048   1.541   6.535  15.626  0.1968  0.0399  0.5330
17186TIP3    H173049   1.592   6.599  15.575 -1.3944  1.0343  0.0901
17186TIP3    H273050   1.450   6.566  15.618 -0.3696 -1.1213  2.0637
17187TIP3   OH273051   6.822   3.173   0.474  0.4488 -0.2865  0.1303
17187TIP3    H173052   6.897   3.227   0.447  0.3583  0.3799  1.1385
17187TIP3    H273053   6.853   3.083   0.466  0.6092 -0.1016 -1.5691
17188TIP3   OH273054   1.899   0.475   3.203  0.3722 -0.4177 -0.4989
17188TIP3    H173055   1.831   0.479   3.135  1.7973 -0.3211 -1.9657
17188TIP3    H273056   1.951   0.398   3.182 -0.3095 -1.5813  1.6934
17189TIP3   OH273057   6.140   5.870   2.616 -0.0773 -0.1941 -0.0035
17189TIP3    H173058   6.210   5.808   2.595  0.0599  0.0018 -0.1332
17189TIP3    H273059   6.062   5.831   2.578  0.1896  0.2133 -0.9955
17190TIP3   OH273060   1.511   4.915  15.199 -0.4020  0.8506 -0.1318
17190TIP3    H173061   1.563   4.835  15.198  1.5673  2.0530  0.1899
17190TIP3    H273062   1.459   4.911  15.119  2.4129  0.8947 -2.1207
17191TIP3   OH273063   2.207   6.014   1.265 -0.4630 -0.3426  0.0862
17191TIP3    H173064   2.178   5.959   1.192 -1.3160  0.1581  0.0322
17191TIP3    H273065   2.210   5.954   1.340 -1.3994 -0.4795  0.0297
17192TIP3   OH273066   6.876   1.743  16.484 -0.3810  0.3947 -0.4938
17192TIP3    H173067   6.876   1.725  16.578 -0.1800 -0.3907 -0.6358
17192TIP3    H273068   6.810   1.811  16.473 -1.6623 -0.7243 -0.0096
17193TIP3   OH273069   0.966   5.148   6.123 -0.4093  0.0531 -0.0530
17193TIP3    H173070   1.057   5.122   6.135 -0.5032 -1.6327 -2.4176
17193TIP3    H273071   0.968   5.244   6.123  1.2418  0.0425  0.5976
17194TIP3   OH273072   1.742   0.798  15.522  0.2483 -0.1209 -0.1326
17194TIP3    H173073   1.684   0.745  15.468  1.0563 -0.7572 -0.3908
17194TIP3    H273074   1.733   0.887  15.488  1.6521 -0.6966 -2.1536
17195TIP3   OH273075   5.287   5.225  16.701 -0.1165 -0.4354  0.5339
17195TIP3    H173076   5.262   5.160  16.766 -1.5740  0.1725  0.6299
17195TIP3    H273077   5.259   5.188  16.617  0.2360 -0.5054  0.4502
17196TIP3   OH273078   5.556   4.073   1.361 -0.3492  0.3591  0.5476
17196TIP3    H173079   5.579   4.162   1.388 -0.3423  0.5115  0.0453
17196TIP3    H273080   5.633   4.021   1.382 -0.0903  0.5997  0.1932
17197TIP3   OH273081   0.116   0.034   3.134 -0.5290  0.2732  0.2362
17197TIP3    H173082   0.158   0.004   3.054 -1.7548  1.5316 -0.9229
17197TIP3    H273083   0.172   0.000   3.204  0.8628 -0.4098 -1.1444
17198TIP3   OH273084   5.919   2.679   3.858 -0.3507 -0.1494  0.2851
17198TIP3    H173085   5.953   2.758   3.901  0.5475 -1.4357  2.0283
17198TIP3    H273086   5.841   2.656   3.908  0.3518 -1.3108  0.8735
17199TIP3   OH273087   1.676   3.169   1.540  0.0894  0.0220  0.2540
17199TIP3    H173088   1.691   3.078   1.563  2.2473  0.5099  0.9114
17199TIP3    H273089   1.761   3.202   1.511 -0.4571  2.0402  0.7567
17200TIP3   OH273090   3.164   0.865  11.192 -0.2471 -0.0822  0.2105
17200TIP3    H173091   3.086   0.914  11.217  2.3759  5.2879 -0.7297
17200TIP3    H273092   3.149   0.840  11.101 -1.5391 -0.9472  0.6288
17201TIP3   OH273093   5.864   6.086   4.198 -0.0411  0.2375  0.3592
17201TIP3    H173094   5.848   6.062   4.107  1.9404  0.3444 -0.0698
17201TIP3    H273095   5.800   6.035   4.248 -0.4558 -0.6522 -1.0223
17202TIP3   OH273096   5.865   6.015  14.204  0.1111  0.3820  0.1410
17202TIP3    H173097   5.782   6.026  14.252 -0.3616  0.3536 -0.6512
17202TIP3    H273098   5.886   6.103  14.173 -0.0669  0.2492 -0.3662
17203TIP3   OH273099   5.451   3.794   0.345 -0.5625  0.2397  0.1529
17203TIP3    H173100   5.468   3.859   0.414 -0.8548  1.0604 -0.5278
17203TIP3    H273101   5.401   3.725   0.389 -0.6677  0.7040  0.7839
17204TIP3   OH273102   4.938   3.539   0.378  0.1479  0.1172  0.0945
17204TIP3    H173103   4.980   3.551   0.293 -1.4370 -0.3329 -0.7904
17204TIP3    H273104   4.972   3.456   0.411 -0.2253 -0.3771 -0.7371
17205TIP3   OH273105   6.726   6.049  14.719 -0.0823  0.0638 -0.0568
17205TIP3    H173106   6.793   6.033  14.653  1.3639  1.1943  1.0656
17205TIP3    H273107   6.733   5.975  14.779  0.1709  0.1862  0.0659
17206TIP3   OH273108   2.425   1.872   4.505  0.1498 -0.0693  0.0872
17206TIP3    H173109   2.378   1.954   4.492  2.3432  1.6749  2.1696
17206TIP3    H273110   2.381   1.831   4.580 -1.3293 -1.2246 -1.3221
17207TIP3   OH273111   0.354   2.336  15.096 -0.8684  0.4157  0.0382
17207TIP3    H173112   0.404   2.398  15.149  0.7716 -0.9636  0.1828
17207TIP3    H273113   0.385   2.250  15.124 -3.3570 -0.5332  0.1246
17208TIP3   OH273114   1.776   4.781   4.859  1.3843  0.6678 -0.2204
17208TIP3    H173115   1.856   4.831   4.875  2.4184 -0.8719 -0.4315
17208TIP3    H273116   1.781   4.707   4.920 -1.0468  1.7305  1.4697
17209TIP3   OH273117   6.826   0.744  14.249 -0.7237  0.1337 -0.2356
17209TIP3    H173118   6.765   0.750  14.176 -0.5922  1.1368 -0.2648
17209TIP3    H273119   6.860   0.654  14.243 -1.5022 -0.1376 -0.7626
17210TIP3   OH273120   5.006   1.795   0.954 -0.1214  0.3657  0.6321
17210TIP3    H173121   4.918   1.806   0.916 -1.0590  0.8709  2.7730
17210TIP3    H273122   5.034   1.884   0.974  0.8012  0.1869  0.1602
17211TIP3   OH273123   4.343   0.867   0.516 -0.2124  0.0694 -0.2939
17211TIP3    H173124   4.332   0.941   0.456 -1.3554 -0.3188 -0.5975
17211TIP3    H273125   4.254   0.847   0.545  0.2757 -0.0161  1.2228
17212TIP3   OH273126   0.128   1.403   5.629 -0.1998 -0.2614 -0.1115
17212TIP3    H173127   0.091   1.372   5.546 -2.1377  0.9554  0.2504
17212TIP3    H273128   0.072   1.364   5.696  0.9394 -0.6788  0.6417
17213TIP3   OH273129   3.162   4.584   5.883  0.9540  0.1036  0.5010
17213TIP3    H173130   3.139   4.493   5.864  0.0245  0.4647 -0.2065
17213TIP3    H273131   3.126   4.600   5.970  1.9678 -0.4759  1.0430
17214TIP3   OH273132   4.920   1.594   3.177 -0.0877  0.0828 -0.5466
17214TIP3    H173133   4.862   1.529   3.217  0.5748  0.1749  0.6084
17214TIP3    H273134   4.883   1.609   3.090 -0.1749 -1.9486 -0.9033
17215TIP3   OH273135   5.682   4.227   2.868  0.3526 -0.0153  0.0954
17215TIP3    H173136   5.635   4.168   2.927 -0.7637  0.0441 -0.7067
17215TIP3    H273137   5.740   4.277   2.926 -2.5621  1.9151  1.6393
17216TIP3   OH273138   3.167   3.644   3.383  0.0279 -0.0357 -0.5560
17216TIP3    H173139   3.080   3.619   3.349 -1.0279  0.7807  1.4141
17216TIP3    H273140   3.164   3.620   3.475  1.3436  1.4142 -0.1101
17217TIP3   OH273141   5.997   3.246  16.265  0.2010  0.3274 -0.5992
17217TIP3    H173142   6.068   3.251  16.202  0.8774 -1.2006 -0.0095
17217TIP3    H273143   5.970   3.337  16.279  0.4945  0.7510 -2.5367
17218TIP3   OH273144   5.019   1.971  15.348  0.3076  0.0074  0.1100
17218TIP3    H173145   4.956   1.933  15.287  0.5120  0.4438 -0.3831
17218TIP3    H273146   4.999   2.065  15.347  0.6385  0.0811  0.3333
17219TIP3   OH273147   1.263   3.658  16.862 -0.2820 -0.1240 -0.4991
17219TIP3    H173148   1.351   3.670  16.827 -0.2376 -2.6602 -1.4499
17219TIP3    H273149   1.205   3.669  16.787 -0.7090  0.3495 -0.1129
17220TIP3   OH273150   5.469   6.864   5.527  0.4557 -0.6561 -0.1080
17220TIP3    H173151   5.526   6.874   5.451 -0.5430  1.2313 -0.6828
17220TIP3    H273152   5.443   6.772   5.527  2.3007 -1.2308 -0.6610
17221TIP3   OH273153   2.667   1.454  11.629 -0.1202 -0.5222  0.2305
17221TIP3    H173154   2.711   1.515  11.688 -0.6835 -0.2483  0.3790
17221TIP3    H273155   2.641   1.380  11.684  1.3619 -1.3316 -0.1257
17222TIP3   OH273156   4.471   0.726   1.263  0.5799  0.0055 -0.3081
17222TIP3    H173157   4.507   0.762   1.182  1.5264 -0.5116 -0.1287
17222TIP3    H273158   4.421   0.798   1.301  2.0990  1.0474 -0.1657
17223TIP3   OH273159   1.933   3.713  16.299  0.0317 -0.1579 -0.1974
17223TIP3    H173160   2.021   3.676  16.289  0.5161  0.4395  1.6035
17223TIP3    H273161   1.894   3.665  16.372  0.6173  2.6502  2.1148
17224TIP3   OH273162   6.044   6.008  12.038  0.4731  0.4111  0.6911
17224TIP3    H173163   6.131   6.042  12.017  0.6796  1.8329  3.4369
17224TIP3    H273164   6.054   5.966  12.123 -1.6099  1.1173  1.3557
17225TIP3   OH273165   1.995   5.213   6.612  0.1349  0.0600  0.3704
17225TIP3    H173166   2.037   5.277   6.670 -0.4400 -0.5947  1.5428
17225TIP3    H273167   2.018   5.242   6.524  2.3074  0.2461  0.9316
17226TIP3   OH273168   5.698   0.473   0.540 -0.1705 -0.2331 -0.8104
17226TIP3    H173169   5.769   0.535   0.557 -0.1717 -0.5713  0.5356
17226TIP3    H273170   5.701   0.413   0.615 -2.1927  0.0566 -0.4515
17227TIP3   OH273171   4.777   1.413  13.765 -0.2160  0.1878  0.4457
17227TIP3    H173172   4.823   1.493  13.791  0.9356  0.3540 -1.8734
17227TIP3    H273173   4.844   1.358  13.726 -1.5172 -0.6828 -0.6556
17228TIP3   OH273174   3.341   2.107  11.260  0.6761 -0.1398 -0.5760
17228TIP3    H173175   3.382   2.059  11.188  0.1555  0.2183 -1.1208
17228TIP3    H273176   3.400   2.095  11.334  2.3612  1.2930 -1.6117
17229TIP3   OH273177   2.417   6.251  11.912 -0.4198  0.3682  0.4585
17229TIP3    H173178   2.491   6.310  11.896  1.0223 -1.5079 -0.0595
17229TIP3    H273179   2.357   6.268  11.839  1.1892 -0.5783 -1.1701
17230TIP3   OH273180   4.769   3.530  13.689  0.1911  0.8149  0.2824
17230TIP3    H173181   4.769   3.444  13.731  3.7634 -0.7404 -2.3646
17230TIP3    H273182   4.816   3.587  13.750  0.3978  0.1150  0.7877
17231TIP3   OH273183   0.992   5.105   0.374 -0.0288  0.1326 -0.3606
17231TIP3    H173184   1.013   5.166   0.445 -0.1281 -0.4446  0.1700
17231TIP3    H273185   1.013   5.019   0.409 -1.2369 -0.2787 -0.5937
17232TIP3   OH273186   6.685   3.344  16.889  0.0877  0.4024  0.5067
17232TIP3    H173187   6.595   3.369  16.865  0.8983  0.7564 -2.6404
17232TIP3    H273188   6.674   3.280  16.958 -2.5572  1.0167  0.7813
17233TIP3   OH273189   1.464   3.065   2.644 -0.5774  0.4017 -0.0661
17233TIP3    H173190   1.413   3.066   2.564 -0.3892  0.0977 -0.1913
17233TIP3    H273191   1.529   2.995   2.631 -1.1444 -0.2943  0.7232
17234TIP3   OH273192   4.625   4.221  13.574 -0.0468  0.1859  0.2057
17234TIP3    H173193   4.534   4.249  13.573  0.0396  0.4639  0.0992
17234TIP3    H273194   4.648   4.211  13.482  0.0612  0.2151  0.2295
17235TIP3   OH273195   3.166   5.382  15.651  0.1689  0.4914  0.4216
17235TIP3    H173196   3.207   5.334  15.578 -1.0395 -0.0386  0.0707
17235TIP3    H273197   3.096   5.431  15.610 -1.6757 -1.1718  1.4246
17236TIP3   OH273198   6.360   0.688   0.579 -0.0494  0.0171  0.4824
17236TIP3    H173199   6.315   0.648   0.653  0.3394 -1.6861 -0.1689
17236TIP3    H273200   6.434   0.735   0.618  0.3530 -1.1507  1.1599
17237TIP3   OH273201   4.870   5.309   1.459  0.6392 -0.6292 -0.0088
17237TIP3    H173202   4.913   5.265   1.386 -1.0247 -1.2391 -0.6729
17237TIP3    H273203   4.823   5.240   1.505  0.1797  0.0275  0.5368
17238TIP3   OH273204   5.227   3.573   3.124  0.3660 -0.4320 -0.0759
17238TIP3    H173205   5.208   3.507   3.057  1.8299 -0.0922 -0.8687
17238TIP3    H273206   5.173   3.548   3.199  0.4777 -2.2083 -0.5443
17239TIP3   OH273207   3.847   2.038   2.393 -0.1229 -0.5305  0.3121
17239TIP3    H173208   3.938   2.064   2.380 -0.1088 -0.1962  1.0870
17239TIP3    H273209   3.849   1.942   2.384 -0.0297 -0.3933 -1.6115
17240TIP3   OH273210   2.601   6.223  14.241  0.2807 -0.2650 -0.0059
17240TIP3    H173211   2.546   6.193  14.169  0.9947  2.1224 -1.6429
17240TIP3    H273212   2.690   6.203  14.213  0.5116 -0.3303  0.7483
17241TIP3   OH273213   5.649   1.608  12.937  0.7854  0.1258 -0.4121
17241TIP3    H173214   5.635   1.683  12.880 -0.5810 -0.8847 -1.4514
17241TIP3    H273215   5.617   1.637  13.023  1.0929  1.0086 -0.5840
17242TIP3   OH273216   4.868   1.361   0.890 -0.4247 -0.5618  0.0735
17242TIP3    H173217   4.945   1.418   0.897  0.5939 -1.6081 -1.8665
17242TIP3    H273218   4.901   1.274   0.911 -0.5768 -1.3350 -2.6218
17243TIP3   OH273219   1.760   4.756  15.300 -0.4396 -0.1821  0.4004
17243TIP3    H173220   1.815   4.779  15.375 -3.3946 -0.1493  2.7593
17243TIP3    H273221   1.712   4.678  15.329 -1.1127 -0.6468 -1.7950
17244TIP3   OH273222   3.946   4.891  13.564 -0.3270  0.0906 -0.1676
17244TIP3    H173223   3.889   4.879  13.487 -0.1653  0.2312 -0.3108
17244TIP3    H273224   4.026   4.930  13.528 -0.7532  1.3979  0.2388
17245TIP3   OH273225   4.495   6.802  13.016  0.4135  0.1698  0.0944
17245TIP3    H173226   4.505   6.787  12.922 -1.6033  0.7502 -0.2677
17245TIP3    H273227   4.408   6.841  13.024  1.3527  1.9921  2.0265
17246TIP3   OH273228   4.904   0.958  11.154 -0.2766  0.0343  0.2195
17246TIP3    H173229   4.998   0.938  11.157 -0.4008 -0.5015  0.7972
17246TIP3    H273230   4.890   0.993  11.066  0.8418  2.1646  0.8281
17247TIP3   OH273231   1.541   0.006  12.657 -0.1087 -0.0579 -0.1766
17247TIP3    H173232   1.480  -0.011  12.728 -0.3294  0.8768 -0.1342
17247TIP3    H273233   1.627   0.000  12.698 -0.2226  0.1556  0.0939
17248TIP3   OH273234   4.897   3.242  15.266  0.8369 -0.2424  0.3039
17248TIP3    H173235   4.984   3.277  15.244  0.3922 -0.1458 -1.5062
17248TIP3    H273236   4.839   3.283  15.202 -0.4946 -0.6226  1.2308
17249TIP3   OH273237   6.500   1.874   4.174 -0.0216  0.2862  0.0592
17249TIP3    H173238   6.588   1.902   4.146  0.7867 -1.4596  0.7023
17249TIP3    H273239   6.514   1.834   4.260 -1.2689 -0.9137 -0.2633
17250TIP3   OH273240   3.159   4.814  13.583 -0.0021  0.5231 -0.6169
17250TIP3    H173241   3.137   4.845  13.671 -0.1603  0.7401 -0.7311
17250TIP3    H273242   3.253   4.829  13.575 -0.3402  2.6009 -1.2936
17251TIP3   OH273243   2.081   6.590  16.182  0.3117  0.2206 -0.2433
17251TIP3    H173244   2.103   6.541  16.103  0.6948  0.6996 -0.4354
17251TIP3    H273245   2.037   6.669  16.150  0.7546  0.5728 -0.0043
17252TIP3   OH273246   4.840   3.180   0.290 -0.0893 -0.2934 -0.4316
17252TIP3    H173247   4.918   3.126   0.281 -0.6656 -1.0102 -1.2359
17252TIP3    H273248   4.842   3.239   0.215 -0.6636 -0.7707 -0.8292
17253TIP3   OH273249   6.541   1.007  17.034 -0.0577 -0.4070 -0.0516
17253TIP3    H173250   6.550   1.071  17.104 -0.5277 -0.6661  0.2504
17253TIP3    H273251   6.542   0.922  17.079  2.1080 -0.7249 -0.5698
17254TIP3   OH273252   2.923   2.064  15.035  0.4179  0.1202  0.5593
17254TIP3    H173253   3.007   2.094  15.070  0.9363 -2.5506  1.8874
17254TIP3    H273254   2.920   2.098  14.946  3.6398 -0.8893 -0.0760
17255TIP3   OH273255   2.980   4.022   3.299 -0.1783  0.4205  0.3324
17255TIP3    H173256   2.962   4.100   3.352  1.1162 -0.1786  1.7377
17255TIP3    H273257   2.953   3.949   3.354 -1.8303 -0.1611 -1.1649
17256TIP3   OH273258   3.472   1.424   5.962 -0.5475 -0.4063 -0.3476
17256TIP3    H173259   3.488   1.342   6.009  0.3460 -0.0899 -0.0846
17256TIP3    H273260   3.386   1.411   5.921 -0.9000 -1.0721  0.5434
17257TIP3   OH273261   0.657   1.957   3.528  0.0725  0.4374  0.3107
17257TIP3    H173262   0.582   1.995   3.482  0.6386  0.6868 -0.4252
17257TIP3    H273263   0.618   1.909   3.601 -0.6941  2.2541  1.1738
17258TIP3   OH273264   0.844   0.040  12.113 -0.3958 -0.2058 -0.7313
17258TIP3    H173265   0.924   0.090  12.123  0.0902 -1.1901  0.4751
17258TIP3    H273266   0.865  -0.047  12.146 -2.4597  0.0156  1.4895
17259TIP3   OH273267   4.447   1.080  15.153  0.5996  0.0275 -0.2710
17259TIP3    H173268   4.417   1.171  15.155  0.4411 -0.0031 -0.9956
17259TIP3    H273269   4.374   1.031  15.115  0.2591 -0.5870  1.1040
17260TIP3   OH273270   6.548   5.297  12.270  0.0077  0.0503 -0.4984
17260TIP3    H173271   6.457   5.274  12.289 -0.0083 -0.4606 -1.1407
17260TIP3    H273272   6.543   5.356  12.195  0.2543 -0.7353 -1.1412
17261TIP3   OH273273   6.635   0.512  10.142 -0.0075 -0.6162 -0.1506
17261TIP3    H173274   6.671   0.437  10.095 -0.4556 -2.1622  1.7947
17261TIP3    H273275   6.691   0.521  10.219 -1.3567 -0.4998  0.8626
17262TIP3   OH273276   5.592   3.868  14.881  0.1100  0.0400  0.4182
17262TIP3    H173277   5.653   3.930  14.841 -0.3444 -0.2959 -0.8525
17262TIP3    H273278   5.522   3.858  14.816 -0.0958 -1.3939  0.8171
17263TIP3   OH273279   0.386   1.403   6.259  0.0427  0.4627 -0.0151
17263TIP3    H173280   0.443   1.370   6.329  0.2467 -1.8233 -1.1652
17263TIP3    H273281   0.347   1.325   6.220 -0.8179  1.7125 -1.8452
17264TIP3   OH273282   2.636   5.822   0.767  1.1428 -0.0713 -0.2014
17264TIP3    H173283   2.708   5.784   0.716  1.0244 -0.4355 -0.1047
17264TIP3    H273284   2.582   5.746   0.791  0.8020  0.1832 -0.1607
17265TIP3   OH273285   3.493   4.459   3.620 -0.0479 -0.2135  0.1957
17265TIP3    H173286   3.544   4.529   3.580 -2.1112  1.4027  0.2123
17265TIP3    H273287   3.512   4.465   3.713 -0.0957  0.2309  0.1791
17266TIP3   OH273288   5.039   5.672   2.555 -0.4054 -0.2180 -0.0445
17266TIP3    H173289   5.059   5.752   2.603 -0.1700 -0.1195 -0.3040
17266TIP3    H273290   4.957   5.692   2.508 -0.8791 -0.4675  0.6605
17267TIP3   OH273291   3.996   2.846  12.616  0.0952 -0.4835 -0.4915
17267TIP3    H173292   4.069   2.785  12.603 -0.4581 -0.8627 -1.9224
17267TIP3    H273293   4.027   2.929  12.581 -0.5831 -0.9524 -2.2802
17268TIP3   OH273294   4.024   5.019   0.915  0.3735  0.4064 -0.3185
17268TIP3    H173295   3.970   5.097   0.909 -0.4653 -0.1627 -0.3276
17268TIP3    H273296   3.975   4.960   0.973 -0.7516 -1.4536 -2.9360
17269TIP3   OH273297   2.320   3.700   0.972  0.1735  0.3176 -0.0784
17269TIP3    H173298   2.324   3.719   1.066  0.5543  0.4661 -0.1214
17269TIP3    H273299   2.393   3.640   0.956 -2.2240 -2.9655  0.4285
17270TIP3   OH273300   3.011   5.477  13.794 -0.0656  0.1027 -0.6702
17270TIP3    H173301   3.092   5.517  13.764 -0.7178  1.8262 -0.2404
17270TIP3    H273302   3.022   5.471  13.889 -0.5120  0.5271 -0.5903
17271TIP3   OH273303   1.162   4.432   4.551 -0.4279  0.2515  0.2680
17271TIP3    H173304   1.221   4.382   4.494 -0.2391 -0.7645  1.3127
17271TIP3    H273305   1.217   4.464   4.622 -1.2494 -1.7475  1.9289
17272TIP3   OH273306   4.828   3.394   1.102 -0.1357  0.3867  0.1668
17272TIP3    H173307   4.910   3.429   1.067  0.0762 -1.0856 -0.9157
17272TIP3    H273308   4.856   3.334   1.172 -0.0644 -1.8965 -1.7162
17273TIP3   OH273309   5.497   4.875  10.751  0.3412  0.1585 -0.1009
17273TIP3    H173310   5.551   4.926  10.691  0.0603  0.7937  0.1839
17273TIP3    H273311   5.508   4.784  10.722 -0.6171  0.5317 -1.7989
17274TIP3   OH273312   4.420   2.516   5.912  0.3283 -0.3874  0.6180
17274TIP3    H173313   4.383   2.481   5.993 -0.2110  0.6238  0.8232
17274TIP3    H273314   4.351   2.570   5.875  0.1259 -1.7846 -1.1738
17275TIP3   OH273315   4.246   4.936   0.738 -0.0899 -0.0944 -0.1853
17275TIP3    H173316   4.169   4.930   0.681  0.3279  0.8263 -0.8829
17275TIP3    H273317   4.225   5.007   0.799  1.2717  2.1899 -2.1908
17276TIP3   OH273318   0.915   5.505   3.526  0.8227 -0.0685 -0.0809
17276TIP3    H173319   0.952   5.418   3.514  0.9887  0.1050 -0.8687
17276TIP3    H273320   0.922   5.547   3.440 -0.9386  0.0714 -0.2013
17277TIP3   OH273321   3.768   5.389   1.392 -0.1567 -0.1455 -0.4101
17277TIP3    H173322   3.841   5.437   1.353 -0.4808 -0.1395 -1.0293
17277TIP3    H273323   3.768   5.415   1.484  1.4792 -1.2154 -0.0652
17278TIP3   OH273324   5.441   0.385   5.705  0.0123  0.7138 -0.3805
17278TIP3    H173325   5.497   0.321   5.663 -2.4281 -1.1359 -1.0596
17278TIP3    H273326   5.489   0.468   5.699  3.3760 -1.0075  0.7483
17279TIP3   OH273327   3.784   4.225   5.358 -0.7690 -0.2201  0.3438
17279TIP3    H173328   3.781   4.309   5.312  0.5700 -0.8975 -1.0923
17279TIP3    H273329   3.854   4.176   5.314 -2.5085 -2.6813  0.1163
17280TIP3   OH273330   5.550   6.517   0.277  0.0402 -0.4949  0.2531
17280TIP3    H173331   5.479   6.540   0.336 -0.6783 -2.1924  0.0815
17280TIP3    H273332   5.624   6.571   0.306 -0.7588 -0.1161  1.6398
17281TIP3   OH273333   6.743   6.119   0.491  0.0584  0.6512  0.3348
17281TIP3    H173334   6.705   6.183   0.432  1.4188  0.8672 -0.3501
17281TIP3    H273335   6.826   6.094   0.450 -0.4770 -1.6502  0.4952
17282TIP3   OH273336   2.384   5.899   5.405  0.6979 -0.0128  0.2720
17282TIP3    H173337   2.395   5.865   5.315  2.7874 -0.9150  0.7940
17282TIP3    H273338   2.474   5.911   5.436  0.0275 -0.4646  2.5251
17283TIP3   OH273339   1.277   0.030   0.124 -0.0196  0.3053 -0.2464
17283TIP3    H173340   1.185   0.019   0.148 -0.0942  0.0482 -0.6373
17283TIP3    H273341   1.301  -0.053   0.083  0.8586 -0.2444  1.3207
17284TIP3   OH273342   4.733   3.158  15.988  0.0025  0.2376 -0.1295
17284TIP3    H173343   4.819   3.169  15.947  1.0236 -0.5551  1.6681
17284TIP3    H273344   4.738   3.210  16.069 -0.7825 -0.7175  0.5539
17285TIP3   OH273345   0.495   1.691   0.970 -0.4682  0.5569  0.7610
17285TIP3    H173346   0.457   1.746   0.902 -0.7103 -1.4645 -0.8312
17285TIP3    H273347   0.588   1.685   0.947 -0.4957  0.1128  0.7425
17286TIP3   OH273348   1.485   1.083  16.711 -0.0453 -0.1577  0.3566
17286TIP3    H173349   1.487   1.135  16.631  1.1037 -0.8975 -0.1137
17286TIP3    H273350   1.427   1.009  16.690 -1.6247  0.8490  1.0015
17287TIP3   OH273351   0.377   0.344   2.229 -0.4899  0.3958  0.2287
17287TIP3    H173352   0.441   0.385   2.171 -0.7761  1.0577  0.3627
17287TIP3    H273353   0.292   0.374   2.196 -0.8707 -1.7652 -0.9510
17288TIP3   OH273354   5.349   4.175   5.201 -0.0871 -0.4434 -0.0893
17288TIP3    H173355   5.263   4.197   5.164 -0.1581  0.6380  0.6619
17288TIP3    H273356   5.348   4.080   5.210 -1.4625 -0.3984  0.4942
17289TIP3   OH273357   3.322   3.853   3.276  0.9099  0.0671  0.4361
17289TIP3    H173358   3.272   3.802   3.340 -1.5335 -1.0114 -2.1107
17289TIP3    H273359   3.346   3.932   3.322  0.8605 -1.4133  3.2071
17290TIP3   OH273360   2.718   4.842   6.029  0.2729 -0.4469  0.4563
17290TIP3    H173361   2.732   4.750   6.052 -3.5215 -0.9544  1.5138
17290TIP3    H273362   2.732   4.889   6.112 -3.1259 -0.9275  1.4573
17291TIP3   OH273363   6.802   6.597  11.736 -0.2116  0.1835  0.5247
17291TIP3    H173364   6.836   6.629  11.652 -0.0432  2.1842  1.3050
17291TIP3    H273365   6.819   6.503  11.734  3.6564  0.7602  0.0816
17292TIP3   OH273366   3.388   6.263  13.702 -0.3258 -0.3887 -0.0988
17292TIP3    H173367   3.358   6.295  13.617 -1.9755 -0.0029  0.6015
17292TIP3    H273368   3.457   6.324  13.728 -2.2235  1.6457  0.4141
17293TIP3   OH273369   1.708   2.561   2.187 -0.1039  0.0034 -0.4616
17293TIP3    H173370   1.636   2.558   2.123 -0.5494 -0.2018  0.0425
17293TIP3    H273371   1.751   2.476   2.178  1.0889  0.6997 -1.8869
17294TIP3   OH273372   4.578   0.891  15.822 -0.2807  0.1212 -0.3692
17294TIP3    H173373   4.565   0.827  15.751  0.5230 -1.5633  0.9212
17294TIP3    H273374   4.667   0.923  15.810 -0.5637  0.7681 -0.8094
17295TIP3   OH273375   1.391   4.235  14.673 -0.1208 -0.1238  0.2982
17295TIP3    H173376   1.322   4.263  14.733  1.5151  0.7712  1.8527
17295TIP3    H273377   1.466   4.289  14.696  0.7795 -0.2093 -2.1698
17296TIP3   OH273378   2.546   5.168   5.771 -0.7327 -0.1291  0.4607
17296TIP3    H173379   2.498   5.148   5.690 -1.7669 -2.6171  1.5632
17296TIP3    H273380   2.554   5.263   5.772 -4.3420  0.3538 -0.5880
17297TIP3   OH273381   4.360   3.967  12.268 -0.2629  0.6506  0.1502
17297TIP3    H173382   4.334   3.993  12.180  2.1894 -0.0252 -0.8590
17297TIP3    H273383   4.290   3.908  12.297 -0.8798  0.4873 -1.5477
17298TIP3   OH273384   5.772   2.786   5.196  0.5714 -0.3790  0.0189
17298TIP3    H173385   5.853   2.835   5.203  0.5771 -0.6377  2.7468
17298TIP3    H273386   5.704   2.853   5.191  0.8477 -0.1601 -1.0245
17299TIP3   OH273387   4.952   2.281   1.559 -0.4569  0.0597  0.1192
17299TIP3    H173388   4.966   2.375   1.565  0.1638  0.1306 -1.7461
17299TIP3    H273389   5.039   2.242   1.571 -0.1263 -0.0485 -2.1237
17300TIP3   OH273390   6.489   2.383  16.861 -0.3529 -0.1865  0.3037
17300TIP3    H173391   6.582   2.387  16.884 -1.1789  3.1843  3.9985
17300TIP3    H273392   6.484   2.428  16.776  1.3247 -0.0363  0.2393
17301TIP3   OH273393   6.721   0.598  12.143  0.1738 -0.6725  0.2757
17301TIP3    H173394   6.729   0.503  12.136 -1.6333 -0.8788  0.5250
17301TIP3    H273395   6.646   0.620  12.088 -0.4369  0.4003  1.4853
17302TIP3   OH273396   3.480   1.677  14.745 -0.6465 -0.9878 -0.0199
17302TIP3    H173397   3.470   1.751  14.685 -2.8459 -0.7557  0.5797
17302TIP3    H273398   3.567   1.642  14.725 -0.2734  0.6764 -1.5199
17303TIP3   OH273399   0.447   2.479   0.673  0.6017  0.1394  0.2179
17303TIP3    H173400   0.513   2.411   0.689  3.3488  2.4379 -0.4843
17303TIP3    H273401   0.456   2.539   0.746  0.7039  1.4817 -0.8503
17304TIP3   OH273402   1.340   0.861  16.617  0.1824 -0.1887 -0.1621
17304TIP3    H173403   1.263   0.878  16.563 -0.6561 -2.9141  0.0228
17304TIP3    H273404   1.318   0.782  16.665  1.3103  1.4512  3.4272
17305TIP3   OH273405   1.936   5.072  16.771  0.4001  0.3612 -0.0028
17305TIP3    H173406   1.943   4.989  16.818  0.6999  0.7496  0.6595
17305TIP3    H273407   2.019   5.117  16.788  0.6709  0.3605 -1.2232
17306TIP3   OH273408   6.448   3.204   4.800 -0.7026  0.2675 -0.3325
17306TIP3    H173409   6.445   3.177   4.892 -0.5061 -0.1570 -0.4487
17306TIP3    H273410   6.489   3.130   4.755  0.0380  0.8500 -0.6268
17307TIP3   OH273411   4.585   6.787  10.960  0.1397  0.2323 -0.4045
17307TIP3    H173412   4.518   6.718  10.962  1.8189 -1.6009 -2.1271
17307TIP3    H273413   4.537   6.865  10.934 -1.7502 -0.3913  0.9914
17308TIP3   OH273414   3.755   2.982   5.247  0.2786  0.0283  0.0842
17308TIP3    H173415   3.793   3.047   5.306  0.0948 -0.3906  0.6816
17308TIP3    H273416   3.815   2.907   5.252  0.0424 -0.1641  0.0615
17309TIP3   OH273417   3.055   4.178   1.036  0.4542 -0.0503 -0.2130
17309TIP3    H173418   2.991   4.114   1.066 -0.3986  0.7022 -0.3747
17309TIP3    H273419   3.116   4.188   1.109 -0.4042  0.2346  0.4741
17310TIP3   OH273420   4.982   5.287   2.739 -0.1496 -0.0456 -0.1173
17310TIP3    H173421   5.036   5.272   2.661  0.4609  2.5852 -0.2994
17310TIP3    H273422   4.988   5.381   2.754 -1.5026 -0.2648  2.2378
17311TIP3   OH273423   4.231   5.570   1.396  0.1773  0.1700 -0.8681
17311TIP3    H173424   4.144   5.610   1.387  0.3636  0.5819 -0.8722
17311TIP3    H273425   4.218   5.500   1.460 -0.2986 -0.2011 -1.3626
17312TIP3   OH273426   5.720   5.506  11.974 -0.0868 -0.0756  0.3173
17312TIP3    H173427   5.660   5.451  12.023 -0.6925 -0.4600 -0.8139
17312TIP3    H273428   5.708   5.479  11.883  1.3814  0.2355 -0.0054
17313TIP3   OH273429   1.007   2.443  12.377 -0.1772 -0.7532 -0.8349
17313TIP3    H173430   0.970   2.354  12.382  0.7468 -1.1507 -0.8872
17313TIP3    H273431   1.016   2.470  12.468  0.6386 -1.1889 -0.7773
17314TIP3   OH273432   1.859   4.974   4.190 -0.1976 -0.2711  0.9148
17314TIP3    H173433   1.942   4.998   4.232  0.3274 -0.7468  0.1828
17314TIP3    H273434   1.884   4.949   4.101 -0.9754 -1.5304  1.0240
17315TIP3   OH273435   6.267   4.618   3.434 -0.6856  0.1037  0.6949
17315TIP3    H173436   6.183   4.580   3.462 -0.7914  1.0502  1.7334
17315TIP3    H273437   6.299   4.558   3.367 -1.7567 -0.7732  0.9343
17316TIP3   OH273438   4.135   6.366  10.754  1.0381 -0.5722 -0.5652
17316TIP3    H173439   4.208   6.334  10.806  0.5064 -1.6091 -0.4262
17316TIP3    H273440   4.151   6.460  10.745  1.5094 -0.4961  0.8497
17317TIP3   OH273441   3.429   1.827  14.003 -0.1808 -0.1209  0.3518
17317TIP3    H173442   3.450   1.891  13.935  2.3749 -1.2898 -0.0563
17317TIP3    H273443   3.411   1.747  13.955 -1.2464 -0.2621  0.9637
17318TIP3   OH273444   2.240   5.575  13.433 -0.1444  0.2976  0.1150
17318TIP3    H173445   2.146   5.579  13.416  0.0307  0.9233 -0.8141
17318TIP3    H273446   2.269   5.494  13.391  0.1995  1.5869 -2.3137
17319TIP3   OH273447   5.765   2.371   3.473  0.0033 -0.1775  0.4019
17319TIP3    H173448   5.791   2.383   3.564  0.6301 -1.0580  0.3552
17319TIP3    H273449   5.794   2.282   3.452  3.1263  1.1577 -1.7011
17320TIP3   OH273450   1.448   3.308  12.050  0.3116  0.3447  0.2131
17320TIP3    H173451   1.525   3.363  12.038  0.4856  0.2489  0.8315
17320TIP3    H273452   1.442   3.256  11.969  0.1904  1.1997 -0.3341
17321TIP3   OH273453   1.553   5.085   3.680  0.1107  0.1386 -0.4598
17321TIP3    H173454   1.559   5.042   3.595  1.3282  0.4393 -0.5395
17321TIP3    H273455   1.628   5.051   3.729  0.7424  1.6723 -0.3083
17322TIP3   OH273456   6.371   0.184  10.589  0.1230 -0.9812  0.3373
17322TIP3    H173457   6.288   0.140  10.568 -0.3701  0.0385  0.0993
17322TIP3    H273458   6.346   0.272  10.615  1.2198 -0.2055 -1.0840
17323TIP3   OH273459   0.641   0.785  12.378  0.0688 -0.4327 -0.0386
17323TIP3    H173460   0.673   0.875  12.386 -0.5545 -0.2071 -0.0736
17323TIP3    H273461   0.553   0.787  12.414  1.2882 -1.7777  3.5038
17324TIP3   OH273462   6.127   1.839   3.636 -0.1346  0.6510 -0.3942
17324TIP3    H173463   6.052   1.818   3.692 -1.2599 -0.6879 -2.2740
17324TIP3    H273464   6.204   1.817   3.690 -1.1519 -0.2540  0.7515
17325TIP3   OH273465   1.455   1.003  11.458  0.2045 -0.5052 -0.2546
17325TIP3    H173466   1.418   1.092  11.456  0.0472 -0.5598  0.1314
17325TIP3    H273467   1.387   0.949  11.418  0.7347 -0.3063 -1.4786
17326TIP3   OH273468   1.370   6.557   2.172  0.1389 -0.5024  0.2559
17326TIP3    H173469   1.365   6.462   2.168  0.3960 -0.5037 -0.1274
17326TIP3    H273470   1.279   6.586   2.178 -0.1280 -0.6729 -2.0734
17327TIP3   OH273471   1.793   4.133   0.979 -0.4050  0.3470 -0.5933
17327TIP3    H173472   1.814   4.119   0.887  0.1750  0.5998 -0.5062
17327TIP3    H273473   1.782   4.228   0.987  1.7157  0.6072  0.0068
17328TIP3   OH273474   1.909   0.073  13.518  0.3381  0.1020  0.3070
17328TIP3    H173475   1.954  -0.011  13.505 -2.4217 -1.2634 -1.4127
17328TIP3    H273476   1.845   0.055  13.587 -1.2363  0.2919 -1.0404
17329TIP3   OH273477   1.643   5.037   3.060 -0.0409  0.7327 -0.0951
17329TIP3    H173478   1.673   4.947   3.065 -1.5508  0.2557  1.7427
17329TIP3    H273479   1.667   5.075   3.145  1.6816  2.4906 -1.2886
17330TIP3   OH273480   3.454   1.120   5.830 -0.0783  0.2044  0.0576
17330TIP3    H173481   3.535   1.074   5.808  0.1266 -0.1170  1.4176
17330TIP3    H273482   3.433   1.170   5.751  0.8011 -0.6184 -0.7254
17331TIP3   OH273483   4.438   0.256  10.210  0.7255 -0.5081  0.2092
17331TIP3    H173484   4.395   0.272  10.126  0.7497  0.4439  0.3648
17331TIP3    H273485   4.371   0.276  10.276  0.7943 -0.9701  0.4229
17332TIP3   OH273486   0.999   0.694  13.654  0.5364  0.2482 -0.2729
17332TIP3    H173487   0.991   0.748  13.732  2.4132  0.0054  0.1472
17332TIP3    H273488   1.040   0.752  13.590 -0.8021  0.3853 -1.0383
17333TIP3   OH273489   2.611   5.917   2.489  0.1105 -0.4170 -0.5564
17333TIP3    H173490   2.576   5.829   2.504 -0.1635  0.0208  1.8115
17333TIP3    H273491   2.685   5.903   2.430  0.9567 -2.4803  0.8430
17334TIP3   OH273492   3.750   5.314  11.470  0.5941 -0.3357 -0.1194
17334TIP3    H173493   3.807   5.346  11.540  1.5333 -0.7945 -0.6576
17334TIP3    H273494   3.771   5.369  11.395 -0.8334  0.5452  0.0946
17335TIP3   OH273495   2.369   3.570   5.843 -0.2563 -0.2683 -0.2327
17335TIP3    H173496   2.339   3.505   5.907  1.1317 -0.1522  0.5731
17335TIP3    H273497   2.464   3.572   5.853 -0.1873  1.2061 -0.8985
17336TIP3   OH273498   3.821   6.215   4.951  0.1574  0.0473  0.5673
17336TIP3    H173499   3.910   6.189   4.973 -0.6129 -1.6772  1.9372
17336TIP3    H273500   3.769   6.191   5.028 -1.7515 -0.6078 -0.8426
17337TIP3   OH273501   4.547   3.961  14.437  0.3047  0.3544 -0.1591
17337TIP3    H173502   4.527   4.018  14.363  2.1537  0.6550 -0.4874
17337TIP3    H273503   4.483   3.985  14.504 -0.4381  1.1510 -1.1279
17338TIP3   OH273504   2.923   4.011  11.372 -0.4573 -0.0687 -0.5137
17338TIP3    H173505   2.907   3.919  11.351 -0.0976  0.2753 -2.4814
17338TIP3    H273506   2.867   4.028  11.448 -1.5868 -1.5500 -0.9600
17339TIP3   OH273507   6.169   2.446   6.111 -0.0325 -0.2042 -0.4922
17339TIP3    H173508   6.225   2.497   6.169 -0.5877  0.6196 -0.6572
17339TIP3    H273509   6.096   2.419   6.166 -1.5058  2.1167 -1.1483
17340TIP3   OH273510   1.181   2.790   2.618  0.0314 -0.1921  0.6708
17340TIP3    H173511   1.140   2.875   2.629 -0.5307 -0.3919  0.2015
17340TIP3    H273512   1.235   2.778   2.696  0.3295  0.7084  0.6079
17341TIP3   OH273513   2.888   5.968  12.457 -0.2985  0.0933  0.0499
17341TIP3    H173514   2.873   5.901  12.524  0.5003 -0.6182 -0.4579
17341TIP3    H273515   2.919   6.044  12.506 -1.1616  0.0855  0.6334
17342TIP3   OH273516   6.736   0.988   0.466 -0.3260 -0.4035  0.0695
17342TIP3    H173517   6.759   1.057   0.404 -0.2719 -1.7115 -1.4247
17342TIP3    H273518   6.773   0.908   0.429  1.0263 -1.0395  2.5775
17343TIP3   OH273519   1.009   0.708   3.963  0.2872 -0.1776  0.2115
17343TIP3    H173520   0.982   0.774   3.898  1.4715  1.2491  1.1115
17343TIP3    H273521   1.067   0.650   3.914  0.4120  0.3225 -0.2493
17344TIP3   OH273522   0.610   3.975  14.626  1.1719  0.6810 -0.4501
17344TIP3    H173523   0.529   3.993  14.578  2.1810 -0.1341 -2.6037
17344TIP3    H273524   0.658   3.913  14.570  2.5530 -0.1533  1.5443
17345TIP3   OH273525   4.371   2.595   4.331  0.2222 -0.3427  0.4931
17345TIP3    H173526   4.359   2.500   4.336 -0.5961 -0.2112  1.2470
17345TIP3    H273527   4.284   2.631   4.348  1.1201  0.6073  3.9021
17346TIP3   OH273528   4.660   6.378   0.936  0.1489 -0.2170 -0.2642
17346TIP3    H173529   4.634   6.339   1.019 -0.5178  2.3534  0.8224
17346TIP3    H273530   4.670   6.303   0.877  0.9774 -2.1736  2.1609
17347TIP3   OH273531   6.577   6.481  13.494  0.3754 -0.2236 -0.6671
17347TIP3    H173532   6.558   6.561  13.444 -0.2792  0.9042  1.2791
17347TIP3    H273533   6.538   6.496  13.579 -0.1592 -2.8546 -0.3590
17348TIP3   OH273534   0.396   1.481   2.720  0.4933  0.1130  0.0887
17348TIP3    H173535   0.328   1.515   2.778  1.3613  0.6286  0.8195
17348TIP3    H273536   0.420   1.397   2.757  0.0125 -0.2313 -0.3716
17349TIP3   OH273537   4.515   6.558   2.144  0.2834 -0.1331  0.3327
17349TIP3    H173538   4.429   6.566   2.103  0.1608  0.0868  0.6293
17349TIP3    H273539   4.535   6.464   2.141  0.5081 -0.0614 -0.7011
17350TIP3   OH273540   0.452   2.917   6.110  0.5558 -0.2072 -0.3310
17350TIP3    H173541   0.467   2.836   6.061  0.0788 -0.0788 -0.6932
17350TIP3    H273542   0.514   2.980   6.072  1.7972 -0.7136  0.7664
17351TIP3   OH273543   4.771   1.291  14.079 -0.1859  0.5661 -0.2978
17351TIP3    H173544   4.803   1.375  14.046 -0.1432  1.0112  0.8293
17351TIP3    H273545   4.844   1.256  14.130 -0.2528 -0.1080 -0.6467
17352TIP3   OH273546   5.423   0.347  14.329 -0.1396 -0.1458 -0.1214
17352TIP3    H173547   5.331   0.325  14.345  0.0163 -0.4031  0.4685
17352TIP3    H273548   5.449   0.291  14.256 -0.0883 -1.0616  0.5770
17353TIP3   OH273549   3.815   4.981  16.854  0.3394 -0.0094  0.7615
17353TIP3    H173550   3.806   5.075  16.862 -0.1137 -0.1516  2.2563
17353TIP3    H273551   3.729   4.946  16.878 -0.0937 -0.7558 -1.6196
17354TIP3   OH273552   1.133   1.236  12.065  0.5421 -0.0349  0.3564
17354TIP3    H173553   1.121   1.327  12.035  0.5200 -0.2550 -0.3306
17354TIP3    H273554   1.044   1.204  12.080  0.5638  0.1521  0.9097
17355TIP3   OH273555   1.830   5.717  14.016  0.1439  0.3276  0.2470
17355TIP3    H173556   1.746   5.763  14.007  0.1394  0.4936  1.0622
17355TIP3    H273557   1.851   5.688  13.927 -0.3700  1.0029 -0.1068
17356TIP3   OH273558   6.425   6.869   5.289 -0.7669  0.4468 -0.1061
17356TIP3    H173559   6.402   6.957   5.259 -0.6299  0.3676 -0.4452
17356TIP3    H273560   6.505   6.882   5.340  0.1333  0.3195 -1.4393
17357TIP3   OH273561   0.206   5.964   0.513  0.2512 -0.5022  0.7001
17357TIP3    H173562   0.219   5.934   0.424  1.3895  2.0263 -0.0602
17357TIP3    H273563   0.287   6.009   0.536 -1.0504  1.3501  1.9526
17358TIP3   OH273564   0.142   6.773  13.707  0.4049 -0.3273 -0.2298
17358TIP3    H173565   0.159   6.699  13.767  1.3101  0.1095  0.0844
17358TIP3    H273566   0.075   6.824  13.751  0.4514 -0.4639  0.0043
17359TIP3   OH273567   1.671   2.983  16.355  0.5260  0.0874 -0.2378
17359TIP3    H173568   1.710   3.002  16.270  0.3879  1.6834  0.0293
17359TIP3    H273569   1.745   2.982  16.416  0.4812  0.1662 -0.1821
17360TIP3   OH273570   6.364   2.220  17.025  0.0173 -0.0737  0.0185
17360TIP3    H173571   6.417   2.274  16.967 -0.3890  0.6052  0.2645
17360TIP3    H273572   6.398   2.238  17.113 -2.1182  2.2630  0.4908
17361TIP3   OH273573   3.789   0.150   3.677 -0.1413 -0.2619 -0.0409
17361TIP3    H173574   3.803   0.232   3.630 -2.6164  0.0499 -0.4057
17361TIP3    H273575   3.738   0.097   3.616  1.2826 -2.0336  0.2535
17362TIP3   OH273576   0.763   5.278  12.634  0.0774 -0.6960  0.4202
17362TIP3    H173577   0.818   5.355  12.621  0.2984 -0.8596  0.3978
17362TIP3    H273578   0.673   5.313  12.633  0.1117 -0.6009 -0.8290
17363TIP3   OH273579   0.984   2.315  11.150 -0.4671 -0.4783 -0.5032
17363TIP3    H173580   0.994   2.275  11.236  1.0432  1.4060  0.2843
17363TIP3    H273581   1.067   2.296  11.105 -0.0174  1.0510 -0.3768
17364TIP3   OH273582   1.086   3.194  13.519  0.2669 -0.2047  0.1137
17364TIP3    H173583   1.030   3.116  13.517 -0.2415  0.1299  0.9273
17364TIP3    H273584   1.026   3.267  13.500  0.8470 -0.0530 -1.2500
17365TIP3   OH273585   1.108   4.408  16.108 -0.0463  0.0011 -0.0037
17365TIP3    H173586   1.074   4.390  16.020 -2.5350 -1.1598  1.0934
17365TIP3    H273587   1.187   4.355  16.114 -0.6328 -1.0466 -1.0886
17366TIP3   OH273588   6.084   1.228  11.684  0.6263  0.2383 -0.2718
17366TIP3    H173589   6.008   1.251  11.631  1.6821  0.9149 -1.5600
17366TIP3    H273590   6.133   1.310  11.693  1.4909 -0.2943  0.0407
17367TIP3   OH273591   0.773   3.675  15.424  0.0856 -0.0692  0.2663
17367TIP3    H173592   0.857   3.650  15.385 -1.1777 -1.3054 -1.8298
17367TIP3    H273593   0.729   3.592  15.441 -0.9909  0.5811  0.7348
17368TIP3   OH273594   0.435   2.341   0.376 -0.4217 -0.7974  0.4368
17368TIP3    H173595   0.355   2.322   0.328  0.8716 -1.7030 -1.5192
17368TIP3    H273596   0.434   2.437   0.387 -1.0478 -0.6234 -0.9380
17369TIP3   OH273597   2.500   4.117  12.152 -0.3053  0.5586 -0.4266
17369TIP3    H173598   2.560   4.044  12.139 -0.6607  0.1354  0.2281
17369TIP3    H273599   2.537   4.166  12.226 -1.0461 -0.0218  0.3461
17370TIP3   OH273600   4.452   6.629   4.907  0.0663  0.1069  0.0413
17370TIP3    H173601   4.443   6.577   4.827  4.9238  0.6085 -1.1178
17370TIP3    H273602   4.457   6.719   4.875  0.2881  0.4847  1.1284
17371TIP3   OH273603   1.045   4.118  14.017  0.2585  0.1559  0.6305
17371TIP3    H173604   1.117   4.054  14.018 -1.8065 -2.3196  0.8322
17371TIP3    H273605   1.047   4.157  14.104  0.5802 -0.8312  1.0856
17372TIP3   OH273606   3.756   0.267  15.039 -0.0458 -0.8245 -0.0161
17372TIP3    H173607   3.684   0.326  15.062  0.1383 -1.2544  1.7791
17372TIP3    H273608   3.777   0.222  15.121  0.3467 -2.8228 -1.1748
17373TIP3   OH273609   1.932   1.464  15.275  0.0858 -0.0227  0.0116
17373TIP3    H173610   1.958   1.373  15.263  2.7693  0.8516 -1.8793
17373TIP3    H273611   1.976   1.491  15.356  0.3901 -0.0752 -0.1344
17374TIP3   OH273612   1.677   1.494  14.244 -0.0202  0.2874  0.3964
17374TIP3    H173613   1.703   1.461  14.330  1.1660  1.6316  0.5723
17374TIP3    H273614   1.581   1.494  14.247 -0.0055 -0.2254  1.4921
17375TIP3   OH273615   3.036   3.910  16.753 -0.3564  0.3774 -0.4728
17375TIP3    H173616   3.119   3.912  16.801  0.2202  0.9708 -1.4652
17375TIP3    H273617   2.980   3.853  16.805  0.8823 -0.5668 -0.1217
17376TIP3   OH273618   0.633   2.995   1.974 -0.2352 -0.4572 -0.1004
17376TIP3    H173619   0.643   3.087   1.950 -2.2477  0.1496  1.1579
17376TIP3    H273620   0.718   2.970   2.011 -0.5377  1.8631  2.4536
17377TIP3   OH273621   5.777   2.768  16.313 -0.3660 -0.3697  0.0664
17377TIP3    H173622   5.811   2.812  16.391  1.6997 -0.3003 -0.7894
17377TIP3    H273623   5.781   2.675  16.335  0.9261 -0.3918 -0.1744
17378TIP3   OH273624   0.443   2.399  14.828  0.3862  0.0227  0.5866
17378TIP3    H173625   0.407   2.363  14.747  3.5210  0.4379 -1.1782
17378TIP3    H273626   0.378   2.379  14.895 -2.0787 -0.8829 -1.9025
17379TIP3   OH273627   6.341   0.200  16.089 -0.1936 -0.0252  0.4513
17379TIP3    H173628   6.247   0.210  16.100 -0.5627  0.1385 -2.1669
17379TIP3    H273629   6.352   0.112  16.052  0.5846  0.2974 -0.1165
17380TIP3   OH273630   5.383   6.804  11.856 -0.1501  0.1274 -0.3422
17380TIP3    H173631   5.406   6.729  11.801 -1.0841 -0.8604  0.5860
17380TIP3    H273632   5.368   6.767  11.942 -0.3904  1.4328  0.1943
17381TIP3   OH273633   4.823   6.470  16.609 -0.0662 -0.3151 -0.0732
17381TIP3    H173634   4.739   6.505  16.580 -0.5601  0.7743  2.3850
17381TIP3    H273635   4.803   6.381  16.637 -0.6482  0.2054  1.2685
17382TIP3   OH273636   2.868   2.893  14.870  0.4078 -0.9378  0.3733
17382TIP3    H173637   2.918   2.858  14.796 -2.3179  0.0511 -2.1484
17382TIP3    H273638   2.909   2.977  14.889  1.8508 -1.7102  0.8101
17383TIP3   OH273639   5.347   3.907   5.275 -0.7435 -0.0818 -0.1645
17383TIP3    H173640   5.302   3.955   5.344 -0.3771  0.4938 -0.3109
17383TIP3    H273641   5.346   3.816   5.303 -0.7198  0.1305  0.5299
17384TIP3   OH273642   1.084   3.935   1.744 -0.9220  0.1225 -0.0661
17384TIP3    H173643   1.159   3.949   1.686 -0.4414 -0.3452  0.4336
17384TIP3    H273644   1.098   3.994   1.818 -1.3191  0.4125 -0.2170
17385TIP3   OH273645   4.103   6.667   6.557  0.3563 -0.0886 -0.8461
17385TIP3    H173646   4.133   6.729   6.491  0.2392  1.1632  0.2382
17385TIP3    H273647   4.182   6.619   6.582  0.9107  1.1297 -0.1542
17386TIP3   OH273648   4.639   0.869  16.152 -0.4561 -0.0625 -0.0718
17386TIP3    H173649   4.674   0.953  16.125  0.8098 -0.4165  0.3868
17386TIP3    H273650   4.685   0.805  16.098 -1.5755 -0.4628 -0.5840
17387TIP3   OH273651   5.859   1.723  12.338  0.3821 -0.0213 -0.2630
17387TIP3    H173652   5.838   1.660  12.268  2.0127 -1.0173  0.0730
17387TIP3    H273653   5.926   1.779  12.299 -2.0629  2.5515 -1.0535
17388TIP3   OH273654   3.956   2.474  15.046  1.0170  0.0003  0.0994
17388TIP3    H173655   3.974   2.486  15.139  2.6589 -0.2123 -0.1605
17388TIP3    H273656   3.938   2.562  15.013  1.6527  0.2439  0.3846
17389TIP3   OH273657   0.633   1.978   0.773  0.1282  0.6910 -0.4981
17389TIP3    H173658   0.570   2.042   0.806 -1.7388 -1.1095 -0.3582
17389TIP3    H273659   0.638   1.911   0.841  1.5820  0.3548 -0.8877
17390TIP3   OH273660   0.586   6.023   4.234 -0.1794  0.2519  0.4497
17390TIP3    H173661   0.649   5.974   4.286 -1.7194 -0.1852  2.0012
17390TIP3    H273662   0.610   6.115   4.248  0.5862  0.0782  0.3456
17391TIP3   OH273663   4.921   6.584  15.084  0.1614 -0.4726 -0.3281
17391TIP3    H173664   4.906   6.507  15.029  0.5485 -0.3681 -0.5857
17391TIP3    H273665   5.015   6.582  15.102  0.1903 -0.0195 -0.4030
17392TIP3   OH273666   3.594   2.000  16.653 -0.0175 -0.6828 -0.1809
17392TIP3    H173667   3.661   2.066  16.634 -1.0537  0.7923  1.0240
17392TIP3    H273668   3.638   1.937  16.710  0.7494 -0.5634 -0.6196
17393TIP3   OH273669   4.034   5.235  10.533  0.1235  0.5741  0.0402
17393TIP3    H173670   4.005   5.286  10.609  0.5560  1.9866 -0.7027
17393TIP3    H273671   3.952   5.205  10.492 -0.1116 -0.1328  1.0127
17394TIP3   OH273672   6.314   2.071  14.568 -0.4142 -0.2807 -0.4326
17394TIP3    H173673   6.388   2.059  14.627  0.2074 -0.3202 -1.2138
17394TIP3    H273674   6.265   2.144  14.606 -1.6007 -2.0448  1.7059
17395TIP3   OH273675   3.635   4.728  15.293 -0.0843 -0.2167  0.0215
17395TIP3    H173676   3.616   4.817  15.320  1.1148  0.2623 -0.6436
17395TIP3    H273677   3.569   4.675  15.338  1.0793  0.6330  2.9118
17396TIP3   OH273678   5.821   1.163  13.699  0.0776 -0.6692  0.5550
17396TIP3    H173679   5.833   1.069  13.685  0.1406 -0.5816  0.0080
17396TIP3    H273680   5.808   1.171  13.793 -1.5452 -1.4190  0.4358
17397TIP3   OH273681   4.272   1.353   2.125  0.2664 -0.3089  0.1046
17397TIP3    H173682   4.182   1.375   2.150 -0.6929 -1.2046 -2.2800
17397TIP3    H273683   4.262   1.284   2.059  2.6957 -0.1221 -0.5364
17398TIP3   OH273684   4.018   4.125   4.563 -0.6822  0.0456 -0.1802
17398TIP3    H173685   3.997   4.125   4.656  2.1693 -1.3350  0.5928
17398TIP3    H273686   4.032   4.033   4.542  0.2110  0.4715 -1.5731
17399TIP3   OH273687   4.798   2.297   4.811  0.8046  0.3593  0.1292
17399TIP3    H173688   4.875   2.269   4.762  0.4025 -1.7363  0.5822
17399TIP3    H273689   4.831   2.318   4.899  1.1045  1.2590 -0.1926
17400TIP3   OH273690   5.395   5.664   1.959  0.5937  0.7863  0.3138
17400TIP3    H173691   5.338   5.730   1.921 -1.4805 -0.4745  1.0589
17400TIP3    H273692   5.398   5.685   2.052  1.0634  0.6316  0.3390
17401TIP3   OH273693   4.796   4.202  12.860  0.0768 -0.6998 -0.2923
17401TIP3    H173694   4.711   4.169  12.830  0.0145 -0.7901 -0.0136
17401TIP3    H273695   4.821   4.143  12.931 -0.6871  0.6437  1.1572
17402TIP3   OH273696   2.257   5.558   3.269 -0.0250  0.0950  0.0795
17402TIP3    H173697   2.212   5.595   3.193 -0.7434 -1.0697 -0.0720
17402TIP3    H273698   2.191   5.557   3.338  0.4404  0.5364  0.5407
17403TIP3   OH273699   2.741   5.774  14.312 -0.7317  0.5497 -0.0117
17403TIP3    H173700   2.664   5.744  14.362  0.2803  1.2284  2.0867
17403TIP3    H273701   2.798   5.814  14.378 -0.4362  3.9463 -2.0583
17404TIP3   OH273702   1.740   3.617   1.327  0.2467  0.0894 -0.1887
17404TIP3    H173703   1.691   3.668   1.262  0.1650 -0.6855 -0.7527
17404TIP3    H273704   1.760   3.679   1.397 -1.1027  0.5347 -0.1792
17405TIP3   OH273705   0.456   4.630  15.706 -0.2635 -0.2548  0.1618
17405TIP3    H173706   0.447   4.725  15.705 -0.5120 -0.2709 -1.3592
17405TIP3    H273707   0.450   4.606  15.799 -2.0636  1.0269  0.4115
17406TIP3   OH273708   2.169   6.870  12.227 -0.4486  0.2304 -0.7846
17406TIP3    H173709   2.128   6.790  12.259 -4.2582  2.3584  0.2562
17406TIP3    H273710   2.164   6.863  12.131  1.6938 -1.7985 -0.8208
17407TIP3   OH273711   1.106   2.082   1.467 -0.5667  0.4122  0.0948
17407TIP3    H173712   1.185   2.032   1.445 -0.5699  0.3114  0.3075
17407TIP3    H273713   1.045   2.061   1.396 -0.2267  0.9009 -0.3525
17408TIP3   OH273714   4.739   5.009   1.201  0.4254 -0.1125  1.1089
17408TIP3    H173715   4.711   5.079   1.143  1.8282 -1.7129 -1.6786
17408TIP3    H273716   4.670   5.005   1.268 -3.1935 -0.3060 -2.2793
17409TIP3   OH273717   5.702   6.131  16.278 -0.3268 -0.0875 -0.4720
17409TIP3    H173718   5.609   6.119  16.260 -0.0374 -0.5415 -1.7281
17409TIP3    H273719   5.742   6.146  16.192  1.0663 -2.0317 -0.2340
17410TIP3   OH273720   1.954   2.115  11.971 -0.4945  0.3138 -0.1920
17410TIP3    H173721   2.038   2.157  11.953 -0.9576  2.2826  1.7790
17410TIP3    H273722   1.890   2.186  11.964 -1.2966  0.1473  3.4915
17411TIP3   OH273723   1.898   3.939   5.316 -0.1880  0.2394 -0.0036
17411TIP3    H173724   1.942   3.859   5.287 -0.7380  0.9096 -3.1011
17411TIP3    H273725   1.953   3.972   5.387  2.0453 -1.0698 -1.0030
17412TIP3   OH273726   5.903   1.645  15.693  0.2245  0.4145 -0.0736
17412TIP3    H173727   5.878   1.562  15.651  1.3947 -0.9333  1.7440
17412TIP3    H273728   5.831   1.664  15.753  0.0372  0.6048 -0.3615
17413TIP3   OH273729   1.377   5.423  13.849 -0.0926  0.4874  0.2924
17413TIP3    H173730   1.310   5.431  13.781  1.3713 -0.1311 -1.2848
17413TIP3    H273731   1.433   5.500  13.836 -0.8327  1.4118  2.0799
17414TIP3   OH273732   3.032   5.325   2.529  0.0754  0.4445 -0.7260
17414TIP3    H173733   3.049   5.418   2.542 -0.8526  0.3930  1.1807
17414TIP3    H273734   2.965   5.303   2.594  0.9335 -1.7743 -0.4932
17415TIP3   OH273735   1.427   4.269  13.095 -0.6273 -0.0786 -0.1711
17415TIP3    H173736   1.441   4.363  13.084 -2.7479  0.3085 -0.0007
17415TIP3    H273737   1.512   4.229  13.074  0.5633  1.9110  0.6128
17416TIP3   OH273738   6.869   0.318   4.090  0.1741 -0.3503  0.3468
17416TIP3    H173739   6.776   0.334   4.108  0.0837 -0.3849 -0.0817
17416TIP3    H273740   6.908   0.405   4.088  0.6375 -0.4047  2.9949
17417TIP3   OH273741   6.349   5.769   2.007  0.4864  0.3172  0.2180
17417TIP3    H173742   6.322   5.860   2.022 -0.4278  0.1086 -0.0731
17417TIP3    H273743   6.275   5.717   2.039  1.1769 -0.3378  0.7574
17418TIP3   OH273744   2.621   1.374  12.303  0.0442  0.0675  0.1166
17418TIP3    H173745   2.530   1.384  12.278  0.5239  1.6242 -1.1542
17418TIP3    H273746   2.618   1.323  12.384 -1.8846 -0.5258 -0.2705
17419TIP3   OH273747   0.955   6.437   4.767  0.7379 -0.2481 -0.8446
17419TIP3    H173748   0.924   6.527   4.763  0.1348 -0.4619 -1.0978
17419TIP3    H273749   0.937   6.401   4.680 -0.4020 -1.0496 -0.3093
17420TIP3   OH273750   3.079   2.690   2.369  0.0958  0.2076  0.5748
17420TIP3    H173751   3.091   2.731   2.283  2.5580 -1.0189  0.2372
17420TIP3    H273752   3.031   2.610   2.352  0.6791 -0.0897  0.3069
17421TIP3   OH273753   6.414   2.997  12.782  0.2391  0.1161  0.2649
17421TIP3    H173754   6.392   3.079  12.739  3.4822  0.9362 -0.1108
17421TIP3    H273755   6.402   3.013  12.875  1.7713  1.4182  0.2738
17422TIP3   OH273756   2.310   1.153   1.085 -0.4596  0.1819 -0.5211
17422TIP3    H173757   2.344   1.134   1.173 -1.0247  0.7754 -0.1649
17422TIP3    H273758   2.244   1.085   1.070 -1.2377  0.8103  0.0260
17423TIP3   OH273759   2.493   2.725  11.873  0.1461  0.8237 -0.4167
17423TIP3    H173760   2.570   2.746  11.926  0.1268 -0.2861  0.0723
17423TIP3    H273761   2.522   2.655  11.815 -0.9948 -1.0629  1.1609
17424TIP3   OH273762   0.307   4.680   1.340  0.2156 -0.6930 -0.4682
17424TIP3    H173763   0.329   4.767   1.308 -1.1866  0.9452  2.6735
17424TIP3    H273764   0.393   4.638   1.355  1.0545  1.4019  1.0414
17425TIP3   OH273765   1.355   4.153  10.961  0.0635  0.6699 -0.0796
17425TIP3    H173766   1.354   4.092  10.887 -0.6885  0.9241 -0.2842
17425TIP3    H273767   1.267   4.190  10.963 -0.1346  0.1912  1.3471
17426TIP3   OH273768   2.423   2.956   2.834 -1.1357 -0.0125 -0.0926
17426TIP3    H173769   2.398   2.916   2.750  0.2262 -0.3494 -0.3558
17426TIP3    H273770   2.518   2.944   2.839 -1.3217 -1.0179  2.0416
17427TIP3   OH273771   1.500   3.515   5.169 -0.1351  0.2371  0.5598
17427TIP3    H173772   1.466   3.569   5.241 -1.7379 -1.1888  0.9157
17427TIP3    H273773   1.565   3.458   5.211 -1.5184 -1.0271  1.0428
17428TIP3   OH273774   4.682   0.020  16.894  0.5246  0.1792  0.4374
17428TIP3    H173775   4.650   0.014  16.984 -1.7348 -1.0326 -0.3582
17428TIP3    H273776   4.652  -0.061  16.852  2.5074  0.1875 -1.1262
17429TIP3   OH273777   1.728   5.687  15.191  0.0011 -0.1305  0.0761
17429TIP3    H173778   1.703   5.704  15.100  1.8807 -2.1674 -0.9445
17429TIP3    H273779   1.789   5.757  15.213  0.4750 -0.2749 -0.7102
17430TIP3   OH273780   3.664   1.192  14.662 -0.3124 -0.3003  0.6186
17430TIP3    H173781   3.577   1.226  14.642 -0.4128 -0.2951  1.0483
17430TIP3    H273782   3.724   1.253  14.620 -0.5289 -0.9734 -0.7113
17431TIP3   OH273783   4.487   0.762   3.185 -0.2671 -0.8073  0.1238
17431TIP3    H173784   4.441   0.688   3.147 -0.5130  0.7753 -3.0092
17431TIP3    H273785   4.418   0.815   3.226 -0.4019 -1.2283  0.4445
17432TIP3   OH273786   3.341   3.955  11.425 -0.4054  0.0839  0.0475
17432TIP3    H173787   3.345   4.002  11.341 -2.1821 -0.5529 -0.4292
17432TIP3    H273788   3.413   3.892  11.419  0.5664  1.1838 -0.2585
17433TIP3   OH273789   1.529   2.448   2.817 -0.3403 -0.4980  0.1385
17433TIP3    H173790   1.522   2.492   2.732 -0.9933 -1.7454 -0.4843
17433TIP3    H273791   1.549   2.357   2.796  1.0667 -0.5222  1.3971
17434TIP3   OH273792   0.917   1.369   0.903 -0.6771 -0.2419  0.1742
17434TIP3    H173793   1.006   1.337   0.885  0.1637  1.8092  0.3852
17434TIP3    H273794   0.896   1.424   0.828 -0.6339  1.4419  1.3438
17435TIP3   OH273795   2.845   0.992  13.206 -0.2321 -0.0720  0.0196
17435TIP3    H173796   2.870   0.902  13.226  1.3921 -0.1069 -1.7858
17435TIP3    H273797   2.919   1.026  13.155 -0.0603  2.8133  1.9591
17436TIP3   OH273798   0.895   2.955   4.843 -0.0333  0.7870 -0.1323
17436TIP3    H173799   0.929   2.918   4.762 -2.2230 -2.0523  0.0859
17436TIP3    H273800   0.934   2.901   4.912 -2.3256 -0.4962  0.2796
17437TIP3   OH273801   3.946   4.955  13.198 -0.1655  0.2025  0.1323
17437TIP3    H173802   3.965   5.040  13.237  0.0778  0.0179  0.4164
17437TIP3    H273803   4.012   4.896  13.234  1.3662  0.4398 -2.0851
17438TIP3   OH273804   1.797   2.210   4.577  0.1171  0.7315 -0.7320
17438TIP3    H173805   1.745   2.130   4.592 -1.3213  1.6597 -0.5330
17438TIP3    H273806   1.826   2.236   4.664  2.2613 -0.5791 -0.9671
17439TIP3   OH273807   1.404   2.180   1.730  0.1158  0.2259 -0.1102
17439TIP3    H173808   1.340   2.160   1.798 -1.9202 -0.4983 -2.0955
17439TIP3    H273809   1.404   2.103   1.673  3.1262  0.0151 -0.0188
17440TIP3   OH273810   6.536   4.563   0.341 -0.3076 -0.2658 -0.1874
17440TIP3    H173811   6.450   4.587   0.377 -0.1226 -1.2180  0.9589
17440TIP3    H273812   6.517   4.537   0.251 -0.8478  1.7912 -0.7229
17441TIP3   OH273813   1.630   2.555  10.480  0.5050 -0.4572  0.5505
17441TIP3    H173814   1.659   2.621  10.542  0.7896 -0.2242  0.1718
17441TIP3    H273815   1.679   2.573  10.400 -0.6895 -0.0321 -0.1104
17442TIP3   OH273816   1.678   3.714   1.058  0.0904 -0.8001 -0.0765
17442TIP3    H173817   1.728   3.730   0.978  1.0085 -2.3845  0.1269
17442TIP3    H273818   1.618   3.643   1.036 -0.1902 -0.7230  0.4211
17443TIP3   OH273819   4.140   3.357   5.872 -0.2752 -0.4472  0.7032
17443TIP3    H173820   4.207   3.426   5.876  0.6808 -1.1320 -1.4914
17443TIP3    H273821   4.088   3.379   5.794  0.2123 -2.2770 -0.2007
17444TIP3   OH273822   1.345   1.171  16.918 -0.5144 -0.0760 -0.0659
17444TIP3    H173823   1.396   1.146  16.841  1.7598  2.9057  0.3155
17444TIP3    H273824   1.291   1.244  16.888 -1.0301 -0.1330  0.7048
17445TIP3   OH273825   5.908   0.384   3.333  0.9464 -0.6511 -0.2277
17445TIP3    H173826   5.941   0.469   3.362 -0.0108  0.1065 -1.2739
17445TIP3    H273827   5.837   0.364   3.394  0.1953  0.0176 -0.8788
17446TIP3   OH273828   6.261   4.684   5.641  0.2316 -0.7863 -0.2348
17446TIP3    H173829   6.236   4.592   5.651 -1.0934 -0.5312 -0.8250
17446TIP3    H273830   6.302   4.707   5.724 -0.6805 -1.5412  0.4573
17447TIP3   OH273831   0.713   5.902   1.180  0.5880  0.0950  0.0278
17447TIP3    H173832   0.636   5.897   1.236  1.1257 -1.0529  0.6944
17447TIP3    H273833   0.757   5.817   1.191  1.6665  0.5283 -0.7373
17448TIP3   OH273834   1.489   4.451   2.252 -0.3652 -0.3417 -0.6213
17448TIP3    H173835   1.428   4.381   2.227 -1.0448  0.1032 -0.2306
17448TIP3    H273836   1.563   4.440   2.192 -0.4318 -1.4326 -0.5265
17449TIP3   OH273837   3.839   1.273   5.321  0.2920 -0.1398  1.1299
17449TIP3    H173838   3.754   1.316   5.307  0.0682 -0.5201  1.3054
17449TIP3    H273839   3.859   1.234   5.236  1.9868  2.8618 -0.0159
17450TIP3   OH273840   0.979   0.988   4.459  0.3878  0.6021  0.0446
17450TIP3    H173841   0.918   1.023   4.394  0.6822  0.6881 -0.1876
17450TIP3    H273842   1.052   0.954   4.407  0.8412  1.0912  0.3552
17451TIP3   OH273843   0.128   2.888  11.596  0.4225  0.2980 -0.1584
17451TIP3    H173844   0.108   2.963  11.653  1.9160  0.3127  0.3979
17451TIP3    H273845   0.200   2.918  11.540  0.0444 -0.2475 -0.9588
17452TIP3   OH273846   0.129   1.906  13.827 -0.2978 -0.0848  0.7433
17452TIP3    H173847   0.197   1.843  13.851  1.4552  1.0213 -1.0226
17452TIP3    H273848   0.052   1.852  13.807  0.9581 -1.6268 -0.1141
17453TIP3   OH273849   4.929   5.408   1.077 -0.3755  0.2771 -0.3177
17453TIP3    H173850   4.965   5.482   1.125 -0.5168  0.2175 -0.1177
17453TIP3    H273851   5.001   5.379   1.021 -0.0586  0.0667  0.1870
17454TIP3   OH273852   5.248   1.920   5.498 -0.0582 -0.4660 -0.2670
17454TIP3    H173853   5.242   1.837   5.545  0.7331 -0.0390  0.6329
17454TIP3    H273854   5.217   1.901   5.409 -1.8513 -1.2378  0.4807
17455TIP3   OH273855   4.298   0.404  13.137 -0.0873  0.2430  0.6737
17455TIP3    H173856   4.380   0.453  13.137 -0.2854  0.5944 -0.0700
17455TIP3    H273857   4.271   0.403  13.046 -0.8136 -0.0440  0.8850
17456TIP3   OH273858   3.440   2.465  14.842  0.4797 -0.3376 -0.2397
17456TIP3    H173859   3.505   2.409  14.800  1.1584 -2.2606  3.0044
17456TIP3    H273860   3.357   2.421  14.825  0.7743 -1.2419  0.5789
17457TIP3   OH273861   3.065   4.658  15.227  0.2342  0.0463 -0.2321
17457TIP3    H173862   3.109   4.619  15.302  0.2831 -1.0953 -0.8346
17457TIP3    H273863   3.136   4.694  15.174  0.4944 -1.6360 -1.1145
17458TIP3   OH273864   4.964   0.130   2.890 -0.3720 -0.5062 -0.5768
17458TIP3    H173865   4.947   0.143   2.984  1.9156  2.9917 -0.4789
17458TIP3    H273866   4.985   0.037   2.883  1.3810 -0.5198  2.7940
17459TIP3   OH273867   0.732   4.354  12.209  0.0169  0.1667 -0.0049
17459TIP3    H173868   0.669   4.338  12.279  0.2075 -2.3010 -0.3293
17459TIP3    H273869   0.800   4.288  12.221  0.7093  0.4993 -1.7509
17460TIP3   OH273870   5.850   2.224  12.084  0.3594 -0.2842  0.1231
17460TIP3    H173871   5.784   2.239  12.153  1.6373 -0.3724  1.4212
17460TIP3    H273872   5.813   2.265  12.006 -1.0083  0.1076  0.9453
17461TIP3   OH273873   2.899   0.715  15.874 -0.7015  0.6810 -0.0399
17461TIP3    H173874   2.890   0.644  15.811 -0.1431  0.5190  0.0543
17461TIP3    H273875   2.811   0.729  15.909 -0.6254 -0.7441  0.7897
17462TIP3   OH273876   5.759   6.493  15.327 -0.2846  0.5260 -0.1946
17462TIP3    H173877   5.673   6.452  15.330  0.6611 -1.5699  2.6564
17462TIP3    H273878   5.786   6.486  15.235 -3.0594  1.2195 -1.1562
17463TIP3   OH273879   5.395   2.082  13.651 -0.1345 -0.0385  0.3517
17463TIP3    H173880   5.359   1.994  13.638 -0.8778  0.1958  0.7708
17463TIP3    H273881   5.463   2.070  13.717 -0.3459 -0.2725  0.5293
17464TIP3   OH273882   1.411   5.914  13.502 -0.5487 -0.0359  0.6825
17464TIP3    H173883   1.480   5.901  13.567  0.9178  0.0796 -0.7707
17464TIP3    H273884   1.443   5.988  13.449 -1.3325 -0.5940 -0.6055
17465TIP3   OH273885   3.901   6.078   1.456 -0.7414 -0.2007 -0.2557
17465TIP3    H173886   3.880   5.987   1.437  1.2375 -0.8549  0.4162
17465TIP3    H273887   3.915   6.081   1.551 -0.9654  0.8470 -0.2350
17466TIP3   OH273888   6.427   4.711  11.004 -0.4140 -0.2394  0.2747
17466TIP3    H173889   6.496   4.724  11.070 -1.6778  0.0185  1.6126
17466TIP3    H273890   6.466   4.653  10.939  1.8918  1.8381 -0.3412
17467TIP3   OH273891   3.895   5.657  16.189  0.4105  0.8517 -0.5623
17467TIP3    H173892   3.886   5.753  16.185 -0.6864  0.7708 -0.4144
17467TIP3    H273893   3.971   5.643  16.246 -0.2812  1.6452  0.6264
17468TIP3   OH273894   2.830   0.928   0.669 -0.2102 -0.3839  0.8498
17468TIP3    H173895   2.800   0.945   0.758  0.8482  0.1599  1.1120
17468TIP3    H273896   2.850   1.014   0.632 -1.8891 -0.4639 -0.4042
17469TIP3   OH273897   6.242   3.341  14.452  0.3595  0.1125  0.7518
17469TIP3    H173898   6.243   3.397  14.529  0.7558 -0.0038  0.8344
17469TIP3    H273899   6.208   3.397  14.382 -0.4106  0.0885  1.1045
17470TIP3   OH273900   5.803   5.631   6.015  0.8550  0.2632  0.2903
17470TIP3    H173901   5.739   5.645   5.946  1.9068 -0.7877 -0.9665
17470TIP3    H273902   5.778   5.547   6.054  0.3335  0.7970  1.1134
17471TIP3   OH273903   0.299   2.618   6.081 -0.0178  0.0925 -0.0109
17471TIP3    H173904   0.326   2.529   6.103 -1.1325 -0.1331  0.5512
17471TIP3    H273905   0.351   2.642   6.005  0.8786 -0.7349  0.3248
17472TIP3   OH273906   1.649   3.554  11.329 -0.2619  0.3590  0.0716
17472TIP3    H173907   1.666   3.463  11.355  0.4469  0.6721  0.7720
17472TIP3    H273908   1.718   3.574  11.266  0.8706  1.0170  1.4390
17473TIP3   OH273909   3.504   4.476   5.133  0.1921  0.0951 -0.3614
17473TIP3    H173910   3.422   4.523   5.119  0.4463  0.4181 -0.8008
17473TIP3    H273911   3.544   4.520   5.208 -1.2270 -1.7108  1.5543
17474TIP3   OH273912   1.332   4.848  11.096 -0.1808  0.5519 -0.3271
17474TIP3    H173913   1.260   4.912  11.091 -1.4043 -0.8351 -1.3265
17474TIP3    H273914   1.318   4.803  11.179  0.7654  1.6212  0.4460
17475TIP3   OH273915   3.107   6.588   4.406  0.0464 -0.3993  0.0004
17475TIP3    H173916   3.055   6.532   4.349 -0.5276  0.6192 -0.4960
17475TIP3    H273917   3.049   6.606   4.480  0.2723 -0.5484  0.2141
17476TIP3   OH273918   3.791   6.358   3.678  0.0635  0.0542  0.5207
17476TIP3    H173919   3.720   6.315   3.630 -1.2362  2.1284  0.4231
17476TIP3    H273920   3.861   6.293   3.681 -1.0057 -1.2945 -1.3547
17477TIP3   OH273921   4.658   1.156   6.271 -0.1802 -0.7769  0.0943
17477TIP3    H173922   4.655   1.190   6.361 -0.2999 -0.1110 -0.1529
17477TIP3    H273923   4.651   1.234   6.216 -0.2113 -1.1903 -0.4964
17478TIP3   OH273924   3.478   0.794   0.169  0.0612 -0.1875  0.4066
17478TIP3    H173925   3.535   0.830   0.101 -0.6877 -0.1092 -0.1910
17478TIP3    H273926   3.427   0.726   0.124 -1.2768  0.6576  0.5853
17479TIP3   OH273927   2.951   6.242  14.257 -0.4723  0.2785  0.2643
17479TIP3    H173928   2.918   6.214  14.172  1.0072  0.3230 -0.3457
17479TIP3    H273929   3.046   6.237  14.249 -0.2598 -2.1704  2.7190
17480TIP3   OH273930   6.289   4.064  10.712 -0.4873  0.3036  0.0138
17480TIP3    H173931   6.330   4.107  10.787 -0.4432  0.9717 -0.3847
17480TIP3    H273932   6.227   4.002  10.750  0.3221 -0.1517  0.6117
17481TIP3   OH273933   2.463   0.230  13.794  0.2837  0.2146  0.6222
17481TIP3    H173934   2.430   0.246  13.705 -0.1788  0.2674  0.8031
17481TIP3    H273935   2.399   0.272  13.851  1.3592  1.4968  0.9281
17482TIP3   OH273936   2.968   3.574  12.402 -0.0467  0.1265 -0.6590
17482TIP3    H173937   2.961   3.515  12.477  0.1402  0.6759 -0.2037
17482TIP3    H273938   2.909   3.537  12.337 -0.2003 -0.3654 -0.2478
17483TIP3   OH273939   4.152   5.601  13.170  0.1224 -0.4484  0.3812
17483TIP3    H173940   4.087   5.610  13.100  0.0752 -0.1597  0.4625
17483TIP3    H273941   4.137   5.676  13.227  1.1533  0.1478 -0.1025
17484TIP3   OH273942   5.607   3.218  14.129 -0.1249 -0.6166  0.6475
17484TIP3    H173943   5.526   3.268  14.121 -0.6985 -1.7290 -1.1565
17484TIP3    H273944   5.578   3.127  14.137  0.9434 -1.0846 -0.5697
17485TIP3   OH273945   0.144   3.290   6.595  0.2226  0.7012  0.2498
17485TIP3    H173946   0.199   3.356   6.554 -2.0566  1.9908 -0.9160
17485TIP3    H273947   0.138   3.317   6.686 -0.7229  2.1738 -0.2230
17486TIP3   OH273948   0.731   3.869   5.474 -0.1310  0.1812  1.0108
17486TIP3    H173949   0.799   3.936   5.463 -1.5772  1.5526 -0.0681
17486TIP3    H273950   0.681   3.872   5.392 -1.0159 -1.3529  1.4594
17487TIP3   OH273951   0.071   2.656  13.806  0.2006  0.0363 -0.3214
17487TIP3    H173952   0.025   2.596  13.749 -1.1205  1.4534 -0.8248
17487TIP3    H273953   0.161   2.659  13.772  0.0125 -0.8482 -0.9071
17488TIP3   OH273954   0.768   0.820  14.185  0.1220  0.4247 -0.5736
17488TIP3    H173955   0.732   0.849  14.269  0.4050  1.4296 -0.7907
17488TIP3    H273956   0.810   0.898  14.149  1.0323 -0.3054 -1.1051
17489TIP3   OH273957   0.100   2.359   4.697  0.4876  0.1256 -0.3406
17489TIP3    H173958   0.042   2.294   4.736  0.0057  0.9152  0.2786
17489TIP3    H273959   0.122   2.323   4.611 -1.2453 -0.0253 -0.7693
17490TIP3   OH273960   6.432   2.812  16.505 -0.0519  0.2302 -0.3396
17490TIP3    H173961   6.382   2.890  16.481 -1.6840 -0.1712  1.4556
17490TIP3    H273962   6.506   2.811  16.445  0.0706  3.1761 -0.3915
17491TIP3   OH273963   6.179   6.520  13.070  0.0273  0.3133 -0.0196
17491TIP3    H173964   6.235   6.477  13.135  0.3414  1.0604  0.2134
17491TIP3    H273965   6.234   6.528  12.993 -0.3803 -0.6723 -0.4310
17492TIP3   OH273966   0.847   3.870  13.504 -0.6612  0.1330 -0.1356
17492TIP3    H173967   0.850   3.830  13.417  1.9408  0.3749 -0.2142
17492TIP3    H273968   0.914   3.823  13.554 -1.6773  0.4298  1.5750
17493TIP3   OH273969   3.474   1.957   1.400  0.0563  0.2107  0.1543
17493TIP3    H173970   3.526   2.018   1.347  0.3483  1.6501  2.0070
17493TIP3    H273971   3.401   1.933   1.343  1.6050 -0.2633 -1.7780
17494TIP3   OH273972   5.495   1.485  15.785 -0.1905  0.6395 -0.3630
17494TIP3    H173973   5.447   1.434  15.720  0.5111  1.2530 -1.3922
17494TIP3    H273974   5.547   1.420  15.833  0.5656  0.3357 -1.5456
17495TIP3   OH273975   1.044   5.909   5.975 -0.0254  0.1543  0.3597
17495TIP3    H173976   1.125   5.877   6.016  0.0878  0.7213  0.5807
17495TIP3    H273977   1.018   5.983   6.029 -0.6496  0.0256  0.2365
17496TIP3   OH273978   0.454   0.908  11.579 -0.3336 -0.2458 -0.1908
17496TIP3    H173979   0.530   0.884  11.526 -2.2397 -0.1491 -3.1920
17496TIP3    H273980   0.469   0.999  11.603  1.5666 -0.8974  1.4331
17497TIP3   OH273981   0.345   1.796  16.969 -0.0833 -0.2841  0.4530
17497TIP3    H173982   0.402   1.720  16.975  1.0849  0.4175 -1.0124
17497TIP3    H273983   0.341   1.816  16.876 -0.1836  1.5659  0.8107
17498TIP3   OH273984   3.990   4.828   3.362  0.2463 -0.0955 -0.0474
17498TIP3    H173985   4.072   4.876   3.354 -0.4773  1.0387 -0.9530
17498TIP3    H273986   3.977   4.788   3.276 -0.5084  0.3389 -0.1411
17499TIP3   OH273987   2.658   5.796  12.970  0.5996 -0.1080 -0.2226
17499TIP3    H173988   2.635   5.763  12.883 -0.1093  0.5704 -0.3003
17499TIP3    H273989   2.717   5.870  12.952 -2.0142  2.1079 -0.3259
17500TIP3   OH273990   5.355   0.636   2.186 -0.0506 -0.4045 -0.0396
17500TIP3    H173991   5.263   0.658   2.167  0.2822  0.0573 -1.2217
17500TIP3    H273992   5.403   0.669   2.110  0.9435 -1.8003 -0.0575
17501TIP3   OH273993   0.312   5.287   5.848 -0.0339  0.2060  0.2680
17501TIP3    H173994   0.306   5.193   5.827  1.5327  0.1204  0.1047
17501TIP3    H273995   0.293   5.291   5.942 -0.8230 -0.1685  0.1376
17502TIP3   OH273996   3.537   6.680   3.311 -0.2259 -0.5843 -1.1154
17502TIP3    H173997   3.606   6.613   3.310  0.6818  0.3070 -0.8376
17502TIP3    H273998   3.572   6.751   3.257 -1.9786 -1.0643 -2.9907
17503TIP3   OH273999   1.958   2.928  14.074  0.4296 -0.1354  0.0187
17503TIP3    H174000   1.879   2.963  14.115  1.1574  1.9273 -0.2064
17503TIP3    H274001   2.030   2.966  14.124  1.3285 -2.4656  0.6013
17504TIP3   OH274002   4.669   5.267   1.854  0.5496 -0.3621  0.0929
17504TIP3    H174003   4.689   5.322   1.929 -2.4773  2.6947 -1.1116
17504TIP3    H274004   4.648   5.181   1.892  1.4377  0.3999  2.4664
17505TIP3   OH274005   1.991   4.606  12.889  0.1383  0.2547 -0.1573
17505TIP3    H174006   1.917   4.629  12.834 -0.1873 -0.2124  0.0779
17505TIP3    H274007   2.036   4.689  12.906 -0.7429  0.6509  0.2932
17506TIP3   OH274008   5.002   0.460  12.981 -0.0204 -0.5455  0.0177
17506TIP3    H174009   4.974   0.524  13.048 -1.1263 -1.3315  0.3478
17506TIP3    H274010   4.942   0.476  12.908 -1.3351 -2.1477  0.6687
17507TIP3   OH274011   5.974   6.436   0.264 -0.3823  0.2403  0.3381
17507TIP3    H174012   6.031   6.370   0.304 -0.0585  0.8528  0.9116
17507TIP3    H274013   6.003   6.519   0.302 -0.8115  0.7114 -0.3442
17508TIP3   OH274014   4.938   6.825  16.492 -0.1122 -0.1658 -0.8251
17508TIP3    H174015   4.982   6.764  16.552 -0.3831  0.4086 -0.0183
17508TIP3    H274016   4.903   6.894  16.549  1.7156  1.7297 -1.8286
17509TIP3   OH274017   5.275   5.961  14.649 -0.1913 -0.0812 -0.0163
17509TIP3    H174018   5.183   5.935  14.641 -1.1585  2.6466  0.9613
17509TIP3    H274019   5.312   5.896  14.709 -1.8810 -0.4174  0.7457
17510TIP3   OH274020   0.259   1.508  14.374 -0.3612  0.1087  0.1886
17510TIP3    H174021   0.291   1.468  14.455 -2.3147 -0.8332  0.5409
17510TIP3    H274022   0.210   1.439  14.330 -1.6784  1.3809 -0.4333
17511TIP3   OH274023   5.500   6.364   6.547  0.3600  0.6898 -0.4369
17511TIP3    H174024   5.575   6.366   6.488  0.8199 -0.4863  0.0813
17511TIP3    H274025   5.512   6.439   6.605  0.1267  1.6098 -1.5355
17512TIP3   OH274026   4.116   4.186   2.159 -0.3556  0.7448 -0.4561
17512TIP3    H174027   4.107   4.236   2.240 -1.0493 -0.6391  0.3670
17512TIP3    H274028   4.169   4.110   2.183 -1.2055 -0.0835 -1.0804
17513TIP3   OH274029   0.925   1.996  14.555  0.2686  0.6995  0.7455
17513TIP3    H174030   0.845   2.021  14.602 -0.0823 -0.3975  0.7769
17513TIP3    H274031   0.985   1.968  14.624 -0.1995 -0.7857  0.5835
17514TIP3   OH274032   6.448   1.441  16.844  0.0233 -0.0425  0.6168
17514TIP3    H174033   6.515   1.376  16.820  1.3692  1.3548  0.3941
17514TIP3    H274034   6.462   1.456  16.938 -0.3284 -0.1340  0.6829
17515TIP3   OH274035   1.072   6.308   0.458 -0.3540 -0.4433  0.1393
17515TIP3    H174036   0.990   6.293   0.411 -0.2902  1.9793 -0.8881
17515TIP3    H274037   1.131   6.344   0.392  2.1726 -3.6051  0.4389
17516TIP3   OH274038   4.450   5.606   4.371  0.0544 -0.4423 -0.5576
17516TIP3    H174039   4.432   5.602   4.465 -1.9813 -1.2230 -0.9304
17516TIP3    H274040   4.445   5.699   4.350  1.0965 -0.1999  0.1750
17517TIP3   OH274041   5.648   2.592  11.421 -0.2694  0.2510 -0.3786
17517TIP3    H174042   5.562   2.561  11.393 -1.1856 -0.7142  3.0862
17517TIP3    H274043   5.708   2.523  11.394 -1.0255 -0.4638 -0.2610
17518TIP3   OH274044   0.484   3.636   5.269 -0.2830  0.3234 -0.4160
17518TIP3    H174045   0.558   3.604   5.217 -0.3804  1.4737 -1.2753
17518TIP3    H274046   0.503   3.728   5.285  0.1611 -0.1626  2.3303
17519TIP3   OH274047   4.517   4.259   1.143  0.0457  0.0981 -0.1302
17519TIP3    H174048   4.552   4.277   1.230 -0.5699  2.2500 -0.2922
17519TIP3    H274049   4.483   4.343   1.112 -2.6704 -1.2449 -1.1503
17520TIP3   OH274050   5.106   0.068   5.496  0.2692  0.3084  0.5762
17520TIP3    H174051   5.077  -0.019   5.524 -1.1994  0.8489  0.8543
17520TIP3    H274052   5.153   0.103   5.572  0.5702 -0.1136  0.5859
17521TIP3   OH274053   6.040   3.963   2.597 -0.2573 -0.2958 -0.1008
17521TIP3    H174054   6.094   4.039   2.617  1.8861 -1.5483 -0.7927
17521TIP3    H274055   5.983   3.954   2.673  0.6769  0.9575  0.7899
17522TIP3   OH274056   1.822   5.152  13.733  0.6250 -0.0564  0.4665
17522TIP3    H174057   1.734   5.158  13.697  1.4094  2.4614 -1.3174
17522TIP3    H274058   1.824   5.067  13.777 -1.9837 -1.1806 -1.3092
17523TIP3   OH274059   6.041   3.518   5.443 -0.1806 -0.5550  0.2793
17523TIP3    H174060   6.092   3.534   5.364  0.0362  0.1792  0.5618
17523TIP3    H274061   6.090   3.449   5.489 -0.1272 -0.7431 -0.0545
17524TIP3   OH274062   0.662   4.105  16.113 -0.1269 -0.3730 -0.4308
17524TIP3    H174063   0.663   4.068  16.201  0.1616  0.4967 -0.0569
17524TIP3    H274064   0.727   4.175  16.115  1.9119 -2.1136 -2.1532
17525TIP3   OH274065   0.480   3.843   2.828 -0.1912  0.2051  0.3405
17525TIP3    H174066   0.505   3.901   2.755 -0.5252  0.1464  0.1785
17525TIP3    H274067   0.426   3.898   2.885 -2.6789 -0.6142 -1.1050
17526TIP3   OH274068   3.584   3.193   2.494 -0.7668 -0.5252  0.4246
17526TIP3    H174069   3.644   3.127   2.461 -2.1436 -2.1432  1.0342
17526TIP3    H274070   3.505   3.183   2.440 -0.8638  0.9445  0.2324
17527TIP3   OH274071   5.356   6.110   1.439  0.2362  0.1346 -0.6221
17527TIP3    H174072   5.310   6.075   1.515 -1.6871  0.3992 -1.6126
17527TIP3    H274073   5.444   6.128   1.471 -1.2308  2.9276  2.3665
17528TIP3   OH274074   3.434   1.906  11.078 -0.2331  0.1494 -0.3804
17528TIP3    H174075   3.420   1.922  10.985  1.1444  2.6381 -0.2690
17528TIP3    H274076   3.529   1.907  11.088 -0.3503  2.1566  1.3033
17529TIP3   OH274077   3.866   4.239   0.454  0.1501  0.0490 -0.5171
17529TIP3    H174078   3.801   4.306   0.435 -0.3145 -0.5442 -1.0363
17529TIP3    H274079   3.950   4.285   0.450 -0.2939  1.4955  2.9058
17530TIP3   OH274080   1.039   2.357  15.588  0.2864  0.0061 -0.0728
17530TIP3    H174081   0.954   2.312  15.579  0.8579 -1.1384 -0.0032
17530TIP3    H274082   1.096   2.291  15.628  1.4622  0.4272 -0.9984
17531TIP3   OH274083   5.073   5.268  12.769 -0.5843  0.7374  0.0516
17531TIP3    H174084   5.094   5.184  12.811 -0.2826  0.9047  0.2428
17531TIP3    H274085   5.080   5.250  12.676  1.1735  0.9587  0.1083
17532TIP3   OH274086   0.884   1.623   4.941  0.4590 -0.1442 -0.3791
17532TIP3    H174087   0.856   1.688   5.006 -0.8301 -0.1015 -0.9441
17532TIP3    H274088   0.900   1.674   4.862 -0.7082 -0.5195 -0.8694
17533TIP3   OH274089   3.006   0.460  13.593  0.0638  0.6400 -0.1288
17533TIP3    H174090   3.081   0.400  13.585 -1.0017 -0.8150  0.4040
17533TIP3    H274091   2.940   0.424  13.534 -0.8392  0.9214  0.6919
17534TIP3   OH274092   1.206   0.390  13.727  0.4237  0.5165  0.1424
17534TIP3    H174093   1.296   0.423  13.721  1.7939 -2.6641  1.2487
17534TIP3    H274094   1.153   0.469  13.737  2.8632  2.6407 -2.1129
17535TIP3   OH274095   0.131   4.146   1.980  0.0957 -0.1576  0.1469
17535TIP3    H174096   0.158   4.187   2.062  0.9498  1.7337 -1.0175
17535TIP3    H274097   0.166   4.203   1.912 -1.4008 -1.1507 -1.5450
17536TIP3   OH274098   5.335   5.151  13.471 -0.2555 -0.1801  0.1020
17536TIP3    H174099   5.313   5.085  13.404  1.5470  0.8016 -1.5534
17536TIP3    H274100   5.266   5.141  13.537 -1.0279 -2.5248 -0.9273
17537TIP3   OH274101   4.060   1.722   4.425  0.0918 -0.6911  0.1089
17537TIP3    H174102   4.021   1.752   4.342  0.2052 -0.9826 -0.0516
17537TIP3    H274103   4.103   1.800   4.460 -1.0748 -0.2165  0.5592
17538TIP3   OH274104   2.952   1.349  12.948 -0.0543  0.2764 -0.4474
17538TIP3    H174105   3.024   1.345  12.884  0.8477  1.1852  0.4767
17538TIP3    H274106   2.966   1.432  12.994 -1.1874  0.0328  0.3669
17539TIP3   OH274107   5.529   4.539   4.123 -0.0251  0.6436  0.2160
17539TIP3    H174108   5.618   4.573   4.126  0.9140 -1.6470  0.3509
17539TIP3    H274109   5.511   4.525   4.030  0.8672 -1.4257  0.2929
17540TIP3   OH274110   6.202   1.016  11.471  0.5845 -0.2242  0.2731
17540TIP3    H174111   6.210   1.106  11.501 -0.5841 -0.4116  1.2295
17540TIP3    H274112   6.257   1.011  11.393  0.0778  1.5167 -0.2272
17541TIP3   OH274113   5.166   2.060   4.270 -0.3455  0.2669  0.0504
17541TIP3    H174114   5.217   2.007   4.332  0.7368  1.8304  0.5628
17541TIP3    H274115   5.219   2.138   4.256 -1.4231  0.7777 -1.4685
17542TIP3   OH274116   5.589   1.929   2.821 -0.3586 -0.0676  0.6508
17542TIP3    H174117   5.527   1.975   2.878 -2.8029  0.3607 -2.1219
17542TIP3    H274118   5.649   1.886   2.881 -3.6887 -1.0392  3.6139
17543TIP3   OH274119   5.011   4.410  11.103 -0.2558 -0.9150 -0.6551
17543TIP3    H174120   4.942   4.382  11.164 -0.6905 -0.1985 -0.8031
17543TIP3    H274121   4.967   4.415  11.018  0.2641 -1.5703 -0.9693
17544TIP3   OH274122   0.455   2.048   3.378 -0.0054 -0.4682 -0.5327
17544TIP3    H174123   0.477   2.139   3.360  0.1162 -0.5695 -0.9023
17544TIP3    H274124   0.360   2.049   3.394  0.0123 -0.2637 -0.4316
17545TIP3   OH274125   4.245   2.869  11.992 -0.8229  0.5646  0.0639
17545TIP3    H174126   4.256   2.780  12.028  0.2184  0.4821 -0.4232
17545TIP3    H274127   4.219   2.855  11.901 -1.1503  0.7596  0.1288
17546TIP3   OH274128   4.326   6.122   2.013 -0.6067 -0.0466  0.3157
17546TIP3    H174129   4.319   6.191   1.947  2.6941  0.0189 -0.1151
17546TIP3    H274130   4.340   6.169   2.095 -0.1229 -0.1548  0.3005
17547TIP3   OH274131   3.487   4.360  15.260  0.5416 -0.5268  0.2296
17547TIP3    H174132   3.425   4.313  15.316 -0.6640  1.9292  1.1429
17547TIP3    H274133   3.573   4.330  15.288 -0.1183 -1.0321  1.8380
17548TIP3   OH274134   5.871   3.029   3.317 -0.1198  0.2417  0.1635
17548TIP3    H174135   5.928   2.962   3.355 -1.7861 -0.5338  1.4038
17548TIP3    H274136   5.842   3.080   3.393 -1.3784  0.3626 -0.3890
17549TIP3   OH274137   2.406   6.093  15.238 -0.4132  0.3535  0.0739
17549TIP3    H174138   2.314   6.082  15.262 -0.1552 -0.6909  0.6844
17549TIP3    H274139   2.414   6.046  15.154 -0.8105  2.0051 -0.9233
17550TIP3   OH274140   3.271   3.318  11.947 -0.7327 -0.1870 -0.0134
17550TIP3    H174141   3.264   3.383  11.877 -1.4885 -1.3968 -1.1173
17550TIP3    H274142   3.182   3.314  11.984 -0.5498 -0.1882  0.4298
17551TIP3   OH274143   1.358   3.038  12.993  0.2881  0.0819 -0.2719
17551TIP3    H174144   1.442   3.028  13.037  0.4100 -0.8377 -0.6915
17551TIP3    H274145   1.294   3.008  13.058  0.2280  1.2019  0.2094
17552TIP3   OH274146   5.490   1.653  13.182 -0.1891  0.4248  0.3609
17552TIP3    H174147   5.412   1.692  13.143  0.8899  0.5834 -1.7645
17552TIP3    H274148   5.510   1.710  13.256  0.2991  2.9956 -1.5902
17553TIP3   OH274149   6.073   2.223  13.354  0.0148  0.2079  0.3933
17553TIP3    H174150   6.120   2.248  13.434 -0.2210  0.7272  0.3704
17553TIP3    H274151   5.986   2.261  13.364 -0.7022 -1.4447  0.8102
17554TIP3   OH274152   0.219   4.185  12.922  0.0906  0.3267 -0.0075
17554TIP3    H174153   0.144   4.244  12.918 -0.5171 -0.3940  0.4549
17554TIP3    H274154   0.208   4.127  12.847  0.2641  0.3005 -0.0141
17555TIP3   OH274155   1.429   0.922  14.106  0.2631 -0.1604 -0.1862
17555TIP3    H174156   1.427   1.014  14.078 -2.0177  0.1883  0.9359
17555TIP3    H274157   1.470   0.876  14.032 -0.0056  1.5394 -1.4584
17556TIP3   OH274158   2.727   0.010   2.889  0.3422 -0.5256 -0.2910
17556TIP3    H174159   2.710  -0.025   2.802 -0.0308 -0.1469 -0.3743
17556TIP3    H274160   2.693  -0.056   2.949 -0.1525 -0.4112 -0.4424
17557TIP3   OH274161   5.359   5.484  11.903 -0.8555 -0.4812 -0.3892
17557TIP3    H174162   5.289   5.500  11.840 -0.8512  1.9240  0.1205
17557TIP3    H274163   5.393   5.397  11.880 -1.5842 -0.1642 -2.9663
17558TIP3   OH274164   3.555   4.263  10.882  0.6693  0.0106 -0.0065
17558TIP3    H174165   3.487   4.310  10.931 -0.2217  0.8628 -1.9420
17558TIP3    H274166   3.526   4.172  10.884 -0.7873  0.4093 -1.0959
17559TIP3   OH274167   0.644   5.359  12.357  0.5480  0.2591  0.4575
17559TIP3    H174168   0.697   5.352  12.437  0.2221 -1.9739  0.5460
17559TIP3    H274169   0.655   5.274  12.314 -3.2350 -0.5358  0.6954
17560TIP3   OH274170   5.371   5.841  12.907 -0.5269 -0.0141 -0.4992
17560TIP3    H174171   5.276   5.839  12.913 -0.4574 -1.1472  0.7321
17560TIP3    H274172   5.401   5.829  12.998  0.7917 -0.4742 -0.9689
17561TIP3   OH274173   1.669   2.747  10.688 -0.4811  0.2803  0.8609
17561TIP3    H174174   1.745   2.759  10.745  0.7453 -0.3866 -0.5661
17561TIP3    H274175   1.653   2.833  10.650 -0.7210  0.5159  1.4812
17562TIP3   OH274176   0.781   1.826  16.660  0.7319 -0.7353 -0.0965
17562TIP3    H174177   0.739   1.743  16.682  0.1793 -0.0246  1.7945
17562TIP3    H274178   0.849   1.836  16.727  0.7124  0.3780 -0.2310
17563TIP3   OH274179   3.488   0.287   1.202 -0.7144 -0.4463 -0.3398
17563TIP3    H174180   3.582   0.267   1.198 -0.0532  2.3108 -2.5174
17563TIP3    H274181   3.478   0.336   1.284  0.5347  1.9859 -1.5179
17564TIP3   OH274182   1.695   6.878   0.992 -0.0323  0.1638 -0.3943
17564TIP3    H174183   1.725   6.968   1.002 -0.2306  0.1327  0.5627
17564TIP3    H274184   1.600   6.884   1.003 -0.0436 -0.1596 -0.3146
17565TIP3   OH274185   6.706   1.491  15.325  0.0684 -0.7060  0.0579
17565TIP3    H174186   6.706   1.574  15.372  1.4003 -1.5641  1.7287
17565TIP3    H274187   6.741   1.512  15.238  1.4095  0.3270  0.8083
17566TIP3   OH274188   4.145   4.046  14.818  0.2602  0.3034 -0.0079
17566TIP3    H174189   4.216   4.044  14.883  0.4954  1.4828 -0.2124
17566TIP3    H274190   4.121   4.138  14.811 -1.1660 -0.0483 -0.1026
17567TIP3   OH274191   4.869   1.081  13.490  0.3994  0.4526 -0.1870
17567TIP3    H174192   4.884   1.063  13.583  1.9129 -0.6053 -0.6003
17567TIP3    H274193   4.804   1.016  13.464  0.6208  0.1724 -0.0534
17568TIP3   OH274194   3.187   5.070  13.876 -0.0663  0.4096 -0.0537
17568TIP3    H174195   3.098   5.101  13.862 -0.5586 -1.5036 -1.5963
17568TIP3    H274196   3.242   5.133  13.829 -0.8089  0.3832 -0.9866
17569TIP3   OH274197   6.499   4.522  13.942 -0.2315 -0.3536  0.0628
17569TIP3    H174198   6.536   4.495  13.858 -0.7288  0.0078 -0.2817
17569TIP3    H274199   6.412   4.556  13.920 -0.3077 -0.1130  0.7042
17570TIP3   OH274200   4.629   0.941  13.718 -0.1799 -0.0259 -0.0197
17570TIP3    H174201   4.616   0.910  13.807  1.8049 -0.2829  0.2242
17570TIP3    H274202   4.644   0.862  13.666 -1.7204  0.0857 -0.6900
17571TIP3   OH274203   3.318   1.590  15.329  0.5830  0.3598 -0.0891
17571TIP3    H174204   3.228   1.570  15.304  1.2510  1.1399 -3.6621
17571TIP3    H274205   3.313   1.677  15.369 -0.3913 -0.3543  1.4504
17572TIP3   OH274206   5.728   6.441  11.545 -0.0104 -0.0740 -0.1873
17572TIP3    H174207   5.664   6.390  11.594 -0.7146  0.4034 -0.5814
17572TIP3    H274208   5.690   6.529  11.540  0.9226  0.3541  0.0111
17573TIP3   OH274209   2.272   0.024  10.644  0.2158  0.5328  0.2941
17573TIP3    H174210   2.261  -0.070  10.629 -0.6729  0.6612  0.1127
17573TIP3    H274211   2.347   0.048  10.590 -0.4104  0.1873 -0.7510
17574TIP3   OH274212   6.118   5.630   0.600 -0.2545 -0.0603  0.6996
17574TIP3    H174213   6.129   5.571   0.525  0.5663  0.6382  0.2525
17574TIP3    H274214   6.195   5.615   0.654 -0.3761  0.1273  0.9274
17575TIP3   OH274215   0.260   0.538   4.697  0.3893 -0.3658 -0.0461
17575TIP3    H174216   0.335   0.556   4.639  0.0578 -0.6936 -0.5816
17575TIP3    H274217   0.205   0.477   4.648 -0.7481  0.6487 -0.0886
17576TIP3   OH274218   6.746   2.444   6.649  0.3096 -0.0497  1.0724
17576TIP3    H174219   6.726   2.371   6.708  2.7992 -1.7133  0.0458
17576TIP3    H274220   6.828   2.418   6.607  0.2009  2.4502 -0.8861
17577TIP3   OH274221   3.486   6.389  16.175  0.0333 -0.0185  0.2089
17577TIP3    H174222   3.477   6.301  16.139 -1.0143 -0.2029  0.8654
17577TIP3    H274223   3.575   6.415  16.153  0.7022 -1.6415  0.8561
17578TIP3   OH274224   6.269   2.374   6.707 -0.3734  0.1488  0.3172
17578TIP3    H174225   6.342   2.436   6.707 -1.2410  1.1891 -0.2142
17578TIP3    H274226   6.227   2.386   6.792 -0.4863  0.2161  0.2516
17579TIP3   OH274227   5.448   2.443  14.163 -0.0722 -0.3428  0.2535
17579TIP3    H174228   5.374   2.384  14.146  0.8654 -1.4884 -0.0379
17579TIP3    H274229   5.482   2.463  14.076 -0.4778  0.7889  0.3414
17580TIP3   OH274230   0.415   6.843   1.382 -0.0601 -0.5000 -0.6216
17580TIP3    H174231   0.493   6.791   1.365 -0.3342 -0.8429 -0.8448
17580TIP3    H274232   0.378   6.859   1.295 -0.1489 -0.1980 -0.5296
17581TIP3   OH274233   2.616   5.268   4.519  0.2004 -0.5221  0.0180
17581TIP3    H174234   2.669   5.213   4.462 -0.2886  1.3170 -2.3761
17581TIP3    H274235   2.665   5.349   4.527 -1.1218  0.3416 -0.2598
17582TIP3   OH274236   3.869   3.303   3.289 -0.0069 -0.7012 -0.3934
17582TIP3    H174237   3.889   3.221   3.244  0.4810 -1.2348  0.7341
17582TIP3    H274238   3.950   3.354   3.284  0.3011 -1.0735  0.4767
17583TIP3   OH274239   3.626   6.196  14.236  0.5908 -0.5558 -0.4425
17583TIP3    H174240   3.661   6.116  14.274 -0.1482  0.3930  2.4686
17583TIP3    H274241   3.553   6.220  14.293  0.4057  1.8852 -1.5610
17584TIP3   OH274242   1.402   6.278   3.725 -0.2523 -0.5747  0.0178
17584TIP3    H174243   1.326   6.223   3.705  0.0891 -0.8542 -0.5238
17584TIP3    H274244   1.469   6.217   3.755 -0.3070 -0.3038  0.7028
17585TIP3   OH274245   2.726   0.689   4.081  0.0172 -0.1119 -0.1147
17585TIP3    H174246   2.738   0.784   4.091 -2.1439  0.1372  0.7854
17585TIP3    H274247   2.749   0.671   3.990  1.2078  1.1379 -0.0893
17586TIP3   OH274248   3.027   5.989  12.882  0.1063 -0.0797 -0.0241
17586TIP3    H174249   2.943   6.021  12.914 -0.2946 -1.8705  0.8069
17586TIP3    H274250   3.033   5.899  12.913  2.0952 -0.1842 -0.5385
17587TIP3   OH274251   6.632   0.129   2.906 -0.4687 -0.1829  0.0436
17587TIP3    H174252   6.585   0.192   2.851  1.6587 -0.0403 -1.7375
17587TIP3    H274253   6.623   0.045   2.860  1.0895 -0.1248 -0.4184
17588TIP3   OH274254   0.150   6.373  12.012 -0.1960 -0.2724  0.0161
17588TIP3    H174255   0.067   6.395  12.054 -1.6521 -2.5115 -1.4639
17588TIP3    H274256   0.134   6.389  11.918  0.4332 -2.3107 -0.4834
17589TIP3   OH274257   3.349   3.102   1.051 -0.1088  0.0360 -0.0177
17589TIP3    H174258   3.362   3.028   0.991  0.1442  0.0180  0.0607
17589TIP3    H274259   3.436   3.137   1.066 -0.1342 -0.1517  0.5836
17590TIP3   OH274260   1.871   5.162  17.033 -0.8388  0.0388  0.4998
17590TIP3    H174261   1.786   5.199  17.009 -1.1223 -1.3270 -0.7380
17590TIP3    H274262   1.917   5.150  16.950  0.4898  0.5179  1.1270
17591TIP3   OH274263   1.193   6.468  14.967  0.3304 -0.3575  0.0470
17591TIP3    H174264   1.267   6.516  15.005  1.1973 -2.4874  1.2546
17591TIP3    H274265   1.163   6.411  15.038 -1.1681 -1.0217 -1.0669
17592TIP3   OH274266   0.046   1.633   3.208 -0.3559 -0.0508  0.2422
17592TIP3    H174267  -0.043   1.658   3.185 -0.1907  2.1837  1.7848
17592TIP3    H274268   0.101   1.670   3.139 -0.5952 -1.7639 -0.9230
17593TIP3   OH274269   0.476   3.502   1.527 -0.9365 -0.0020  0.0486
17593TIP3    H174270   0.406   3.542   1.475 -1.3166 -0.0531  0.5005
17593TIP3    H274271   0.475   3.552   1.609 -0.6291 -0.1851  0.1638
17594TIP3   OH274272   3.887   1.945   6.070  0.0922 -0.7371  0.1788
17594TIP3    H174273   3.875   1.879   6.139  0.8968 -0.1212  0.9256
17594TIP3    H274274   3.940   2.013   6.111 -4.0512  2.5161  0.8895
17595TIP3   OH274275   1.129   1.120  11.779 -0.0190 -0.0791 -0.0770
17595TIP3    H174276   1.218   1.118  11.813  0.2189  1.5898 -0.5283
17595TIP3    H274277   1.128   1.052  11.711  0.4046 -1.2279  1.0201
17596TIP3   OH274278   2.250   3.379  13.478 -0.6457 -0.6929 -0.2240
17596TIP3    H174279   2.343   3.356  13.488 -0.8190 -1.6203 -0.6384
17596TIP3    H274280   2.218   3.390  13.567 -0.2220 -0.7383 -0.0646
17597TIP3   OH274281   5.240   4.571  15.845  0.0479 -0.1553 -0.3113
17597TIP3    H174282   5.164   4.585  15.901 -0.4310  1.9952 -1.3793
17597TIP3    H274283   5.309   4.539  15.904 -1.4225 -1.4557  0.7984
17598TIP3   OH274284   5.140   5.570   2.334  0.4023 -0.1816  0.2136
17598TIP3    H174285   5.087   5.616   2.269  2.4224  0.9363 -0.7631
17598TIP3    H274286   5.132   5.622   2.413  0.9877  0.7314 -0.2956
17599TIP3   OH274287   3.165   0.230  10.160 -0.4485 -0.5694  0.8668
17599TIP3    H174288   3.108   0.154  10.151  0.6714 -1.1904 -1.7546
17599TIP3    H274289   3.222   0.208  10.235  0.2609 -2.6382 -0.1963
17600TIP3   OH274290   0.464   5.590  12.824  0.0995 -0.3699  0.2852
17600TIP3    H174291   0.406   5.665  12.834 -0.0465 -0.5893  1.1585
17600TIP3    H274292   0.545   5.616  12.867  0.3863 -0.3559 -0.2546
17601TIP3   OH274293   5.234   0.784  10.943  0.6309 -0.5452 -0.5654
17601TIP3    H174294   5.243   0.692  10.920 -1.2444 -1.0409  0.4282
17601TIP3    H274295   5.299   0.829  10.890  2.4692 -2.5544 -0.1786
17602TIP3   OH274296   1.412   4.180  12.400  0.6013 -1.0734  0.0904
17602TIP3    H174297   1.385   4.099  12.442  2.8103 -1.6605  0.5304
17602TIP3    H274298   1.384   4.249  12.461 -2.1428 -1.3425 -0.7370
17603TIP3   OH274299   3.420   2.822   4.657 -0.6285 -0.2079 -0.0835
17603TIP3    H174300   3.380   2.737   4.641 -0.5223 -0.4189  0.7348
17603TIP3    H274301   3.514   2.804   4.658 -0.6417 -0.7462  3.4133
17604TIP3   OH274302   6.361   4.128   3.322 -0.0034 -0.1702  0.2237
17604TIP3    H174303   6.350   4.174   3.239 -1.6123  0.0600  0.5317
17604TIP3    H274304   6.456   4.124   3.335  0.2232  1.7589 -0.5312
17605TIP3   OH274305   6.215   3.844   4.013  0.7100  0.3397  0.2701
17605TIP3    H174306   6.137   3.827   3.961  0.7223  2.8351 -0.6601
17605TIP3    H274307   6.236   3.759   4.053 -1.9691 -0.5757 -0.0986
17606TIP3   OH274308   5.081   2.063   4.964 -0.0282 -0.3738  0.4956
17606TIP3    H174309   5.051   2.124   5.031 -0.1032  0.1649 -0.0281
17606TIP3    H274310   5.006   2.005   4.949 -0.9419  1.1137 -0.9843
17607TIP3   OH274311   3.969   6.719  13.340  0.2335  0.0559  0.6494
17607TIP3    H174312   3.961   6.802  13.387 -0.4488  0.4529 -0.1452
17607TIP3    H274313   4.025   6.738  13.265 -1.9569  0.4899 -0.9811
17608TIP3   OH274314   3.381   2.398  13.878 -0.4804 -0.1609  0.4117
17608TIP3    H174315   3.355   2.419  13.788 -1.5268  0.4615  0.8328
17608TIP3    H274316   3.322   2.328  13.905 -0.7451  0.2327  0.8864
17609TIP3   OH274317   2.354   2.246   3.637 -0.0324  0.1619 -0.2075
17609TIP3    H174318   2.316   2.158   3.642 -0.1624  0.2650  0.6182
17609TIP3    H274319   2.357   2.265   3.543  0.3639 -0.8849 -0.4138
17610TIP3   OH274320   3.767   4.670   5.176  0.2595  0.1151  0.1290
17610TIP3    H174321   3.833   4.611   5.214  0.0882  0.1144  0.4274
17610TIP3    H274322   3.747   4.732   5.246  0.0577  0.2128 -0.0140
17611TIP3   OH274323   6.434   4.524   2.939  0.0076  0.7538 -0.0569
17611TIP3    H174324   6.408   4.501   2.850  0.7912  2.3532 -0.7289
17611TIP3    H274325   6.507   4.465   2.959  1.5216  2.0425 -1.4850
17612TIP3   OH274326   4.750   6.830   0.376  0.0785  0.5702  0.3172
17612TIP3    H174327   4.753   6.822   0.472  0.6183  2.9349  0.5562
17612TIP3    H274328   4.839   6.855   0.352 -0.3020  0.9849 -0.6850
17613TIP3   OH274329   1.441   2.834  14.602  0.3065  0.1251 -0.3666
17613TIP3    H174330   1.421   2.915  14.649 -0.3458 -1.5153  2.4214
17613TIP3    H274331   1.371   2.826  14.537 -1.1386  0.5349  1.0849
17614TIP3   OH274332   5.754   3.336   5.382  0.2420  0.3767 -0.3990
17614TIP3    H174333   5.775   3.430   5.377  1.7404 -0.0159 -3.5151
17614TIP3    H274334   5.675   3.326   5.330  0.8372 -0.2298 -1.2140
17615TIP3   OH274335   6.848   2.447  11.521  0.4242  0.2709  0.0015
17615TIP3    H174336   6.911   2.451  11.593 -0.6798  1.0101  0.9686
17615TIP3    H274337   6.766   2.418  11.562 -0.1041  0.2122 -1.0526
17616TIP3   OH274338   4.550   5.397  14.323 -0.2191  0.3895  0.1564
17616TIP3    H174339   4.575   5.310  14.293  0.0204 -0.2084  2.0024
17616TIP3    H274340   4.632   5.446  14.327 -0.3275  0.6705 -0.6669
17617TIP3   OH274341   2.304   1.945   5.239 -0.3292  0.0193  0.1744
17617TIP3    H174342   2.292   1.978   5.329  1.1009 -1.9970  1.1804
17617TIP3    H274343   2.387   1.985   5.211 -1.1017  1.1675 -0.5399
17618TIP3   OH274344   6.733   4.902   1.258 -0.0668  0.4923 -0.0513
17618TIP3    H174345   6.743   4.824   1.313 -1.3444  0.7578  0.5811
17618TIP3    H274346   6.811   4.954   1.276  0.5820 -0.4210 -0.1485
17619TIP3   OH274347   4.596   3.907   1.225  0.0387  0.2562 -0.4126
17619TIP3    H174348   4.655   3.852   1.174  0.2770 -1.4963  1.6182
17619TIP3    H274349   4.643   3.990   1.236  1.2368 -0.3802 -0.5646
17620TIP3   OH274350   0.386   0.613   3.671  0.1271  0.2229 -0.0507
17620TIP3    H174351   0.300   0.634   3.635  0.7576  2.9947 -0.1881
17620TIP3    H274352   0.392   0.664   3.751  1.5535 -0.0794  0.0774
17621TIP3   OH274353   2.934   6.832   1.149 -0.1564 -0.4679  0.8840
17621TIP3    H174354   2.939   6.909   1.206 -2.3641  2.4082 -2.3959
17621TIP3    H274355   2.860   6.782   1.183 -2.5930  2.1227 -0.1776
17622TIP3   OH274356   3.192   4.882  14.592 -0.4374  0.3583  0.5283
17622TIP3    H174357   3.128   4.953  14.602 -0.6065  0.4163 -0.7980
17622TIP3    H274358   3.228   4.895  14.504  0.8002 -0.1748  0.9379
17623TIP3   OH274359   0.911   5.489  12.561 -0.2064  0.7527 -0.3996
17623TIP3    H174360   0.994   5.528  12.585 -0.2727  0.5510  0.1580
17623TIP3    H274361   0.852   5.564  12.549 -0.2331  0.8468  0.2910
17624TIP3   OH274362   3.100   4.157  14.109  0.4126  0.4805 -0.5178
17624TIP3    H174363   3.085   4.081  14.165  0.9741 -0.0663 -1.0807
17624TIP3    H274364   3.140   4.222  14.166  1.4734 -0.2608 -0.3817
17625TIP3   OH274365   1.946   3.533  14.451  0.1859 -0.4962  0.0504
17625TIP3    H174366   1.908   3.544  14.539 -0.5217  0.7219 -0.3791
17625TIP3    H274367   1.891   3.588  14.395  0.8058 -1.0452 -1.1093
17626TIP3   OH274368   3.999   1.196   0.889  0.6377 -0.3901  0.1296
17626TIP3    H174369   3.936   1.172   0.820  1.1287  0.4927 -0.6561
17626TIP3    H274370   4.015   1.289   0.874  0.3067 -0.0381  1.8233
17627TIP3   OH274371   4.640   2.958   1.402 -0.8500 -0.3421 -0.4101
17627TIP3    H174372   4.617   3.048   1.422  0.9059  0.2819 -1.0356
17627TIP3    H274373   4.685   2.927   1.481  0.4089  0.0370 -0.9607
17628TIP3   OH274374   2.594   3.823   0.105  0.3036  0.3401  0.4326
17628TIP3    H174375   2.521   3.770   0.073  0.0236  0.9487  0.0387
17628TIP3    H274376   2.579   3.910   0.067  1.2340  0.4773  0.3446
17629TIP3   OH274377   4.950   6.560  13.155 -0.0782 -0.2305  0.2271
17629TIP3    H174378   4.959   6.567  13.060  1.0143 -1.2176  0.2393
17629TIP3    H274379   4.980   6.645  13.188 -0.3963  0.0915 -0.2916
17630TIP3   OH274380   5.405   2.122   3.812 -0.0522 -0.0868 -0.1534
17630TIP3    H174381   5.439   2.207   3.784  1.0272  0.1914  1.8359
17630TIP3    H274382   5.429   2.062   3.741  1.2483  0.8336 -0.5243
17631TIP3   OH274383   5.483   3.316   2.924 -0.2206  0.1240  0.1730
17631TIP3    H174384   5.574   3.289   2.907 -0.3176 -0.4095  0.4624
17631TIP3    H274385   5.445   3.241   2.970 -1.7602 -1.0705 -2.7890
17632TIP3   OH274386   3.579   0.009  15.056 -0.0988  0.0468  0.0159
17632TIP3    H174387   3.672  -0.010  15.069 -0.4282 -1.9329 -0.1948
17632TIP3    H274388   3.573   0.038  14.965  0.3012  0.1761  0.0273
17633TIP3   OH274389   3.665   4.860   5.347 -0.2509  0.2742  0.3812
17633TIP3    H174390   3.670   4.943   5.393 -1.2285  0.2850  0.4918
17633TIP3    H274391   3.574   4.854   5.318  0.6300  0.9517 -2.8423
17634TIP3   OH274392   3.966   1.241   1.574 -0.1258 -0.0241  0.5413
17634TIP3    H174393   3.936   1.151   1.590  3.4841 -1.4389  0.4445
17634TIP3    H274394   4.044   1.249   1.629  0.2744  2.6998 -0.3153
17635TIP3   OH274395   3.777   4.798  14.643  0.2074 -0.1380  0.0999
17635TIP3    H174396   3.787   4.847  14.725 -0.1273 -1.3460  0.8911
17635TIP3    H274397   3.730   4.858  14.585  1.0026  0.9726  0.5588
17636TIP3   OH274398   2.020   0.034  15.509 -0.0419 -0.2342  0.5302
17636TIP3    H174399   2.000  -0.019  15.431 -0.2678  0.1175  0.3444
17636TIP3    H274400   2.113   0.056  15.500 -0.4735  1.2894 -0.5729
17637TIP3   OH274401   2.974   1.258  16.490 -0.1239 -0.2643  0.0188
17637TIP3    H174402   3.005   1.310  16.416 -1.4315 -0.8938 -1.0157
17637TIP3    H274403   2.884   1.288  16.505  0.4951  0.7611  2.2434
17638TIP3   OH274404   3.600   3.301  12.006  0.0587 -0.3014  0.2526
17638TIP3    H174405   3.572   3.248  11.932 -0.2266  1.3968 -0.9244
17638TIP3    H274406   3.598   3.241  12.081  2.3609 -2.6730 -1.3997
17639TIP3   OH274407   6.546   4.903  15.034  0.6809 -0.1076 -0.1144
17639TIP3    H174408   6.604   4.835  15.069 -0.6258 -0.9333  0.5445
17639TIP3    H274409   6.538   4.882  14.941  0.3119 -0.8644  0.0777
17640TIP3   OH274410   6.294   5.158   4.510  0.4368 -0.3511  0.3910
17640TIP3    H174411   6.204   5.127   4.514 -0.3143  1.7014  0.7230
17640TIP3    H274412   6.294   5.224   4.440  1.8293 -0.7375 -0.0103
17641TIP3   OH274413   3.057   3.418  16.163 -0.3491  0.3991 -0.2053
17641TIP3    H174414   2.981   3.460  16.124  0.1497  0.5080 -1.0820
17641TIP3    H274415   3.130   3.443  16.106  0.0912 -1.0164 -0.2922
17642TIP3   OH274416   3.508   4.249   6.386  0.0350 -0.2691 -0.5679
17642TIP3    H174417   3.570   4.276   6.454  0.4835 -0.3161 -0.9519
17642TIP3    H274418   3.490   4.330   6.337  1.1049 -0.5711 -1.4989
17643TIP3   OH274419   3.153   5.114  14.164  0.0309 -0.0634 -0.1236
17643TIP3    H174420   3.176   5.078  14.078  0.5898 -0.4202  0.1669
17643TIP3    H274421   3.058   5.109  14.168 -0.0814  0.8816 -1.1259
17644TIP3   OH274422   0.848   1.939   5.254 -0.1335  0.8263 -0.0603
17644TIP3    H174423   0.829   1.850   5.282  0.7994  0.6480  0.0340
17644TIP3    H274424   0.774   1.991   5.286  0.0435  0.3288  1.1939
17645TIP3   OH274425   1.022   2.573   0.910  0.1283 -0.7078 -0.1916
17645TIP3    H174426   0.941   2.625   0.919  0.0933 -0.7177 -0.4450
17645TIP3    H274427   0.992   2.485   0.890  0.2185 -0.5155 -1.2234
17646TIP3   OH274428   1.651   6.157  16.297 -0.1442 -0.2685  0.1342
17646TIP3    H174429   1.678   6.115  16.379  1.3338 -0.4017 -0.3989
17646TIP3    H274430   1.672   6.249  16.310  0.6698 -0.3833 -0.3090
17647TIP3   OH274431   6.681   5.293  16.049  0.7246  0.2880  0.1501
17647TIP3    H174432   6.695   5.209  16.093 -0.2366  0.1616  0.2440
17647TIP3    H274433   6.744   5.352  16.091  2.1243 -0.6019 -0.6164
17648TIP3   OH274434   0.726   1.844   5.573  0.2488  0.5834  0.1929
17648TIP3    H174435   0.781   1.818   5.500 -0.0877  0.9697 -0.1997
17648TIP3    H274436   0.760   1.928   5.601 -1.5927  2.0099 -1.5967
17649TIP3   OH274437   6.267   2.699   6.710 -0.0566  0.0972  0.2428
17649TIP3    H174438   6.340   2.759   6.693 -0.0495  0.4828  1.5690
17649TIP3    H274439   6.229   2.729   6.793 -0.0967 -1.6990  0.9085
17650TIP3   OH274440   4.315   5.693  11.700  0.0780  0.4097 -0.3005
17650TIP3    H174441   4.369   5.680  11.622 -0.2896 -1.4576 -0.2792
17650TIP3    H274442   4.270   5.610  11.712 -1.0476  1.1783  1.0276
17651TIP3   OH274443   2.654   2.842   2.973  0.5640  0.2706  0.6713
17651TIP3    H174444   2.587   2.773   2.969  1.1638 -0.3416  0.8945
17651TIP3    H274445   2.719   2.816   2.908 -0.2722  1.8390 -0.8844
17652TIP3   OH274446   4.920   4.306  13.640 -0.2648 -0.2247 -0.6992
17652TIP3    H174447   4.836   4.260  13.640  0.2546 -1.2152 -0.8557
17652TIP3    H274448   4.926   4.344  13.552 -0.0223 -1.2024 -1.1276
17653TIP3   OH274449   5.953   5.333  13.112 -0.1947  0.0814 -0.7201
17653TIP3    H174450   6.011   5.369  13.180 -0.7897  2.2097 -1.2623
17653TIP3    H274451   5.901   5.268  13.158  1.8946 -1.1807  0.0054
17654TIP3   OH274452   6.025   4.159  10.895 -0.3966  0.2037  0.1715
17654TIP3    H174453   5.984   4.101  10.831 -0.0357  0.8608 -0.6620
17654TIP3    H274454   5.983   4.244  10.881  1.5877  1.0390 -1.0845
17655TIP3   OH274455   6.278   2.818   5.181  0.1757 -0.0236 -0.3722
17655TIP3    H174456   6.367   2.833   5.149  0.4375 -1.4799 -0.3918
17655TIP3    H274457   6.270   2.722   5.186 -0.9993  0.1089  0.7249
17656TIP3   OH274458   4.256   1.320   4.483  0.1396 -0.1960 -0.5441
17656TIP3    H174459   4.300   1.270   4.552  2.2701  0.0399 -1.6492
17656TIP3    H274460   4.222   1.397   4.528 -0.9695 -1.3703  0.7217
17657TIP3   OH274461   1.079   4.539   2.214  0.2788  0.1722  0.3868
17657TIP3    H174462   1.015   4.571   2.278  2.4462  0.0827  2.7255
17657TIP3    H274463   1.033   4.469   2.167 -1.5938  0.6728  1.3771
17658TIP3   OH274464   6.503   3.069  15.924 -0.7580 -0.7268 -0.2361
17658TIP3    H174465   6.535   3.137  15.864  1.8029 -1.2029  0.4489
17658TIP3    H274466   6.451   3.116  15.988  0.1716  0.4726 -0.3267
17659TIP3   OH274467   5.559   4.950  12.188  0.1383 -0.2095  0.4634
17659TIP3    H174468   5.467   4.925  12.178 -0.2218  1.0146  0.5960
17659TIP3    H274469   5.560   5.045  12.178  1.2768 -0.1124  1.2648
17660TIP3   OH274470   5.051   4.839  16.851  0.0405  0.5291 -0.4935
17660TIP3    H174471   5.120   4.905  16.855 -0.7071  1.2927  2.6962
17660TIP3    H274472   4.972   4.885  16.879 -0.7794 -1.3887  0.5268
17661TIP3   OH274473   3.917   6.009  15.853 -0.7711 -0.1274  0.1432
17661TIP3    H174474   3.873   6.081  15.808  0.4410 -0.8423 -2.3269
17661TIP3    H274475   3.995   6.050  15.891 -0.4251 -0.0084 -0.6862
17662TIP3   OH274476   1.483   4.893   2.230 -0.3997 -0.1704  0.3156
17662TIP3    H174477   1.443   4.907   2.144 -1.1101 -3.1857  0.0563
17662TIP3    H274478   1.411   4.867   2.287  0.5978 -2.0574  0.7936
17663TIP3   OH274479   0.576   5.297   1.615 -0.5529  0.1760 -0.8049
17663TIP3    H174480   0.501   5.270   1.561 -1.3355  0.2177  0.2191
17663TIP3    H274481   0.538   5.357   1.679 -0.0870 -1.5062  1.1475
17664TIP3   OH274482   4.092   4.773  14.279 -0.1319 -0.3178 -0.1865
17664TIP3    H174483   4.061   4.834  14.213  0.1003 -1.5361 -1.4643
17664TIP3    H274484   4.060   4.688  14.250  1.0517 -1.0616  0.5878
17665TIP3   OH274485   6.719   5.008   2.300  0.2759 -0.4971 -0.8847
17665TIP3    H174486   6.806   5.049   2.310  0.3652 -0.1825 -2.6399
17665TIP3    H274487   6.679   5.055   2.227 -2.0452  0.4391  0.8453
17666TIP3   OH274488   6.713   1.525   2.860 -0.2561 -0.3643  0.2168
17666TIP3    H174489   6.741   1.505   2.949  2.2238  0.6339 -0.2532
17666TIP3    H274490   6.626   1.485   2.852  0.2228 -2.0405  2.4653
17667TIP3   OH274491   5.146   3.014   1.489 -0.2992 -0.0713 -0.0842
17667TIP3    H174492   5.208   3.036   1.419 -1.7154  1.2262 -0.9781
17667TIP3    H274493   5.110   2.929   1.462 -0.3327  0.0924 -0.5646
17668TIP3   OH274494   6.254   5.269  16.700  0.1937  0.0023  0.1487
17668TIP3    H174495   6.245   5.204  16.770  1.7123 -1.8372 -1.2602
17668TIP3    H274496   6.348   5.281  16.690  0.0117  0.3681 -1.4127
17669TIP3   OH274497   6.433   4.379  13.188 -0.4562 -0.0795 -0.4566
17669TIP3    H174498   6.413   4.412  13.100  1.0818 -1.1671 -1.2546
17669TIP3    H274499   6.375   4.304  13.200  0.6479 -1.1213 -1.3677
17670TIP3   OH274500   0.502   0.340   0.571  0.1323 -0.0446  0.0798
17670TIP3    H174501   0.452   0.415   0.538 -1.6254 -0.9325  0.6161
17670TIP3    H274502   0.533   0.368   0.657 -0.0401  0.2462  0.0491
17671TIP3   OH274503   2.061   0.760   2.206  0.6060  0.3193  0.3165
17671TIP3    H174504   2.075   0.671   2.174 -0.6079 -0.3811  1.6098
17671TIP3    H274505   2.127   0.772   2.275  0.3324  0.1598  0.6088
17672TIP3   OH274506   6.763   1.787  13.769  0.3045  0.8121 -0.0393
17672TIP3    H174507   6.722   1.873  13.757  4.1574  3.1183  1.4067
17672TIP3    H274508   6.809   1.771  13.686  0.4300  0.6896  0.0543
17673TIP3   OH274509   0.686   5.204   1.851 -0.2977  0.7921  0.3187
17673TIP3    H174510   0.601   5.164   1.864 -0.0996  0.4303  0.5160
17673TIP3    H274511   0.687   5.229   1.758 -0.9631  1.6323  0.5285
17674TIP3   OH274512   6.749   2.728   0.779  0.6778 -0.1179 -0.1417
17674TIP3    H174513   6.783   2.652   0.827  0.3035  1.2726  2.5251
17674TIP3    H274514   6.663   2.700   0.747  0.9438 -1.1036 -0.0261
17675TIP3   OH274515   5.025   1.191   3.831 -0.6610  0.4280 -0.1391
17675TIP3    H174516   4.963   1.124   3.862  0.4625 -0.4831  0.2135
17675TIP3    H274517   4.999   1.270   3.877 -0.1487 -0.4862  1.8299
17676TIP3   OH274518   1.058   5.376  10.364  0.4821 -0.0652  0.4092
17676TIP3    H174519   1.153   5.361  10.360  1.2489  3.9629 -1.6679
17676TIP3    H274520   1.045   5.423  10.446  0.8459  1.8336 -0.5681
17677TIP3   OH274521   3.031   1.457  12.030  0.2669  0.0596 -0.3206
17677TIP3    H174522   2.938   1.437  12.036  0.5524 -1.0384  0.8450
17677TIP3    H274523   3.039   1.509  11.950 -1.0842 -1.3745 -1.4403
17678TIP3   OH274524   6.178   4.338   3.391  0.1689 -0.4456 -0.2912
17678TIP3    H174525   6.237   4.385   3.332 -1.2106 -0.8738 -2.1006
17678TIP3    H274526   6.207   4.246   3.386  0.9341 -0.2872  0.8485
17679TIP3   OH274527   4.857   4.287   3.538 -0.0665 -0.2455 -0.0373
17679TIP3    H174528   4.877   4.368   3.585 -1.8732  1.1034 -1.4178
17679TIP3    H274529   4.785   4.247   3.588  0.4896 -0.7535  0.3657
17680TIP3   OH274530   0.724   0.387  10.788 -0.6501 -0.0277 -0.1155
17680TIP3    H174531   0.704   0.294  10.784 -2.4190  0.3210 -0.0520
17680TIP3    H274532   0.700   0.421  10.702  0.2522  0.3480 -0.2367
17681TIP3   OH274533   1.657   5.096   4.322  0.2621 -0.2174 -0.4250
17681TIP3    H174534   1.717   5.157   4.365  0.1722 -0.0694 -0.5079
17681TIP3    H274535   1.713   5.034   4.277  0.3770  0.8975 -1.9083
17682TIP3   OH274536   6.013   5.192  15.573 -0.4747 -0.0823 -0.0683
17682TIP3    H174537   5.924   5.227  15.573  0.5225  3.2409 -3.7430
17682TIP3    H274538   6.016   5.135  15.496  0.5965 -0.1124 -0.0201
17683TIP3   OH274539   2.172   2.783  15.177  0.6259 -0.2950 -0.4035
17683TIP3    H174540   2.129   2.853  15.225  1.5582 -1.7301  2.8057
17683TIP3    H274541   2.101   2.729  15.143 -0.0736  0.9278 -0.9071
17684TIP3   OH274542   0.051   6.231   3.696  0.3613 -0.5126  0.3916
17684TIP3    H174543   0.033   6.295   3.627  0.2161 -0.3901  0.5449
17684TIP3    H274544   0.011   6.150   3.664  1.1974 -0.7267 -0.1554
17685TIP3   OH274545   1.302   4.471  15.568 -0.4292  0.1094 -0.1818
17685TIP3    H174546   1.221   4.421  15.561 -0.1350 -0.2496 -1.2273
17685TIP3    H274547   1.370   4.409  15.541  0.2029  0.3962  0.7228
17686TIP3   OH274548   3.297   0.209   1.981 -0.2395 -0.1069 -0.4134
17686TIP3    H174549   3.255   0.143   2.036  0.3189 -1.1794 -1.2339
17686TIP3    H274550   3.387   0.215   2.015 -0.3175  0.3302 -0.2701
17687TIP3   OH274551   4.409   3.241   0.191 -0.4802  0.2983 -0.3629
17687TIP3    H174552   4.332   3.297   0.200 -0.8514 -0.2248 -0.2640
17687TIP3    H274553   4.379   3.154   0.216  0.0505  0.0182 -0.6809
17688TIP3   OH274554   3.073   6.486  10.574  0.1546 -0.0995  0.1295
17688TIP3    H174555   3.078   6.464  10.481  0.0601 -0.0789  0.1193
17688TIP3    H274556   3.143   6.435  10.615  1.1469  0.9836 -0.1601
17689TIP3   OH274557   6.748   0.946  14.902  0.3606 -0.6886 -0.3591
17689TIP3    H174558   6.840   0.928  14.883  0.4549  0.6665 -1.4117
17689TIP3    H274559   6.710   0.861  14.918  1.3910 -1.5100 -1.9260
17690TIP3   OH274560   4.360   1.075   2.046 -0.2671 -0.2183 -0.1482
17690TIP3    H174561   4.391   1.030   2.125  0.3265  1.2512  0.5067
17690TIP3    H274562   4.319   1.007   1.993 -0.2740 -1.3245  1.2282
17691TIP3   OH274563   3.635   5.083   4.825 -0.4569  0.2850  0.6825
17691TIP3    H174564   3.593   5.019   4.883  0.9925  0.4257  1.9167
17691TIP3    H274565   3.699   5.032   4.776 -0.6635  0.4441  0.2400
17692TIP3   OH274566   1.563   6.680  16.790  0.6535 -0.4256  0.3210
17692TIP3    H174567   1.559   6.774  16.810 -0.7270 -0.4464  0.2458
17692TIP3    H274568   1.656   6.663  16.775  0.8219  1.1397 -0.6673
17693TIP3   OH274569   3.813   1.754   6.247  0.4586  0.0203  0.1361
17693TIP3    H174570   3.819   1.702   6.328 -1.2730  2.0745  1.7017
17693TIP3    H274571   3.729   1.727   6.208 -0.0316  0.9599  0.5079
17694TIP3   OH274572   6.563   5.607   1.469  0.4809  0.0413  0.8382
17694TIP3    H174573   6.512   5.673   1.516 -0.4021 -1.4541  2.1164
17694TIP3    H274574   6.652   5.618   1.501  0.3828  0.7385  0.8868
17695TIP3   OH274575   6.392   1.780   3.794  0.6509 -0.5984  0.4315
17695TIP3    H174576   6.435   1.832   3.862  0.2433 -0.2322  0.4193
17695TIP3    H274577   6.448   1.704   3.782  0.3400 -1.0428  1.7166
17696TIP3   OH274578   6.788   4.155   0.949  0.8242  1.0611  0.5013
17696TIP3    H174579   6.854   4.218   0.920  2.3085 -0.6563 -0.0229
17696TIP3    H274580   6.792   4.085   0.884 -0.2814  0.0858  1.4420
17697TIP3   OH274581   3.277   1.161   3.309  0.1125  0.1622 -0.1543
17697TIP3    H174582   3.306   1.218   3.380  2.5271  0.6386 -1.3925
17697TIP3    H274583   3.181   1.162   3.314  0.1614  1.9802  1.6606
17698TIP3   OH274584   5.431   0.911  16.918 -0.7376 -0.6015  0.4372
17698TIP3    H174585   5.513   0.901  16.966 -0.8248 -0.9060  0.5253
17698TIP3    H274586   5.428   0.835  16.860 -1.0717 -0.7147  0.6027
17699TIP3   OH274587   3.480   2.332  15.347  0.7633  0.5267 -0.3685
17699TIP3    H174588   3.562   2.377  15.362 -0.1723  2.5892 -1.0783
17699TIP3    H274589   3.413   2.395  15.373 -0.6680 -2.0841  2.9683
17700TIP3   OH274590   4.729   1.129   0.420  0.0883  0.2187  0.9981
17700TIP3    H174591   4.780   1.161   0.495  0.4858  0.2395  0.7213
17700TIP3    H274592   4.727   1.203   0.359 -1.1845  0.5875  1.4555
17701TIP3   OH274593   0.291   6.199  10.904 -0.2994 -0.0110 -1.0739
17701TIP3    H174594   0.349   6.237  10.838  0.5952  0.9185  0.1856
17701TIP3    H274595   0.203   6.213  10.870  0.0894  1.6409 -1.4815
17702TIP3   OH274596   6.797   5.774  12.503  0.1684  0.3213  0.2315
17702TIP3    H174597   6.760   5.837  12.442 -1.1711  0.1977  0.8809
17702TIP3    H274598   6.808   5.694  12.452  0.7536  0.7280 -0.2931
17703TIP3   OH274599   6.574   4.017  13.842 -0.2331  0.9004 -0.2530
17703TIP3    H174600   6.613   3.942  13.886 -0.4416  1.1799  0.4230
17703TIP3    H274601   6.542   4.073  13.913 -1.6540  0.7841 -0.7721
17704TIP3   OH274602   3.096   5.427  16.364 -0.6345  0.1329 -0.4006
17704TIP3    H174603   3.178   5.431  16.412 -0.5650  3.0937 -0.5902
17704TIP3    H274604   3.119   5.451  16.274 -1.5158 -0.3407 -0.7660
17705TIP3   OH274605   1.772   2.130   3.922 -0.4395  0.5511 -0.4437
17705TIP3    H174606   1.758   2.194   3.852  0.3805  2.1352  0.7598
17705TIP3    H274607   1.774   2.182   4.003  1.5783 -0.7890  0.4813
17706TIP3   OH274608   5.804   5.733  11.668 -0.5557 -0.0421 -0.6766
17706TIP3    H174609   5.844   5.680  11.599  0.2786  0.6122 -0.7085
17706TIP3    H274610   5.863   5.725  11.742 -0.9437  0.0419 -0.3544
17707TIP3   OH274611   1.376   0.822  14.932 -0.5486  0.0081 -1.2739
17707TIP3    H174612   1.304   0.759  14.925 -0.5801  0.1222 -2.0661
17707TIP3    H274613   1.358   0.887  14.864  0.1048  0.2383 -1.2368
17708TIP3   OH274614   4.296   6.648  16.958  0.1492  0.7654  0.9387
17708TIP3    H174615   4.387   6.644  16.927  0.2134  0.8597  1.1143
17708TIP3    H274616   4.284   6.567  17.008 -0.1596  0.2914  0.1217
17709TIP3   OH274617   1.777   4.864   1.999 -0.1894 -0.7694 -0.4419
17709TIP3    H174618   1.684   4.840   2.005 -0.2152 -0.6954 -0.5367
17709TIP3    H274619   1.776   4.947   1.951  0.0034 -1.2838 -1.3589
17710TIP3   OH274620   5.880   3.366   1.767 -0.0034  0.4090  0.3406
17710TIP3    H174621   5.797   3.340   1.806  0.6698 -0.5119  1.2004
17710TIP3    H274622   5.917   3.284   1.734  0.7844  0.7444  0.3826
17711TIP3   OH274623   4.688   1.840   3.701 -0.2414 -0.0634 -0.5863
17711TIP3    H174624   4.661   1.822   3.792 -1.4365  1.8854 -0.5150
17711TIP3    H274625   4.621   1.899   3.667  0.1439 -0.8155 -2.7973
17712TIP3   OH274626   2.996   1.878  12.394 -0.0619 -0.3638 -0.2125
17712TIP3    H174627   3.059   1.808  12.410 -1.4142 -2.0304 -1.8130
17712TIP3    H274628   2.933   1.870  12.466 -0.1718 -0.7405 -0.3511
17713TIP3   OH274629   5.257   6.105  11.562  0.2198  0.2148  0.1620
17713TIP3    H174630   5.175   6.136  11.600 -0.2095  0.2417 -0.7765
17713TIP3    H274631   5.297   6.053  11.633 -1.8541 -2.0663 -0.1747
17714TIP3   OH274632   2.774   2.587   4.708  0.8095  0.4435 -0.4039
17714TIP3    H174633   2.733   2.501   4.700  1.5327 -0.0316  0.8201
17714TIP3    H274634   2.735   2.626   4.786  0.8893  1.0006 -0.6376
17715TIP3   OH274635   0.949   0.019  11.077  0.6368  0.0615  0.0575
17715TIP3    H174636   1.025  -0.023  11.118  0.8076  0.7768  0.4996
17715TIP3    H274637   0.877  -0.041  11.094  1.4678 -1.7660 -2.3179
17716TIP3   OH274638   0.401   6.440  14.587  1.0821 -0.4292  0.0142
17716TIP3    H174639   0.451   6.516  14.619 -0.8133  1.2002 -0.6749
17716TIP3    H274640   0.406   6.377  14.659  2.2099  0.5804  0.8822
17717TIP3   OH274641   4.463   3.594   0.801  0.4487 -0.1516 -0.0559
17717TIP3    H174642   4.433   3.665   0.858  0.6143 -0.1484  0.0291
17717TIP3    H274643   4.450   3.515   0.854  0.0112 -0.2121 -0.2517
17718TIP3   OH274644   0.392   3.998  11.605  0.1189  0.6436  0.0503
17718TIP3    H174645   0.374   3.935  11.536  0.4320 -0.8386  1.2540
17718TIP3    H274646   0.340   4.075  11.583  0.5475  0.3775 -2.0262
17719TIP3   OH274647   0.417   5.395  16.321 -0.5803  0.0253  0.3740
17719TIP3    H174648   0.343   5.455  16.311  0.1137  1.2072  1.8259
17719TIP3    H274649   0.494   5.452  16.320  0.2385 -1.0604 -0.0469
17720TIP3   OH274650   0.815   4.834  15.680  0.1448  0.0689  0.5919
17720TIP3    H174651   0.742   4.895  15.693 -0.6656 -0.4065 -1.3425
17720TIP3    H274652   0.882   4.863  15.742 -0.2622  2.8062 -0.1301
17721TIP3   OH274653   4.944   3.420   5.538  0.2549 -0.1433 -0.0038
17721TIP3    H174654   4.853   3.440   5.517 -0.2702 -1.4908  0.8170
17721TIP3    H274655   4.939   3.360   5.612  1.8295 -0.0828  0.1992
17722TIP3   OH274656   5.092   2.490  15.805 -0.4974  0.1828  0.6174
17722TIP3    H174657   5.117   2.446  15.724  0.7430  0.4201  0.8358
17722TIP3    H274658   5.068   2.578  15.778  0.0561  0.3059  0.5157
17723TIP3   OH274659   4.429   4.400   0.584  0.0630  0.1674 -0.0964
17723TIP3    H174660   4.418   4.311   0.619  0.1935  0.2071  0.0504
17723TIP3    H274661   4.399   4.394   0.493  0.1540 -0.0481 -0.1137
17724TIP3   OH274662   4.903   4.480  12.349 -0.1332 -0.4249 -0.3134
17724TIP3    H174663   4.954   4.478  12.267  2.0432  2.1727  0.8494
17724TIP3    H274664   4.833   4.543  12.332  1.2560  1.3289  0.2564
17725TIP3   OH274665   4.767   1.894   1.235 -0.4359  0.1056  0.2436
17725TIP3    H174666   4.814   1.977   1.228  0.5586 -0.3081  1.6212
17725TIP3    H274667   4.709   1.905   1.310 -0.5847 -0.2922  0.1906
17726TIP3   OH274668   2.334   1.624   1.513  0.5640  0.6519  0.2749
17726TIP3    H174669   2.425   1.594   1.512  0.7229  1.1480 -0.3276
17726TIP3    H274670   2.309   1.621   1.606  1.2769  0.7682  0.4754
17727TIP3   OH274671   3.620   6.413  15.918  0.2175  0.1792 -0.0672
17727TIP3    H174672   3.529   6.394  15.942  0.5198  0.4882  1.4340
17727TIP3    H274673   3.616   6.440  15.827 -1.1973  0.1865 -0.0220
17728TIP3   OH274674   2.647   6.006   2.747 -0.3373  0.6453  0.6080
17728TIP3    H174675   2.684   6.004   2.658 -0.2542  1.1877  0.6274
17728TIP3    H274676   2.552   6.007   2.732 -0.3233  1.4424  0.4967
17729TIP3   OH274677   3.856   1.274   3.443  0.4759 -0.2214 -0.3960
17729TIP3    H174678   3.888   1.230   3.522  1.9927 -0.1893 -0.9568
17729TIP3    H274679   3.770   1.309   3.468  1.2650  0.4993  1.5104
17730TIP3   OH274680   0.801   2.266  16.637 -0.2232  0.7645 -0.5666
17730TIP3    H174681   0.707   2.256  16.647 -0.1518  0.7620  0.1695
17730TIP3    H274682   0.838   2.218  16.711  0.2860  2.4615  0.3454
17731TIP3   OH274683   4.290   2.846   2.238  0.0622 -0.8335  0.2599
17731TIP3    H174684   4.241   2.846   2.156  0.7469  0.4605 -0.1769
17731TIP3    H274685   4.373   2.802   2.216  0.2312 -0.5204  0.2655
17732TIP3   OH274686   0.810   2.225  15.587 -0.0965  0.1992  0.2097
17732TIP3    H174687   0.767   2.278  15.653 -1.3395 -0.8129  0.2389
17732TIP3    H274688   0.745   2.216  15.517  0.7953  0.3146 -0.6638
17733TIP3   OH274689   6.113   4.075  12.643 -0.3508 -0.2345 -0.1435
17733TIP3    H174690   6.064   4.108  12.568 -0.4223  2.2257  0.9090
17733TIP3    H274691   6.191   4.034  12.604 -1.4567 -1.0400 -1.6333
17734TIP3   OH274692   2.428   4.519   1.195 -0.4226 -0.0804 -0.2481
17734TIP3    H174693   2.495   4.511   1.128  1.0352  1.3419  0.9517
17734TIP3    H274694   2.449   4.601   1.240 -2.2318 -0.2353  0.9766
17735TIP3   OH274695   1.499   3.117  13.739 -0.3532 -0.3165  0.4098
17735TIP3    H174696   1.428   3.070  13.782  1.6117 -1.2089  2.9423
17735TIP3    H274697   1.482   3.209  13.758 -0.1795 -0.6144  2.1879
17736TIP3   OH274698   1.489   0.831   4.391 -0.6318 -0.2590 -0.4188
17736TIP3    H174699   1.561   0.851   4.450  0.8719  1.4425 -2.6738
17736TIP3    H274700   1.529   0.826   4.305 -3.0297 -0.6073 -1.5956
17737TIP3   OH274701   1.674   2.832  11.894 -0.3246 -0.3911 -0.2369
17737TIP3    H174702   1.637   2.821  11.981 -2.2794  0.0148 -0.9683
17737TIP3    H274703   1.746   2.893  11.906  0.0774 -1.1246  1.2344
17738TIP3   OH274704   5.803   6.864  16.197  0.2859 -0.0391  0.0025
17738TIP3    H174705   5.858   6.910  16.134 -1.2947 -0.8858 -2.1368
17738TIP3    H274706   5.770   6.788  16.148  0.3618 -1.7365  2.4293
17739TIP3   OH274707   1.707   2.326   3.159 -0.2280 -0.5500  0.8372
17739TIP3    H174708   1.673   2.415   3.147 -3.9850 -1.8028  0.9968
17739TIP3    H274709   1.727   2.322   3.253  4.6400  1.3957  0.1737
17740TIP3   OH274710   4.367   2.042   3.353 -0.3102 -0.1228 -0.4626
17740TIP3    H174711   4.326   2.034   3.266  0.2122  0.6652 -0.7875
17740TIP3    H274712   4.426   2.117   3.345 -1.5342  1.0611  1.0864
17741TIP3   OH274713   0.556   1.882  11.201  0.3434  0.1644 -0.3221
17741TIP3    H174714   0.599   1.878  11.286 -0.5950  1.9782  0.2770
17741TIP3    H274715   0.482   1.822  11.209 -0.9483  1.8432  0.9079
17742TIP3   OH274716   2.743   2.927   4.036  0.0991  0.3990 -0.4058
17742TIP3    H174717   2.766   2.977   3.958  1.2189  0.9343  0.2374
17742TIP3    H274718   2.781   2.977   4.108 -0.9587 -0.0574  0.4931
17743TIP3   OH274719   4.154   4.055  14.382  0.0834 -0.8332 -0.1281
17743TIP3    H174720   4.208   4.049  14.304 -0.9038 -0.6574 -0.8458
17743TIP3    H274721   4.216   4.047  14.455  1.0127 -1.0284 -0.9179
17744TIP3   OH274722   3.247   1.122  13.754 -0.1375  0.4790  0.4782
17744TIP3    H174723   3.221   1.086  13.669 -0.8993  0.7869  0.5676
17744TIP3    H274724   3.299   1.200  13.732 -0.2812  0.5242  0.2923
17745TIP3   OH274725   0.476   2.826   1.840 -0.2729  0.5314 -0.4169
17745TIP3    H174726   0.516   2.742   1.819 -2.2823 -1.1010  1.6877
17745TIP3    H274727   0.543   2.873   1.890  1.3118  0.7871 -2.6344
17746TIP3   OH274728   2.260   4.426  15.366 -0.0106 -0.7620 -0.2608
17746TIP3    H174729   2.324   4.400  15.300 -1.3791  0.9770 -2.3851
17746TIP3    H274730   2.180   4.380  15.341 -0.4033 -0.5772  0.6058
17747TIP3   OH274731   4.527   4.427  10.753  0.5051  0.1377  0.4977
17747TIP3    H174732   4.482   4.344  10.771  1.0035 -0.0913  0.7162
17747TIP3    H274733   4.594   4.405  10.689  0.8667  0.3006  0.8158
17748TIP3   OH274734   5.160   3.630  16.860  0.8920  0.1370  0.6702
17748TIP3    H174735   5.235   3.658  16.808 -0.2544  0.0174 -1.1136
17748TIP3    H274736   5.191   3.552  16.907  1.7861 -0.0855 -0.2635
17749TIP3   OH274737   3.161   4.160  16.471 -0.3616  0.3300 -0.2850
17749TIP3    H174738   3.134   4.137  16.382 -0.7421  0.0807 -0.1075
17749TIP3    H274739   3.079   4.185  16.515 -0.4885 -1.4194  0.5677
17750TIP3   OH274740   2.881   5.881  16.560  0.4103  0.6791 -0.4348
17750TIP3    H174741   2.829   5.949  16.604 -0.9059 -0.6948  0.2387
17750TIP3    H274742   2.839   5.799  16.586  2.0011 -0.4077 -1.1605
17751TIP3   OH274743   4.066   5.555  14.053  0.5429 -0.1620  0.2991
17751TIP3    H174744   3.985   5.587  14.092  0.2997  0.2805 -0.5358
17751TIP3    H274745   4.127   5.546  14.126  0.3572  1.4235  0.6675
17752TIP3   OH274746   3.494   4.993   3.930 -0.3397  0.7423 -0.1113
17752TIP3    H174747   3.584   4.985   3.962 -0.9352 -1.7745  1.1697
17752TIP3    H274748   3.470   5.083   3.950  1.3120  0.9587  1.1902
17753TIP3   OH274749   5.599   4.926  14.383  0.0647  0.0245 -0.2885
17753TIP3    H174750   5.515   4.882  14.371 -0.0334  0.6008 -1.9115
17753TIP3    H274751   5.579   5.001  14.439 -0.3552 -0.2479 -0.0681
17754TIP3   OH274752   3.508   5.606   2.937 -0.3727 -0.3069  0.3489
17754TIP3    H174753   3.549   5.522   2.955  0.4669 -0.4116 -1.6740
17754TIP3    H274754   3.414   5.588   2.934 -0.2029 -1.1878 -0.0240
17755TIP3   OH274755   0.658   5.489   1.408  0.0670  0.5467 -0.1300
17755TIP3    H174756   0.664   5.482   1.503 -1.8754  1.0574  0.0824
17755TIP3    H274757   0.681   5.402   1.376  0.8236  0.3938  0.7952
17756TIP3   OH274758   2.144   2.516   2.523  0.0157  0.1347  0.0857
17756TIP3    H174759   2.132   2.608   2.548 -2.7524 -0.0412 -0.2706
17756TIP3    H274760   2.136   2.516   2.427  1.9544 -0.2714 -0.1081
17757TIP3   OH274761   5.011   6.104   0.814  0.4712  0.2537  0.2273
17757TIP3    H174762   5.028   6.034   0.751 -1.1759  0.0622 -0.0690
17757TIP3    H274763   4.926   6.080   0.852  1.1097  0.7396  2.0199
17758TIP3   OH274764   4.875   0.381  11.506 -0.1314 -0.6700  0.7560
17758TIP3    H174765   4.885   0.403  11.599  0.2153  0.2694  0.5148
17758TIP3    H274766   4.939   0.437  11.462 -1.9142  0.6909 -0.2694
17759TIP3   OH274767   0.725   6.599  16.904 -0.1073 -0.0674 -0.4320
17759TIP3    H174768   0.651   6.659  16.900  0.6730  0.8527 -1.9503
17759TIP3    H274769   0.799   6.654  16.929  0.5259 -0.4795 -1.3465
17760TIP3   OH274770   5.006   1.274   1.627  0.2365 -0.4277 -0.2410
17760TIP3    H174771   4.937   1.311   1.682 -0.6828  1.2754 -2.3826
17760TIP3    H274772   5.075   1.340   1.628  1.0161 -1.2320  0.3128
17761TIP3   OH274773   1.238   4.507  16.597 -0.1386 -0.0128  0.3796
17761TIP3    H174774   1.167   4.503  16.532 -1.6194  0.7970  1.8806
17761TIP3    H274775   1.200   4.468  16.676  1.3172 -0.1159  1.0553
17762TIP3   OH274776   2.237   1.064   0.165 -0.7035  0.1605  0.8337
17762TIP3    H174777   2.149   1.035   0.138 -0.4691  0.5742 -0.4398
17762TIP3    H274778   2.292   1.047   0.089  0.3217 -0.0459  1.6077
17763TIP3   OH274779   0.048   6.071   2.515  0.1910  0.5270  0.5602
17763TIP3    H174780  -0.008   6.011   2.563  1.6825 -0.6334  0.9326
17763TIP3    H274781   0.131   6.024   2.505  0.1675  0.9533 -2.6040
17764TIP3   OH274782   4.270   3.131  12.198  0.1600 -0.2706 -0.1668
17764TIP3    H174783   4.260   3.085  12.282  0.8121 -0.1552 -0.0190
17764TIP3    H274784   4.222   3.077  12.136 -1.8783  0.5736  0.5760
17765TIP3   OH274785   0.745   5.352   0.458  0.3813 -0.2504  0.2521
17765TIP3    H174786   0.804   5.334   0.385  0.6872 -0.1310  0.4660
17765TIP3    H274787   0.738   5.269   0.505  0.0575 -0.3678 -0.0041
17766TIP3   OH274788   6.359   4.029   3.854  0.1450  0.3009 -0.4609
17766TIP3    H174789   6.298   3.983   3.911 -0.0267 -0.7588 -1.4745
17766TIP3    H274790   6.433   3.969   3.845  0.6695  0.9358 -0.4652
17767TIP3   OH274791   4.755   1.892  16.171 -0.4009 -0.6728 -0.3545
17767TIP3    H174792   4.807   1.930  16.100  0.4515 -1.3129 -0.0938
17767TIP3    H274793   4.677   1.858  16.128 -1.0723  1.1263 -0.6228
17768TIP3   OH274794   4.549   5.439   0.122  0.0932  0.5682 -0.3393
17768TIP3    H174795   4.588   5.403   0.202  1.4887  0.6868 -0.9299
17768TIP3    H274796   4.467   5.479   0.151  0.3201  0.1641  0.9372
17769TIP3   OH274797   4.859   5.865  10.801  0.0951  0.2994 -0.3677
17769TIP3    H174798   4.926   5.857  10.733 -0.2308  0.1351 -0.6672
17769TIP3    H274799   4.785   5.815  10.768  0.8858 -2.1872  1.3171
17770TIP3   OH274800   2.637   0.787  14.026  0.2140 -0.2907  0.4676
17770TIP3    H174801   2.672   0.756  14.109  1.0049 -1.2969 -0.2180
17770TIP3    H274802   2.584   0.715  13.993 -2.6780  1.2193  1.5030
17771TIP3   OH274803   3.651   4.480  14.240 -0.7536  0.1058  0.6246
17771TIP3    H174804   3.635   4.385  14.239  2.0323 -0.4656  1.8973
17771TIP3    H274805   3.637   4.506  14.331  0.2317  0.5662  0.6528
17772TIP3   OH274806   6.617   3.266  15.748  0.2073  0.1854 -0.4123
17772TIP3    H174807   6.709   3.240  15.742  1.0395  2.9031 -0.5391
17772TIP3    H274808   6.603   3.325  15.674 -1.3517  0.6573  0.1996
17773TIP3   OH274809   0.542   5.137   3.675 -0.1761  0.8412  0.1188
17773TIP3    H174810   0.476   5.077   3.642  0.8988  0.3974 -1.3019
17773TIP3    H274811   0.496   5.220   3.686 -1.0941  0.3982 -0.2925
17774TIP3   OH274812   5.279   2.932   6.054  0.5338  0.3189 -0.1787
17774TIP3    H174813   5.231   2.924   5.972  0.1184  0.6333  0.0228
17774TIP3    H274814   5.232   3.001   6.102  1.3729  0.8521 -0.0962
17775TIP3   OH274815   0.012   4.646   5.713  0.1768  0.1877 -0.2673
17775TIP3    H174816  -0.074   4.610   5.735  0.1373 -0.2048 -1.0609
17775TIP3    H274817   0.034   4.700   5.789 -0.6713  0.1215  0.0434
17776TIP3   OH274818   6.393   4.717   5.195  0.0326  0.0103 -0.0651
17776TIP3    H174819   6.455   4.790   5.201 -0.6766  0.6056  0.2789
17776TIP3    H274820   6.334   4.730   5.269 -0.0067 -1.0228  0.1035
17777TIP3   OH274821   5.681   2.105   3.236 -0.7052 -0.4915 -0.1933
17777TIP3    H174822   5.761   2.123   3.286 -0.6503 -0.3687 -0.3243
17777TIP3    H274823   5.678   2.010   3.229  0.7243 -0.4596 -2.2676
17778TIP3   OH274824   3.720   1.809  12.380  0.4106 -0.0472  0.2975
17778TIP3    H174825   3.691   1.892  12.417  0.6684  1.2506 -2.1699
17778TIP3    H274826   3.642   1.754  12.379 -0.0644  0.6094  0.8685
17779TIP3   OH274827   2.547   1.246   5.295  0.5870 -0.2099 -0.0015
17779TIP3    H174828   2.612   1.306   5.330  0.2779  0.7732 -1.0392
17779TIP3    H274829   2.542   1.268   5.202 -1.5959  0.1280  0.1340
17780TIP3   OH274830   2.243   2.000   3.605  0.3735 -0.4218 -0.6575
17780TIP3    H174831   2.199   1.938   3.547  0.5559 -1.4834  0.3061
17780TIP3    H274832   2.225   1.967   3.693  0.5735  0.8401 -0.1272
17781TIP3   OH274833   3.369   4.473   5.583  0.0692 -0.0546 -0.5880
17781TIP3    H174834   3.369   4.380   5.560 -0.7271 -0.3105  0.3876
17781TIP3    H274835   3.317   4.515   5.514  0.0472 -0.3989 -0.7807
17782TIP3   OH274836   0.187   4.179  15.751  0.2720  0.1312 -0.1340
17782TIP3    H174837   0.186   4.167  15.656  0.3307  0.2919 -0.1557
17782TIP3    H274838   0.105   4.226  15.769 -0.0013 -0.3814 -0.0378
17783TIP3   OH274839   3.108   1.852  16.644 -0.4195  0.1154 -0.4452
17783TIP3    H174840   3.172   1.893  16.586 -0.3666  0.3313 -0.2402
17783TIP3    H274841   3.094   1.765  16.608 -0.5829  0.3400 -0.9314
17784TIP3   OH274842   3.726   3.092  12.564  0.1381  0.8443  0.3541
17784TIP3    H174843   3.785   3.154  12.607  0.0409  1.3741 -0.2615
17784TIP3    H274844   3.783   3.024  12.529  0.1675  0.0022  1.9261
17785TIP3   OH274845   1.810   4.956  12.058  0.5585 -0.0435 -0.5452
17785TIP3    H174846   1.786   5.047  12.077  3.0807  0.6190 -0.2330
17785TIP3    H274847   1.866   4.962  11.981  1.1345 -1.2999 -0.2374
17786TIP3   OH274848   4.156   1.982  14.143  0.3943  0.4363 -0.1767
17786TIP3    H174849   4.174   2.074  14.123 -0.6706  0.6318 -0.2780
17786TIP3    H274850   4.102   1.985  14.222 -0.5028 -0.0496 -0.7584
17787TIP3   OH274851   6.036   5.817   2.978  0.1803 -0.2927 -0.2002
17787TIP3    H174852   6.108   5.770   2.936 -0.0211 -0.4393 -0.3893
17787TIP3    H274853   6.046   5.908   2.950  0.5313 -0.2356  0.1079
17788TIP3   OH274854   6.504   2.805  11.943 -0.2341  0.3005 -0.3550
17788TIP3    H174855   6.420   2.833  11.978 -0.8124 -1.8632  0.1589
17788TIP3    H274856   6.488   2.716  11.910  2.4766 -1.5183  2.6195
17789TIP3   OH274857   2.170   1.651  16.783 -0.0526  0.5734 -0.2421
17789TIP3    H174858   2.148   1.731  16.734 -0.3123 -0.3386 -1.6818
17789TIP3    H274859   2.086   1.618  16.813 -0.0342  0.3917 -0.3886
17790TIP3   OH274860   4.265   1.963   4.235  0.2189 -0.3058 -0.6144
17790TIP3    H174861   4.312   1.895   4.283  1.8411 -0.9641 -2.9651
17790TIP3    H274862   4.221   2.014   4.303 -0.3074 -3.0867  1.3367
17791TIP3   OH274863   3.669   1.566  16.098  0.4725 -0.5415 -0.3123
17791TIP3    H174864   3.711   1.497  16.148  0.1861 -1.2617 -1.0364
17791TIP3    H274865   3.595   1.523  16.055  0.8613 -0.0227 -1.5492
17792TIP3   OH274866   4.251   5.941  14.734  0.4516  0.2981 -0.1799
17792TIP3    H174867   4.318   6.005  14.760 -0.9338  0.9219  2.1959
17792TIP3    H274868   4.280   5.910  14.648  2.5973  2.1343 -0.2344
17793TIP3   OH274869   4.398   5.299  12.038 -0.0690  0.2300 -0.2765
17793TIP3    H174870   4.484   5.336  12.058  0.1731 -0.9616  1.0663
17793TIP3    H274871   4.351   5.370  11.994  1.5095  0.9779 -0.8292
17794TIP3   OH274872   4.880   5.067  16.284 -0.2247  0.6204 -0.1738
17794TIP3    H174873   4.849   4.980  16.259 -0.5129  0.6911 -0.0601
17794TIP3    H274874   4.966   5.051  16.323 -0.8397  0.2474  1.0584
17795TIP3   OH274875   0.983   6.467   1.636 -0.5728  0.1318  0.7021
17795TIP3    H174876   0.959   6.392   1.582 -0.9421 -0.3685  1.5461
17795TIP3    H274877   1.075   6.452   1.658  0.0390  1.0865 -0.9617
17796TIP3   OH274878   0.784   0.489   5.160  0.6971 -0.2523  0.7961
17796TIP3    H174879   0.815   0.488   5.069 -0.0529  1.3900  0.4856
17796TIP3    H274880   0.863   0.479   5.212  1.2466 -0.3422 -0.0281
17797TIP3   OH274881   0.644   4.852  14.245  0.3725 -0.3215 -0.5588
17797TIP3    H174882   0.703   4.928  14.242  0.1949 -0.1290  0.4708
17797TIP3    H274883   0.567   4.883  14.292  0.2190 -1.0908 -0.2908
17798TIP3   OH274884   2.708   1.123   6.074  0.2716  0.2457  0.0239
17798TIP3    H174885   2.768   1.134   6.000  0.1150  0.8954 -0.0150
17798TIP3    H274886   2.718   1.032   6.100  2.6460  0.7376  1.1792
17799TIP3   OH274887   0.460   2.443  12.977  0.1507 -0.1138  0.1128
17799TIP3    H174888   0.539   2.409  12.934 -0.2370  0.4343 -1.0560
17799TIP3    H274889   0.388   2.401  12.931 -0.2750  0.4360  0.2753
17800TIP3   OH274890   5.655   5.603  11.432 -0.4367  0.3090 -0.7317
17800TIP3    H174891   5.648   5.567  11.343 -1.5542  2.0874 -1.4118
17800TIP3    H274892   5.567   5.596  11.468  0.1068 -0.8204  0.4512
17801TIP3   OH274893   3.137   1.177  14.629 -0.2102  0.3746  0.1943
17801TIP3    H174894   3.207   1.117  14.604 -1.2831 -0.9833  0.3370
17801TIP3    H274895   3.141   1.180  14.724  0.4358  1.2988  0.1527
17802TIP3   OH274896   5.264   4.427  14.615  0.3140 -0.2804 -0.1970
17802TIP3    H174897   5.189   4.464  14.660  1.3960  1.3839  0.3351
17802TIP3    H274898   5.288   4.350  14.666 -2.6926 -2.6255 -1.9734
17803TIP3   OH274899   6.867   5.448   5.447 -0.1393 -0.4632 -0.1300
17803TIP3    H174900   6.813   5.410   5.378 -1.1354 -0.7512  0.7688
17803TIP3    H274901   6.900   5.529   5.410 -1.2229 -0.2603 -0.7108
17804TIP3   OH274902   4.679   2.912   3.230  0.2383 -0.5454  0.0598
17804TIP3    H174903   4.598   2.963   3.221  0.0065 -1.0259 -0.8223
17804TIP3    H274904   4.674   2.874   3.318 -2.2664 -3.3704 -1.1050
17805TIP3   OH274905   4.926   6.035   0.437  0.1403 -0.0455 -0.5622
17805TIP3    H174906   4.851   6.067   0.388 -0.1951 -1.4975 -1.0686
17805TIP3    H274907   4.896   5.952   0.474  0.9194  0.2270  0.7510
17806TIP3   OH274908   6.414   1.342   0.489 -0.2832 -0.6796 -0.0057
17806TIP3    H174909   6.341   1.404   0.490  1.1253  1.0420 -0.4683
17806TIP3    H274910   6.405   1.294   0.571 -0.1492  1.7037  1.4903
17807TIP3   OH274911   6.844   6.738  12.846  0.6822 -0.1703 -0.0583
17807TIP3    H174912   6.905   6.684  12.796  0.7495 -0.3084  0.1697
17807TIP3    H274913   6.805   6.797  12.781  0.8998 -0.2258 -0.2411
17808TIP3   OH274914   5.620   4.005   3.781  0.0175  0.2496  0.1028
17808TIP3    H174915   5.661   4.011   3.695  0.8297  2.3002  0.5760
17808TIP3    H274916   5.548   3.942   3.770 -0.0153  0.6189 -2.1021
17809TIP3   OH274917   5.919   5.287  16.119 -0.0289  0.0280  0.4383
17809TIP3    H174918   5.963   5.327  16.044  0.7520 -0.7986  0.4402
17809TIP3    H274919   5.828   5.317  16.112 -0.8182 -2.5193 -2.6911
17810TIP3   OH274920   4.740   4.229   0.421 -0.1757  0.2413 -0.3011
17810TIP3    H174921   4.823   4.189   0.446 -0.3906 -0.6178 -0.9211
17810TIP3    H274922   4.764   4.313   0.383  0.4948 -0.3653 -1.2671
17811TIP3   OH274923   0.723   2.452  10.362 -0.0322  0.2851 -0.1851
17811TIP3    H174924   0.682   2.413  10.439 -0.5347  0.5762 -0.3044
17811TIP3    H274925   0.808   2.484  10.394 -0.6729  1.3339  0.4936
17812TIP3   OH274926   4.364   2.511  13.372 -0.3435 -0.0803  0.0396
17812TIP3    H174927   4.420   2.440  13.340  0.3452 -0.2136  1.4640
17812TIP3    H274928   4.298   2.522  13.303  1.1507 -0.2082 -1.4838
17813TIP3   OH274929   5.282   4.984  16.847 -0.0880 -0.6197 -0.2115
17813TIP3    H174930   5.367   4.942  16.839  1.3340  1.8445  0.8494
17813TIP3    H274931   5.290   5.042  16.923 -1.7500  1.7459 -1.6880
17814TIP3   OH274932   2.685   4.717  10.968  0.5462  0.6398  0.6349
17814TIP3    H174933   2.660   4.804  10.936  0.0241 -0.1633 -1.2845
17814TIP3    H274934   2.781   4.718  10.967  0.5471  0.8482 -0.4367
17815TIP3   OH274935   4.244   2.441   3.347 -0.3611  0.5629  0.0327
17815TIP3    H174936   4.213   2.515   3.295  1.4432  1.5147  0.2176
17815TIP3    H274937   4.317   2.477   3.398  1.0899 -1.5224 -0.4447
17816TIP3   OH274938   4.360   2.612   0.367  0.4313 -0.1867 -0.2350
17816TIP3    H174939   4.277   2.600   0.414  1.1377 -1.6541  0.7100
17816TIP3    H274940   4.387   2.524   0.343  1.3732  0.3387 -1.1648
17817TIP3   OH274941   5.585   2.828   0.103 -0.5965  0.1204  0.3043
17817TIP3    H174942   5.655   2.850   0.164 -0.2749  0.5422 -0.2128
17817TIP3    H274943   5.588   2.897   0.037 -1.8474  0.4493  0.5599
17818TIP3   OH274944   5.893   5.159   1.837 -0.0941  0.7423  0.1010
17818TIP3    H174945   5.986   5.165   1.857 -0.1297  0.8596  0.2380
17818TIP3    H274946   5.883   5.074   1.795  0.1495  0.9334 -0.3425
17819TIP3   OH274947   0.726   1.046  13.906  0.1325  0.3156 -0.4799
17819TIP3    H174948   0.770   1.027  13.989 -1.8590 -0.8371  0.3843
17819TIP3    H274949   0.646   1.092  13.931 -0.7412 -0.4678 -1.6995
17820TIP3   OH274950   5.704   0.032  16.707 -0.2582 -0.3879  0.1038
17820TIP3    H174951   5.737   0.122  16.714  2.9447 -1.5482  1.7601
17820TIP3    H274952   5.730   0.004  16.619 -1.3583  0.2699 -0.4580
17821TIP3   OH274953   2.025   6.674   5.730  0.1493  0.2340  0.2624
17821TIP3    H174954   2.109   6.630   5.719 -0.2418 -0.2288 -1.0918
17821TIP3    H274955   2.028   6.747   5.669 -1.2378 -1.0554 -1.4581
17822TIP3   OH274956   1.645   3.872   0.112 -0.1740 -0.6486  0.5284
17822TIP3    H174957   1.731   3.907   0.134 -0.1258  0.9725 -1.8781
17822TIP3    H274958   1.596   3.875   0.194  1.1764  1.0815  1.3394
17823TIP3   OH274959   3.391   4.478  14.156 -0.3534  0.3414 -0.4040
17823TIP3    H174960   3.332   4.526  14.214 -0.4314 -0.6174  0.3265
17823TIP3    H274961   3.477   4.516  14.173 -0.2508 -0.4211  0.9127
17824TIP3   OH274962   3.856   0.487  16.888 -0.3425 -0.0215 -0.1656
17824TIP3    H174963   3.914   0.411  16.893 -0.5241 -0.2714 -1.4984
17824TIP3    H274964   3.915   0.562  16.881 -0.1689 -0.0563  0.7942
17825TIP3   OH274965   5.236   1.947   4.029  0.7601  0.2648  0.0135
17825TIP3    H174966   5.226   1.984   4.117 -0.9245 -0.6743  0.2619
17825TIP3    H274967   5.294   2.008   3.984  0.9717  1.2236  1.5127
17826TIP3   OH274968   5.675   1.506   0.374  0.0295 -0.4726  0.0894
17826TIP3    H174969   5.709   1.428   0.329  0.6129 -0.3589  0.3234
17826TIP3    H274970   5.683   1.486   0.467  0.0980 -0.1690  0.1498
17827TIP3   OH274971   0.421   3.802   0.336  0.4817  0.1133  0.1932
17827TIP3    H174972   0.384   3.836   0.418  1.7180 -1.7026  1.5920
17827TIP3    H274973   0.513   3.789   0.356  0.6772 -0.9777 -1.2900
17828TIP3   OH274974   1.870   5.692   1.736  0.2089 -0.3488 -0.1514
17828TIP3    H174975   1.857   5.665   1.645 -0.2539  0.6934 -0.4041
17828TIP3    H274976   1.787   5.674   1.779 -0.1360  0.7260 -0.3447
17829TIP3   OH274977   2.624   4.922   1.009 -0.4088 -0.2982 -0.0751
17829TIP3    H174978   2.651   4.924   1.101  2.6771  1.4311 -0.8596
17829TIP3    H274979   2.603   5.013   0.988  2.3517  0.0738 -1.8218
17830TIP3   OH274980   6.783   4.538  13.473  0.3207 -0.0195  0.1070
17830TIP3    H174981   6.711   4.475  13.463  1.0367 -1.1684  1.6918
17830TIP3    H274982   6.858   4.484  13.498  0.8783  1.4681  1.9099
17831TIP3   OH274983   1.511   4.880   4.868  0.2833  0.1269  0.1376
17831TIP3    H174984   1.473   4.873   4.780 -1.2166 -2.5574  0.8681
17831TIP3    H274985   1.603   4.856   4.857 -0.1651 -1.3856 -0.6004
17832TIP3   OH274986   0.184   0.035  12.749  0.0550 -0.5416 -0.0204
17832TIP3    H174987   0.239  -0.031  12.709  1.7700  0.5020  0.5193
17832TIP3    H274988   0.159  -0.002  12.834  1.5212 -0.2712  0.5488
17833TIP3   OH274989   1.428   1.173   3.692 -0.3799 -0.2531  0.0022
17833TIP3    H174990   1.448   1.143   3.604 -0.0093  0.3903 -0.1375
17833TIP3    H274991   1.337   1.202   3.687  0.4581  2.5542 -0.9724
17834TIP3   OH274992   0.745   1.116  15.288 -0.2952 -0.4617 -0.6292
17834TIP3    H174993   0.786   1.173  15.222 -0.5637  0.7270  0.2039
17834TIP3    H274994   0.738   1.031  15.244  0.3056  0.0786 -1.8381
17835TIP3   OH274995   4.094   1.459  16.064  0.1172  0.6102 -0.2565
17835TIP3    H174996   4.106   1.387  16.126 -1.0115  1.3420  0.8701
17835TIP3    H274997   4.077   1.417  15.980  0.8691 -0.4059  0.0787
17836TIP3   OH274998   0.299   3.021  13.016  0.8789  0.3288  0.0802
17836TIP3    H174999   0.328   2.971  13.093  1.6005 -0.7190 -0.8326
17836TIP3    H275000   0.375   3.021  12.958  0.6666  1.9409 -0.2408
17837TIP3   OH275001   3.372   5.586   4.424  0.4603 -0.1515 -0.4714
17837TIP3    H175002   3.295   5.640   4.405 -0.2993 -1.0693 -0.0682
17837TIP3    H275003   3.340   5.518   4.484  2.0408  0.6943  1.4665
17838TIP3   OH275004   3.772   6.204  13.866  0.0897 -0.1580 -0.3868
17838TIP3    H175005   3.745   6.254  13.789 -2.6135 -1.5707 -0.4981
17838TIP3    H275006   3.759   6.264  13.940 -0.8871  0.0781 -0.7338
17839TIP3   OH275007   1.312   5.227  10.605  0.1544  0.4015  0.0893
17839TIP3    H175008   1.317   5.260  10.515 -0.0150  0.2070  0.0080
17839TIP3    H275009   1.300   5.133  10.595  1.5237  0.1810  0.3188
17840TIP3   OH275010   6.756   0.846  12.223  0.4701  0.3910 -0.0404
17840TIP3    H175011   6.845   0.875  12.246  0.1430  0.9173  0.6073
17840TIP3    H275012   6.767   0.756  12.192  1.2820  0.5904 -0.3444
17841TIP3   OH275013   1.327   6.017   5.688 -0.1484  0.4177 -0.2637
17841TIP3    H175014   1.378   5.948   5.729 -0.5264 -0.3749 -1.0913
17841TIP3    H275015   1.383   6.050   5.618 -0.7892 -0.5571 -1.2731
17842TIP3   OH275016   1.027   2.237  12.976  0.5400 -0.3249 -0.2109
17842TIP3    H175017   1.122   2.250  12.966  0.6696 -2.0714 -1.6602
17842TIP3    H275018   0.997   2.210  12.889 -0.8306 -2.3927  0.8278
17843TIP3   OH275019   2.785   5.685   2.663  1.1901  0.6838  0.4317
17843TIP3    H175020   2.741   5.749   2.719  0.7614  0.1144  0.7486
17843TIP3    H275021   2.825   5.623   2.725  0.7088  0.0460  0.1097
17844TIP3   OH275022   1.177   5.955   4.892 -0.0864 -0.0928  0.1479
17844TIP3    H175023   1.246   5.891   4.910 -1.1183 -1.3082 -0.1325
17844TIP3    H275024   1.205   5.997   4.811  1.1096  0.5631  0.8581
17845TIP3   OH275025   6.080   3.576   3.156  0.0008  0.4237  0.4565
17845TIP3    H175026   6.036   3.567   3.072  0.3691  1.7630  0.0817
17845TIP3    H275027   6.084   3.488   3.191 -2.5046  0.1686  0.2810
17846TIP3   OH275028   1.378   1.037  12.782  0.1990 -0.0816 -0.1701
17846TIP3    H175029   1.427   1.075  12.855 -2.9029 -2.8429  3.8681
17846TIP3    H275030   1.415   0.949  12.772 -0.0999 -0.0952 -1.2566
17847TIP3   OH275031   2.831   0.417  16.722  0.6665  0.3084 -0.0783
17847TIP3    H175032   2.739   0.427  16.745  1.0445  0.0802  1.6230
17847TIP3    H275033   2.868   0.506  16.727  0.5301  0.4277 -0.9271
17848TIP3   OH275034   0.354   6.563   1.783  0.4160 -0.4211 -0.0763
17848TIP3    H175035   0.371   6.486   1.728  2.8998  0.5235 -0.7363
17848TIP3    H275036   0.339   6.634   1.720  0.4309  0.1041  0.5082
17849TIP3   OH275037   3.600   5.146  11.764 -0.5134 -0.4079  0.2398
17849TIP3    H175038   3.589   5.054  11.742 -0.7404 -0.2839 -0.1654
17849TIP3    H275039   3.524   5.168  11.817 -0.6678 -0.3450 -0.0088
17850TIP3   OH275040   2.190   5.153  12.676  0.0148  0.5093  0.3438
17850TIP3    H175041   2.098   5.140  12.701 -0.4523 -0.4486 -1.6881
17850TIP3    H275042   2.205   5.246  12.690 -0.9236  0.4868  1.7384
17851TIP3   OH275043   1.841   4.268  11.411  0.2267 -0.7954  0.2881
17851TIP3    H175044   1.877   4.347  11.370  0.0092 -0.7823  0.1179
17851TIP3    H275045   1.916   4.227  11.454  0.3933 -0.6306  0.1589
17852TIP3   OH275046   6.605   2.467   6.368  0.9518  0.5625  0.2230
17852TIP3    H175047   6.658   2.469   6.448  0.8957 -2.3433  0.4423
17852TIP3    H275048   6.660   2.420   6.305 -0.6021 -0.9828 -0.0721
17853TIP3   OH275049   3.917   4.826  14.064  0.0184 -1.1982  0.2512
17853TIP3    H175050   3.843   4.789  14.112 -1.9079 -0.0379 -1.6323
17853TIP3    H275051   3.886   4.831  13.973  2.3658 -0.4796 -0.5807
17854TIP3   OH275052   4.398   0.451  16.754 -0.0460 -0.7234 -0.3145
17854TIP3    H175053   4.385   0.484  16.842 -2.0889 -1.7408 -0.1797
17854TIP3    H275054   4.460   0.378  16.765  0.4468 -0.2426  0.1250
17855TIP3   OH275055   4.116   2.338  16.541  0.2387 -0.7284  0.2019
17855TIP3    H175056   4.144   2.422  16.506  1.5098 -0.4301  1.7884
17855TIP3    H275057   4.070   2.295  16.469 -0.8149  1.4764 -0.5246
17856TIP3   OH275058   1.940   1.173  14.990 -0.6941 -0.2595 -0.5100
17856TIP3    H175059   1.930   1.236  14.918  0.6562  2.0611  1.2175
17856TIP3    H275060   2.009   1.114  14.960 -1.6312 -0.6832 -1.9533
17857TIP3   OH275061   2.021   4.107  11.188 -0.3610 -0.1088  0.1294
17857TIP3    H175062   1.930   4.078  11.194 -1.4750  3.1974  1.9024
17857TIP3    H275063   2.018   4.188  11.138  1.3593  0.7632  1.2911
17858TIP3   OH275064   2.751   1.822  13.030  0.9282 -0.4096 -0.0927
17858TIP3    H175065   2.792   1.789  13.110 -0.1007 -0.0238  0.6033
17858TIP3    H275066   2.795   1.905  13.013  0.7878 -0.2394  0.3677
17859TIP3   OH275067   2.587   0.909  12.600 -0.0747 -0.1943  0.4296
17859TIP3    H175068   2.497   0.940  12.599 -0.2890 -0.7995 -0.4756
17859TIP3    H275069   2.597   0.866  12.685 -0.9265 -0.9300  0.1722
17860TIP3   OH275070   3.276   4.458  12.909 -0.0955 -0.4950 -0.1146
17860TIP3    H175071   3.193   4.411  12.907  0.7037 -1.9628  0.0815
17860TIP3    H275072   3.342   4.390  12.918  1.1318  0.6552 -0.1289
17861TIP3   OH275073   4.015   3.539  10.969 -0.0468 -0.0847  0.3318
17861TIP3    H175074   4.066   3.460  10.987  1.0517  0.4340 -0.4267
17861TIP3    H275075   4.024   3.592  11.048 -0.0421 -0.3235  0.4912
17862TIP3   OH275076   2.449   2.045   6.173 -0.2343  0.2130  0.2088
17862TIP3    H175077   2.398   2.011   6.247 -2.1353  0.2907 -1.0122
17862TIP3    H275078   2.434   1.982   6.103 -2.1060  2.3462 -1.4449
17863TIP3   OH275079   5.285   6.201  15.970  0.0048  0.0867 -0.2415
17863TIP3    H175080   5.236   6.147  16.031 -1.3039  1.0750 -0.3646
17863TIP3    H275081   5.253   6.290  15.985  2.7579  1.0481  0.6250
17864TIP3   OH275082   1.939   5.482   4.256  0.1150  0.0326  0.5665
17864TIP3    H175083   1.984   5.465   4.339 -1.4908 -0.0197  1.4711
17864TIP3    H275084   1.919   5.575   4.259 -1.0654 -0.2106  0.8559
17865TIP3   OH275085   3.456   1.961  12.916  0.0561  0.0597 -0.2080
17865TIP3    H175086   3.471   1.870  12.892  3.0504  0.5020 -0.4062
17865TIP3    H275087   3.410   1.998  12.840  0.0698 -0.9472 -0.7280
17866TIP3   OH275088   4.417   3.908  11.115  0.3944 -0.5454  0.1925
17866TIP3    H175089   4.492   3.905  11.175  1.6173  2.6457 -0.9212
17866TIP3    H275090   4.448   3.863  11.036  0.4276 -0.8660  0.3869
17867TIP3   OH275091   3.529   0.739   2.686 -0.2469  0.0370  0.1874
17867TIP3    H175092   3.468   0.739   2.760  1.8453 -0.7962  2.0250
17867TIP3    H275093   3.488   0.681   2.622 -1.6368 -0.0748  1.1280
17868TIP3   OH275094   1.559   3.586  12.333  0.0941  0.1509 -1.1053
17868TIP3    H175095   1.596   3.503  12.303  0.9999 -0.3395  1.1500
17868TIP3    H275096   1.633   3.647  12.333  0.7575 -0.4745  2.1206
17869TIP3   OH275097   6.718   1.787  14.680  0.3349  0.1999 -0.7534
17869TIP3    H175098   6.760   1.730  14.744 -0.8814 -0.6732 -0.7109
17869TIP3    H275099   6.784   1.854  14.661  2.1585 -1.7396 -1.5430
17870TIP3   OH275100   6.374   4.853   3.375 -0.8861 -0.1746  0.5515
17870TIP3    H175101   6.328   4.770   3.392  0.1104 -1.0322 -0.7905
17870TIP3    H275102   6.467   4.831   3.380 -0.5863  1.1577  1.4380
17871TIP3   OH275103   1.555   1.454   2.823  0.0567 -0.5484  0.0529
17871TIP3    H175104   1.546   1.549   2.825 -1.3638 -0.6178 -0.9940
17871TIP3    H275105   1.543   1.426   2.914  1.5225  0.3075  0.5471
17872TIP3   OH275106   5.486   1.351   6.431  0.4053 -0.3443  0.0635
17872TIP3    H175107   5.535   1.383   6.507 -1.2315  0.4207  0.8554
17872TIP3    H275108   5.479   1.428   6.374 -0.1289 -0.3631  0.1029
17873TIP3   OH275109   2.649   0.492   2.166  0.5264 -0.0226  0.5201
17873TIP3    H175110   2.558   0.503   2.194  0.3187  0.1632 -0.1936
17873TIP3    H275111   2.661   0.397   2.159  0.5544 -0.0651  1.1374
17874TIP3   OH275112   0.166   2.082  15.004  0.0082  0.1377 -0.4940
17874TIP3    H175113   0.256   2.104  15.029 -0.8465  2.0433  1.1642
17874TIP3    H275114   0.137   2.156  14.951 -0.1570 -1.1526 -2.2922
17875TIP3   OH275115   5.961   1.348  11.087 -0.4077  0.5749  0.0672
17875TIP3    H175116   5.903   1.375  11.158 -0.5507  0.4724 -0.0113
17875TIP3    H275117   6.049   1.368  11.120 -0.5184  1.3506 -0.0734
17876TIP3   OH275118   1.944   1.070  11.043  0.3385 -0.0184 -0.2786
17876TIP3    H175119   1.904   1.072  10.957 -0.2088 -1.1437 -0.0732
17876TIP3    H275120   1.871   1.078  11.105  0.6689  0.2545  0.0830
17877TIP3   OH275121   4.525   5.729   0.005 -0.1571  0.2329  0.2574
17877TIP3    H175122   4.500   5.640  -0.019 -1.1515  0.5339  0.1353
17877TIP3    H275123   4.477   5.785  -0.056  0.8337  0.8477  0.0106
17878TIP3   OH275124   1.705   5.518  12.685 -0.2920  0.3265 -0.0137
17878TIP3    H175125   1.752   5.600  12.702 -1.4483  0.6352  2.0435
17878TIP3    H275126   1.684   5.521  12.592  2.1832  0.9710 -0.6413
17879TIP3   OH275127   6.685   2.110  13.912  0.1538  0.2269 -0.4103
17879TIP3    H175128   6.657   2.102  13.820  1.4956  0.2752 -0.8436
17879TIP3    H275129   6.657   2.197  13.938  0.4767  0.5266 -1.0366
17880TIP3   OH275130   2.539   6.429  14.936 -0.5152 -0.5900 -0.3323
17880TIP3    H175131   2.554   6.339  14.966  0.4865  0.2388  1.8997
17880TIP3    H275132   2.451   6.428  14.899 -0.8004 -2.3356  0.2946
17881TIP3   OH275133   1.482   4.433  14.181 -0.1557 -0.2075 -0.1487
17881TIP3    H175134   1.422   4.368  14.217 -0.8531  0.8974  0.7968
17881TIP3    H275135   1.568   4.393  14.188 -0.8150 -2.2697 -2.5134
17882TIP3   OH275136   0.854   5.388   5.980  0.1207  0.3204 -0.0903
17882TIP3    H175137   0.860   5.423   5.891 -1.2168 -0.9329 -0.7171
17882TIP3    H275138   0.767   5.412   6.010  0.4495  0.4632  0.7663
17883TIP3   OH275139   3.470   0.798  11.441  0.1721 -0.3927  0.0983
17883TIP3    H175140   3.524   0.719  11.432  2.0603  0.3263  3.3733
17883TIP3    H275141   3.494   0.851  11.365  2.5937 -1.0018  0.3343
17884TIP3   OH275142   3.468   2.130  15.180 -0.0510  0.3102  0.0904
17884TIP3    H175143   3.557   2.122  15.145  0.6817  0.0773  1.8876
17884TIP3    H275144   3.474   2.201  15.244 -1.2114  0.4180  0.0934
17885TIP3   OH275145   3.966   2.438   3.018  0.7636  0.6301  0.1358
17885TIP3    H175146   4.021   2.502   2.973  0.8741  0.2668 -0.2555
17885TIP3    H275147   3.975   2.358   2.966 -0.1508  0.5726  0.0577
17886TIP3   OH275148   6.150   5.404   2.335  0.4830  0.2253 -0.4125
17886TIP3    H175149   6.204   5.331   2.304 -1.1489 -0.9475 -0.6537
17886TIP3    H275150   6.096   5.365   2.404 -0.0118  1.3625 -0.1380
17887TIP3   OH275151   6.029   1.369  13.141  0.3341  0.0077 -0.3908
17887TIP3    H175152   6.004   1.332  13.056 -2.8115  0.0636  0.3987
17887TIP3    H275153   6.097   1.433  13.120 -1.1759  0.9043 -3.0691
17888TIP3   OH275154   2.310   4.200  11.205  0.0059  0.6381 -0.0873
17888TIP3    H175155   2.406   4.197  11.209  0.0736  1.2233 -1.0473
17888TIP3    H275156   2.291   4.285  11.166 -0.9492  1.0706  1.2578
17889TIP3   OH275157   6.569   3.669   5.697 -0.0008  0.0125  0.1228
17889TIP3    H175158   6.500   3.730   5.672 -0.0932  0.5037  1.5113
17889TIP3    H275159   6.617   3.714   5.766  2.1661 -0.0287 -1.2527
17890TIP3   OH275160   3.857   2.709   4.301  0.1173  0.0365 -0.4011
17890TIP3    H175161   3.779   2.764   4.291 -0.9651 -1.7642 -2.5935
17890TIP3    H275162   3.833   2.644   4.367  0.6216  0.8242  0.5875
17891TIP3   OH275163   1.506   2.967  17.026 -0.7396 -0.5528  0.2011
17891TIP3    H175164   1.429   2.992  17.078 -1.5799 -0.1451 -1.1856
17891TIP3    H275165   1.554   3.048  17.013 -1.8089 -0.1387 -1.6294
17892TIP3   OH275166   4.727   3.544  12.456  0.4410 -0.3305 -0.0661
17892TIP3    H175167   4.821   3.532  12.459  0.7591  1.7338 -0.0824
17892TIP3    H275168   4.707   3.599  12.531 -1.1133 -2.4430  1.1863
17893TIP3   OH275169   5.687   1.155   5.796  0.7701 -0.2918 -0.2273
17893TIP3    H175170   5.741   1.135   5.872  0.8596  0.3271 -0.1239
17893TIP3    H275171   5.746   1.197   5.734  0.3150  0.8757  0.1005
17894TIP3   OH275172   4.569   4.107   5.906 -0.8385  0.2642  0.1847
17894TIP3    H175173   4.552   4.013   5.914 -0.0067  0.1265  0.4335
17894TIP3    H275174   4.516   4.147   5.975 -1.3570 -0.0008 -0.0568
17895TIP3   OH275175   5.517   1.542   1.972 -0.5749 -0.2139  0.2788
17895TIP3    H175176   5.425   1.552   1.999 -0.6132  0.9563 -0.2044
17895TIP3    H275177   5.559   1.498   2.046 -1.4851 -0.6233  0.5753
17896TIP3   OH275178   1.198   6.820   1.709  0.1159 -0.5838 -0.0326
17896TIP3    H175179   1.288   6.815   1.742 -0.5452 -0.2320  1.9857
17896TIP3    H275180   1.202   6.883   1.637  1.4136 -0.2020  0.3467
17897TIP3   OH275181   3.442   4.977   0.203 -0.2569  0.6385  0.1329
17897TIP3    H175182   3.452   4.937   0.116 -2.3997 -0.0237  0.1192
17897TIP3    H275183   3.518   4.946   0.252  0.2836 -0.0943 -1.0977
17898TIP3   OH275184   2.882   3.678   2.237  0.0848  0.1897 -0.2448
17898TIP3    H175185   2.914   3.631   2.314 -0.3663 -0.4060 -0.4123
17898TIP3    H275186   2.811   3.623   2.204 -0.3001  0.8866 -0.5790
17899TIP3   OH275187   2.561   4.994   4.931  0.1571 -0.1722 -0.5088
17899TIP3    H175188   2.469   4.995   4.957 -0.1403 -1.0661 -1.4518
17899TIP3    H275189   2.574   4.907   4.893  1.5560 -0.2749  0.1658
17900TIP3   OH275190   6.449   3.559  11.371 -0.8293 -0.5402 -0.1018
17900TIP3    H175191   6.480   3.569  11.281  0.4462 -1.2873  0.2400
17900TIP3    H275192   6.392   3.636  11.385 -0.6342 -0.1428 -1.3600
17901TIP3   OH275193   4.852   2.721   0.412  0.1377  0.0474  0.4153
17901TIP3    H175194   4.878   2.812   0.421  1.2362 -0.3492  1.3836
17901TIP3    H275195   4.773   2.713   0.465 -0.9235  0.8027 -0.9967
17902TIP3   OH275196   3.191   5.648  15.965 -0.2115  0.3256 -0.0154
17902TIP3    H175197   3.276   5.619  15.997  0.3134  2.8036  1.0146
17902TIP3    H275198   3.137   5.656  16.043 -1.5233 -1.4310 -0.6769
17903TIP3   OH275199   5.443   5.151  11.258 -0.4228  0.1889 -0.0991
17903TIP3    H175200   5.426   5.162  11.164  0.9718  0.7109 -0.3160
17903TIP3    H275201   5.381   5.210  11.301 -3.0089 -2.0543 -0.4823
17904TIP3   OH275202   5.803   6.704  10.941 -0.5033 -0.0894  0.1879
17904TIP3    H175203   5.767   6.633  10.994  0.7281  1.9214  4.1025
17904TIP3    H275204   5.882   6.667  10.901 -0.5341 -1.2372  1.1467
17905TIP3   OH275205   6.730   1.245  15.441  0.2995  0.0069 -0.2164
17905TIP3    H175206   6.724   1.337  15.414 -0.8025  0.4123  1.2872
17905TIP3    H275207   6.716   1.195  15.360  0.6335  1.1496 -1.0011
17906TIP3   OH275208   5.316   2.473  13.435  0.0447  0.4038 -0.5249
17906TIP3    H175209   5.340   2.557  13.474 -0.4599  0.3713 -0.1228
17906TIP3    H275210   5.384   2.455  13.370  1.3296  0.1197  0.8268
17907TIP3   OH275211   5.778   3.426   3.562 -0.1831  0.2687  0.2722
17907TIP3    H175212   5.790   3.336   3.535 -0.7522  0.4596 -0.6322
17907TIP3    H275213   5.686   3.445   3.545 -0.7156  0.2765  2.7422
17908TIP3   OH275214   0.985   1.978   6.371  0.4754 -0.4542  0.4747
17908TIP3    H175215   1.039   1.958   6.447  0.6244 -1.3157  0.1494
17908TIP3    H275216   1.035   1.946   6.296  0.4634  0.6553 -0.0273
17909TIP3   OH275217   5.363   6.034  13.300  0.3017 -0.1134 -0.5226
17909TIP3    H175218   5.325   6.119  13.278 -0.9276  0.1008  2.0696
17909TIP3    H275219   5.388   6.042  13.392  1.2217 -2.1984 -0.5377
17910TIP3   OH275220   1.076   2.808   3.114  0.6149  0.6881 -0.3061
17910TIP3    H175221   1.071   2.736   3.050  0.3666  0.0166  0.4590
17910TIP3    H275222   1.086   2.764   3.198  0.3753  1.5580  0.1793
17911TIP3   OH275223   4.455   3.939   3.939 -0.0568 -0.1555 -0.0334
17911TIP3    H175224   4.532   3.995   3.942 -0.7357  0.8542 -0.8450
17911TIP3    H275225   4.463   3.883   4.016  0.5139  1.2343  0.9489
17912TIP3   OH275226   0.905   4.231  13.732 -0.0596 -0.0867  0.6687
17912TIP3    H175227   0.982   4.285  13.715  1.0381 -1.5930  0.7316
17912TIP3    H275228   0.863   4.221  13.647  0.8308 -0.7577  0.3012
17913TIP3   OH275229   5.494   1.764  15.660 -0.6867  0.0478  0.5594
17913TIP3    H175230   5.500   1.674  15.692 -1.4764 -0.4207 -0.5165
17913TIP3    H275231   5.425   1.760  15.593  0.7312  0.9812 -1.0392
17914TIP3   OH275232   0.489   0.778  10.664  1.0743  0.2153 -0.2177
17914TIP3    H175233   0.567   0.797  10.717  0.1797  0.9390  0.8746
17914TIP3    H275234   0.458   0.864  10.636  0.7357 -0.0841 -0.7722
17915TIP3   OH275235   0.328   2.728  11.980  0.9357 -0.2777  0.5715
17915TIP3    H175236   0.311   2.779  12.059 -0.6648 -0.0298  0.1101
17915TIP3    H275237   0.336   2.793  11.910  0.3240 -0.5741  0.2129
17916TIP3   OH275238   2.723   3.500   4.881 -0.1124 -0.2080  0.4574
17916TIP3    H175239   2.793   3.549   4.924  0.1356  1.2775 -1.5056
17916TIP3    H275240   2.769   3.435   4.828 -0.2287  0.4723 -0.4856
17917TIP3   OH275241   0.870   0.297  15.963 -0.2007 -0.3550 -0.3654
17917TIP3    H175242   0.947   0.270  16.012 -0.3204 -0.2094 -0.0982
17917TIP3    H275243   0.828   0.215  15.937 -0.5507 -0.4324  0.4235
17918TIP3   OH275244   2.455   6.447  16.985  0.4574  0.0808 -0.0661
17918TIP3    H175245   2.398   6.511  16.943  1.2083 -0.0608 -1.3450
17918TIP3    H275246   2.396   6.381  17.021 -0.2294  0.4096 -0.5799
17919TIP3   OH275247   2.705   6.485  10.214  0.8336 -0.1704 -0.2433
17919TIP3    H175248   2.616   6.499  10.181 -1.0372 -0.2852  4.0709
17919TIP3    H275249   2.735   6.406  10.170 -3.0674 -2.6815  1.0747
17920TIP3   OH275250   4.884   0.118  13.282  0.2987  0.2030  0.1642
17920TIP3    H175251   4.902   0.126  13.189 -3.1354  2.7440 -0.5115
17920TIP3    H275252   4.893   0.207  13.316 -0.3241 -0.3343  1.8460
17921TIP3   OH275253   2.315   4.925   0.897  0.5803  0.6734  0.0066
17921TIP3    H175254   2.385   4.975   0.853  0.8405  0.9933  0.7696
17921TIP3    H275255   2.347   4.913   0.986  1.0613 -1.8879 -0.4171
17922TIP3   OH275256   6.437   2.416  16.596 -0.2143 -0.1932 -0.4877
17922TIP3    H175257   6.392   2.343  16.638  0.8688 -0.0662  0.9643
17922TIP3    H275258   6.378   2.444  16.526 -1.9213 -0.6648  0.7030
17923TIP3   OH275259   5.641   4.051   1.998 -0.2699 -0.5425  0.4994
17923TIP3    H175260   5.661   3.975   1.944  0.7660  0.4996 -0.6561
17923TIP3    H275261   5.684   4.035   2.081 -0.7405 -1.5605  0.5609
17924TIP3   OH275262   0.682   3.408  14.941  0.1832 -0.1249 -0.2461
17924TIP3    H175263   0.749   3.339  14.938  0.4130  0.0904 -2.4905
17924TIP3    H275264   0.664   3.426  14.848 -1.5558  1.2204  0.3136
17925TIP3   OH275265   1.419   3.493   2.539  0.6494  0.6446  0.0727
17925TIP3    H175266   1.470   3.425   2.583 -1.1972 -1.4431 -0.8330
17925TIP3    H275267   1.484   3.542   2.489  1.9872 -0.8419  0.2622
17926TIP3   OH275268   0.611   5.936  10.432  0.0981 -0.1042  0.1074
17926TIP3    H175269   0.670   6.001  10.470  0.8791  0.0641 -1.3106
17926TIP3    H275270   0.587   5.880  10.505  2.6736 -0.6659  0.6487
17927TIP3   OH275271   3.809   0.227  10.031  0.4385 -0.1595 -0.8900
17927TIP3    H175272   3.885   0.253  10.082  0.3549  1.9035 -1.7270
17927TIP3    H275273   3.742   0.291  10.053  0.2703  0.5415 -3.2024
17928TIP3   OH275274   1.629   4.777   3.286 -0.1832  0.0103  0.5224
17928TIP3    H175275   1.674   4.700   3.321 -0.7757 -0.7823 -0.4159
17928TIP3    H275276   1.686   4.808   3.215 -1.1665 -1.1541 -0.8479
17929TIP3   OH275277   3.942   5.127  12.570 -0.2242  0.3791 -0.3913
17929TIP3    H175278   3.988   5.203  12.533  1.2864 -1.1057 -1.7523
17929TIP3    H275279   3.941   5.063  12.499 -0.6063 -1.2260  0.9944
17930TIP3   OH275280   0.675   2.228  12.151 -0.2612 -0.4902  0.2321
17930TIP3    H175281   0.583   2.244  12.128 -0.6330  0.5943  2.2323
17930TIP3    H275282   0.690   2.136  12.127 -1.7185 -0.5585 -0.5509
17931TIP3   OH275283   1.738   0.141  13.729 -0.1402  0.4255 -0.8530
17931TIP3    H175284   1.718   0.097  13.812 -0.9108  0.4621 -1.0154
17931TIP3    H275285   1.743   0.233  13.753 -0.1347  0.4143 -0.8091
17932TIP3   OH275286   1.113   2.268   5.630  0.4102 -0.3773 -0.1159
17932TIP3    H175287   1.179   2.200   5.613  0.7399  0.0046 -0.3890
17932TIP3    H275288   1.050   2.259   5.558  0.8904  0.1267 -0.6140
17933TIP3   OH275289   4.398   2.586  16.722 -0.1232 -0.1650 -0.0882
17933TIP3    H175290   4.469   2.633  16.765  1.1147 -1.7015 -0.3718
17933TIP3    H275291   4.413   2.599  16.628 -1.1415  0.7939 -0.1322
17934TIP3   OH275292   1.204   2.178  15.748 -0.3385 -0.1051  0.3773
17934TIP3    H175293   1.271   2.113  15.728 -1.1064 -0.7934 -0.0809
17934TIP3    H275294   1.154   2.139  15.820 -1.8710 -0.8686 -1.0254
17935TIP3   OH275295   6.799   1.376   0.176  0.6202  0.0437  0.1347
17935TIP3    H175296   6.881   1.411   0.210  1.4485 -0.4088 -1.3459
17935TIP3    H275297   6.766   1.319   0.246  0.9927  1.0732  1.1720
17936TIP3   OH275298   6.146   0.492   2.193 -0.2360 -0.1990 -0.2870
17936TIP3    H175299   6.060   0.528   2.217  0.2496  0.2269  0.8740
17936TIP3    H275300   6.208   0.556   2.228  0.6271 -1.7190  1.0604
17937TIP3   OH275301   1.477   6.619  14.672 -0.1432 -0.2216 -0.1745
17937TIP3    H175302   1.476   6.554  14.603  0.9476 -0.7921  0.3222
17937TIP3    H275303   1.385   6.641  14.686 -0.4211 -0.5513 -1.3561
17938TIP3   OH275304   2.241   1.028   1.580  0.1560 -0.0652  0.0545
17938TIP3    H175305   2.294   1.071   1.513 -1.1647 -1.2259 -1.8343
17938TIP3    H275306   2.150   1.046   1.554 -0.4041 -0.3604  1.6939
17939TIP3   OH275307   1.264   3.470  11.301 -0.8005 -0.0627 -0.2812
17939TIP3    H175308   1.207   3.531  11.253 -0.7525  0.0558 -0.1871
17939TIP3    H275309   1.215   3.450  11.381 -0.2333  0.9138  0.3424
17940TIP3   OH275310   4.556   6.130   3.723 -0.6973 -0.0033  0.1927
17940TIP3    H175311   4.578   6.195   3.789  2.9051  2.4890 -3.0346
17940TIP3    H275312   4.467   6.152   3.696 -1.4133  0.2630  2.5862
17941TIP3   OH275313   4.087   2.292  12.698 -0.6566 -0.0040  0.4683
17941TIP3    H175314   4.037   2.210  12.691 -1.3738  0.5290 -0.8831
17941TIP3    H275315   4.157   2.283  12.633 -0.3774  0.2203  0.7341
17942TIP3   OH275316   0.227   3.027  14.665  0.0493 -0.2706  0.3386
17942TIP3    H175317   0.248   2.934  14.652 -0.2679 -0.2545 -0.2844
17942TIP3    H275318   0.282   3.053  14.739 -0.5352 -1.1873  1.1174
17943TIP3   OH275319   3.253   5.393   6.145 -0.3123 -0.1615 -0.0568
17943TIP3    H175320   3.177   5.393   6.087  0.0638 -1.5041 -0.5802
17943TIP3    H275321   3.306   5.320   6.115  1.0315  0.5435  0.5190
17944TIP3   OH275322   5.896   0.974   4.138  0.0946 -0.2723 -0.0853
17944TIP3    H175323   5.874   0.985   4.046  0.6183  0.5319 -0.1221
17944TIP3    H275324   5.934   0.886   4.143  2.1132  0.4889 -1.0547
17945TIP3   OH275325   2.347   1.977  16.156  0.6237 -0.8444 -0.0612
17945TIP3    H175326   2.351   1.933  16.241 -1.7873  2.1192  1.7986
17945TIP3    H275327   2.261   1.955  16.121  0.1939  0.6278 -0.0229
17946TIP3   OH275328   2.372   5.982   4.266 -0.4298  0.3872 -0.3122
17946TIP3    H175329   2.351   6.072   4.288  0.3396  0.6912 -0.7682
17946TIP3    H275330   2.461   5.969   4.300 -0.8842 -0.4936  0.5715
17947TIP3   OH275331   5.854   3.590  10.970  0.3045 -0.2094 -0.1031
17947TIP3    H175332   5.917   3.619  10.905  0.6508 -0.8435 -0.0586
17947TIP3    H275333   5.895   3.515  11.013  0.1919  0.3478  1.0346
17948TIP3   OH275334   0.638   2.409  15.755  0.0959 -0.2339 -0.2491
17948TIP3    H175335   0.565   2.469  15.740  0.3666  0.5257  1.3279
17948TIP3    H275336   0.611   2.354  15.828  0.7219 -0.5811 -0.2650
17949TIP3   OH275337   0.141   0.621  12.332 -0.1313  0.4163 -0.1569
17949TIP3    H175338   0.157   0.563  12.258 -0.1384  0.8291 -0.4868
17949TIP3    H275339   0.165   0.570  12.409  0.0192  0.0372 -0.4546
17950TIP3   OH275340   1.256   2.336  16.010  0.2398  0.2108 -0.0853
17950TIP3    H175341   1.316   2.331  15.936 -2.7197  0.3211 -2.6963
17950TIP3    H275342   1.219   2.248  16.017 -0.0621  0.3925  0.7623
17951TIP3   OH275343   6.094   3.737  14.883 -1.1181  0.3831 -0.1802
17951TIP3    H175344   6.064   3.824  14.912 -0.4916  1.1814 -1.7974
17951TIP3    H275345   6.186   3.750  14.859 -0.4819 -1.1802  1.2796
17952TIP3   OH275346   2.680   2.550   2.871  0.2321  0.0247  0.4520
17952TIP3    H175347   2.586   2.560   2.890  0.4379  0.1455  1.4470
17952TIP3    H275348   2.698   2.618   2.805 -0.6656 -0.9154 -0.8215
17953TIP3   OH275349   2.911   6.464  16.968 -0.7701 -0.3994 -0.3484
17953TIP3    H175350   2.915   6.368  16.965 -0.4155 -0.3601 -2.4649
17953TIP3    H275351   2.837   6.487  16.912 -0.9522  0.5668  0.2670
17954TIP3   OH275352   1.545   2.282  16.353  0.3641 -0.0289 -0.5190
17954TIP3    H175353   1.555   2.365  16.306  0.3372  1.5326  2.0062
17954TIP3    H275354   1.459   2.249  16.327  1.3326 -0.5676 -3.3499
17955TIP3   OH275355   1.632   2.813   6.362  0.3167 -0.5442 -0.7780
17955TIP3    H175356   1.583   2.834   6.282  0.2194 -1.2116 -0.8976
17955TIP3    H275357   1.723   2.809   6.333  0.3524 -0.1386 -0.7235
17956TIP3   OH275358   0.942   1.153   4.003  0.2907 -0.3265  0.3236
17956TIP3    H175359   0.874   1.131   4.068 -0.3711  1.7930  0.4141
17956TIP3    H275360   0.893   1.169   3.922  0.9410 -1.1344 -0.2456
17957TIP3   OH275361   0.513   1.729  13.421 -0.0307  0.5076  0.3169
17957TIP3    H175362   0.549   1.761  13.338  0.1063  0.8119  0.4914
17957TIP3    H275363   0.587   1.685  13.464 -0.2145 -0.0257  0.0860
17958TIP3   OH275364   6.458   1.815  13.040  0.2262 -0.0425 -0.4539
17958TIP3    H175365   6.492   1.735  13.080  0.2072  0.9732  1.7196
17958TIP3    H275366   6.531   1.848  12.987  0.5534 -0.9785 -0.6054
17959TIP3   OH275367   6.873   0.245  14.922 -0.2236  0.0254 -0.2240
17959TIP3    H175368   6.784   0.248  14.888 -0.9312 -3.4219  0.8983
17959TIP3    H275369   6.881   0.323  14.978 -2.7313  0.1229  0.0946
17960TIP3   OH275370   5.371   5.921  11.724  0.0533 -0.4167  0.4616
17960TIP3    H175371   5.355   5.832  11.757  1.2507 -1.1332 -0.7804
17960TIP3    H275372   5.466   5.927  11.719 -0.0536 -0.0804 -2.0531
17961TIP3   OH275373   1.131   4.614  11.690 -0.1721 -0.0098  0.1750
17961TIP3    H175374   1.180   4.619  11.608  1.6561  0.0226  1.2175
17961TIP3    H275375   1.114   4.520  11.702  0.7177 -0.1585  0.3767
17962TIP3   OH275376   0.764   2.058   1.945 -0.0194 -0.2602  0.7776
17962TIP3    H175377   0.767   2.026   1.855 -1.8095  0.1091  0.5520
17962TIP3    H275378   0.832   2.125   1.950  1.5498 -1.7531  0.3399
17963TIP3   OH275379   0.004   4.196   3.436  0.4972 -0.3710  0.3445
17963TIP3    H175380   0.092   4.233   3.441  0.9606 -1.5225  1.0487
17963TIP3    H275381  -0.025   4.192   3.527 -0.5747  0.6293  0.0700
17964TIP3   OH275382   6.012   3.423   2.109  0.5842  0.4334 -0.2121
17964TIP3    H175383   6.082   3.359   2.100 -1.3148 -1.4826 -4.8797
17964TIP3    H275384   6.040   3.496   2.053  0.7002  1.7347  1.4609
17965TIP3   OH275385   4.878   3.905  14.676 -0.3240  0.1764  0.1208
17965TIP3    H175386   4.820   3.943  14.743 -0.8860  1.4028 -0.9994
17965TIP3    H275387   4.827   3.833  14.639  0.7570 -1.8079  2.2779
17966TIP3   OH275388   0.192   2.175  11.676 -0.7289  0.2430  0.1036
17966TIP3    H175389   0.163   2.150  11.589 -3.0075  1.9200  0.2819
17966TIP3    H275390   0.145   2.115  11.735 -0.5401  0.2227  0.2322
17967TIP3   OH275391   4.621   6.076  15.012 -0.3031 -0.1509  0.3679
17967TIP3    H175392   4.615   6.154  15.067 -1.8940 -0.6500  0.9728
17967TIP3    H275393   4.604   6.003  15.073 -1.4077 -0.7643 -0.6385
17968TIP3   OH275394   6.418   3.434  14.966  0.8567  0.1418 -0.3093
17968TIP3    H175395   6.338   3.459  15.013  1.4547 -0.4311  1.0828
17968TIP3    H275396   6.402   3.461  14.875 -0.4445  1.0856  0.1611
17969TIP3   OH275397   4.010   6.757   1.889  0.8358  0.4661  0.0565
17969TIP3    H175398   4.069   6.826   1.918  1.5081 -0.2363  0.3989
17969TIP3    H275399   4.025   6.751   1.795 -1.0058  2.4263 -0.4451
17970TIP3   OH275400   1.993   0.650  15.086  0.1667  0.3490 -0.3037
17970TIP3    H175401   1.917   0.596  15.106 -0.0270  1.2522  1.6682
17970TIP3    H275402   2.021   0.621  15.000 -1.8434 -0.6458 -0.6826
17971TIP3   OH275403   6.660   4.985   0.830  0.1172  0.1696 -0.3799
17971TIP3    H175404   6.626   4.956   0.745 -1.5621  0.4237  0.1527
17971TIP3    H275405   6.583   5.022   0.874  0.9588  0.0647  1.2392
17972TIP3   OH275406   1.515   1.794  11.223 -0.4445 -0.2885  0.0673
17972TIP3    H175407   1.456   1.817  11.152 -0.3286 -0.4300 -0.0746
17972TIP3    H275408   1.483   1.844  11.298 -1.3336 -1.0812  0.2432
17973TIP3   OH275409   4.932   6.218   0.101  0.4771 -0.6623 -0.0528
17973TIP3    H175410   4.946   6.240   0.193  1.4138  0.9728 -0.5392
17973TIP3    H275411   4.989   6.143   0.085  1.6586  0.1318  0.3048
17974TIP3   OH275412   0.992   4.025   4.776  0.0515 -0.5696 -0.3417
17974TIP3    H175413   0.932   3.966   4.731 -0.0571 -0.5754 -0.1887
17974TIP3    H275414   1.077   4.011   4.732  0.3576 -1.8755  0.6071
17975TIP3   OH275415   5.458   4.658  11.877  0.6279 -0.6421  0.4416
17975TIP3    H175416   5.463   4.707  11.795  1.5837 -1.8869 -0.3000
17975TIP3    H275417   5.539   4.680  11.923 -0.2263  0.5773  1.3784
17976TIP3   OH275418   5.420   2.076  12.699  0.9519  0.0981 -0.1626
17976TIP3    H175419   5.351   2.119  12.648 -0.2620 -1.1935  0.3234
17976TIP3    H275420   5.443   2.140  12.767 -0.6053  0.1393  0.3713
17977TIP3   OH275421   0.302   0.409  11.800  0.3101  0.0510  0.4453
17977TIP3    H175422   0.300   0.406  11.896 -0.9855 -1.1705  0.4025
17977TIP3    H275423   0.284   0.320  11.772 -1.8352  0.8414 -0.9407
17978TIP3   OH275424   6.557   5.217  16.964 -0.3353  0.4059  0.3913
17978TIP3    H175425   6.599   5.215  16.878 -0.4366 -1.9912  0.3365
17978TIP3    H275426   6.471   5.178  16.950 -0.7009  0.7903  1.4423
17979TIP3   OH275427   1.241   5.840  16.689  0.0374 -0.1484  0.3211
17979TIP3    H175428   1.310   5.888  16.642 -0.2572  0.9345  0.9571
17979TIP3    H275429   1.160   5.868  16.647 -0.2013  0.5597  1.2108
17980TIP3   OH275430   4.099   3.132  16.355  0.3517  0.0068 -0.2994
17980TIP3    H175431   4.005   3.142  16.371  0.3306 -0.2996 -0.2301
17980TIP3    H275432   4.107   3.051  16.306  0.7407 -1.0017  1.3361
17981TIP3   OH275433   5.159   1.516   3.040 -0.0801 -0.3327 -0.2904
17981TIP3    H175434   5.131   1.526   2.949  1.9483  1.6500 -0.8022
17981TIP3    H275435   5.101   1.574   3.089 -0.5144 -0.6184 -0.4584
17982TIP3   OH275436   6.785   6.635   3.770  0.5036  0.1162 -0.4934
17982TIP3    H175437   6.719   6.692   3.808  0.0984 -0.2579 -0.6142
17982TIP3    H275438   6.741   6.597   3.693  0.3253 -1.3017  0.2812
17983TIP3   OH275439   6.289   1.443   3.032 -0.1461  0.6204  0.0837
17983TIP3    H175440   6.210   1.392   3.049  1.1294 -1.0825  1.2469
17983TIP3    H275441   6.359   1.393   3.074  1.5793  1.9978 -1.0117
17984TIP3   OH275442   0.327   4.354   1.859  0.2075 -0.1519 -0.1985
17984TIP3    H175443   0.401   4.379   1.914 -0.1530 -0.0229  0.2351
17984TIP3    H275444   0.357   4.371   1.770  2.0228 -3.3968 -0.3574
17985TIP3   OH275445   5.360   2.950   6.352  0.2234  0.6494 -0.1208
17985TIP3    H175446   5.433   2.910   6.305 -0.8658 -3.0693  1.0411
17985TIP3    H275447   5.297   2.973   6.284  0.2536 -1.1527 -0.8005
17986TIP3   OH275448   4.680   1.499   5.362  0.3546  0.2935  0.4675
17986TIP3    H175449   4.734   1.555   5.416  1.0511  0.7098 -0.6333
17986TIP3    H275450   4.595   1.544   5.358 -0.0001 -0.1939  1.9142
17987TIP3   OH275451   6.294   6.160  13.862 -0.6943 -0.7430  0.1470
17987TIP3    H175452   6.258   6.191  13.779 -1.8549  0.3027  1.0160
17987TIP3    H275453   6.333   6.074  13.841 -3.0870 -1.6343 -0.9843
17988TIP3   OH275454   5.456   2.102   5.496  0.0038 -0.4183  0.1138
17988TIP3    H175455   5.381   2.043   5.493  0.3315 -0.8313 -0.0624
17988TIP3    H275456   5.480   2.115   5.404 -0.2006  0.1627  0.1399
17989TIP3   OH275457   0.284   6.476   3.670 -1.0061 -0.3874 -0.7286
17989TIP3    H175458   0.335   6.453   3.748 -1.1924 -1.3967 -0.8866
17989TIP3    H275459   0.242   6.394   3.644 -3.5756  0.5955  0.0166
17990TIP3   OH275460   2.425   4.222  12.568 -0.0153 -0.4061 -0.0898
17990TIP3    H175461   2.349   4.185  12.614  0.0389 -0.7080 -0.2391
17990TIP3    H275462   2.500   4.198  12.623 -0.1117  0.7280  0.5716
17991TIP3   OH275463   6.475   0.594   5.022  0.1120  0.7886 -0.0066
17991TIP3    H175464   6.393   0.552   5.048  0.0197  1.6600  1.1923
17991TIP3    H275465   6.448   0.679   4.987  0.2592 -0.2207 -2.7812
17992TIP3   OH275466   3.475   6.465  12.593  0.1104  0.1331  0.4889
17992TIP3    H175467   3.496   6.558  12.582 -0.8162  0.5295  1.7056
17992TIP3    H275468   3.391   6.455  12.548 -0.2016  0.1034  1.0613
17993TIP3   OH275469   1.543   0.653   2.983 -0.6117 -0.2214  0.3994
17993TIP3    H175470   1.535   0.558   2.992 -1.6573 -0.2750 -0.7274
17993TIP3    H275471   1.487   0.674   2.908  1.6482  0.9601 -1.0584
17994TIP3   OH275472   4.258   6.203  16.781  0.4798  0.1733  0.0822
17994TIP3    H175473   4.349   6.212  16.810  0.4456  1.2949 -0.0913
17994TIP3    H275474   4.244   6.280  16.726 -0.3871 -0.3275 -0.4080
17995TIP3   OH275475   5.323   5.286  14.480 -0.1174 -0.2089  0.2604
17995TIP3    H175476   5.400   5.232  14.502 -0.7702 -1.6280 -0.7879
17995TIP3    H275477   5.286   5.309  14.565  1.1751  0.0724  0.7760
17996TIP3   OH275478   0.197   3.887  13.901  0.3250  0.1645  0.1649
17996TIP3    H175479   0.131   3.922  13.842 -0.2439 -1.2915 -0.0905
17996TIP3    H275480   0.245   3.823  13.849  5.0103  4.1648 -1.1327
17997TIP3   OH275481   2.753   3.145   5.186 -0.2095  0.5902  0.8581
17997TIP3    H175482   2.820   3.191   5.136  0.5395 -0.0129  1.2779
17997TIP3    H275483   2.670   3.177   5.151  0.2643 -0.5426 -1.4802
17998TIP3   OH275484   2.857   6.544  14.429  0.0177  1.2883 -0.2326
17998TIP3    H175485   2.872   6.451  14.417  0.7965  1.3962 -0.1507
17998TIP3    H275486   2.878   6.560  14.521  1.2308  1.7837 -0.5809
17999TIP3   OH275487   3.181   1.326  16.666 -0.4043  0.0727 -0.4459
17999TIP3    H175488   3.127   1.295  16.594 -0.8805 -1.3872  0.5019
17999TIP3    H275489   3.123   1.325  16.742  0.3822  0.5488  0.1846
18000TIP3   OH275490   2.664   1.533   5.788  0.1981 -0.0251  0.2343
18000TIP3    H175491   2.601   1.541   5.717 -0.2364 -0.8915  0.4980
18000TIP3    H275492   2.639   1.602   5.850 -1.4562 -1.2733  1.0276
18001TIP3   OH275493   5.658   4.274   1.065 -0.1748 -0.0700 -0.6217
18001TIP3    H175494   5.712   4.308   1.136 -0.1094  1.1981 -1.2403
18001TIP3    H275495   5.709   4.290   0.986 -0.9376  0.0698 -1.1008
18002TIP3   OH275496   6.763   5.431   2.258 -0.1316  0.2791  0.1799
18002TIP3    H175497   6.823   5.389   2.198 -1.2553 -1.5599  0.2660
18002TIP3    H275498   6.771   5.525   2.239  0.9517 -0.1122 -1.4625
18003TIP3   OH275499   1.112   2.702  14.583  0.2675 -0.3899 -0.0602
18003TIP3    H175500   1.040   2.702  14.646  0.2614 -1.1366 -0.0597
18003TIP3    H275501   1.132   2.610  14.570  0.7633 -0.2103 -0.5918
18004TIP3   OH275502   3.151   2.940  16.629 -0.2995 -0.1512  0.5325
18004TIP3    H175503   3.146   2.934  16.534  1.2250  1.4411  0.3023
18004TIP3    H275504   3.063   2.967  16.656  0.1571  3.2912 -0.8725
18005TIP3   OH275505   2.216   4.712   4.936 -0.4448 -0.0058  0.2093
18005TIP3    H175506   2.157   4.681   5.005 -0.5035  1.9005  1.1011
18005TIP3    H275507   2.253   4.793   4.972  0.9169  0.0794 -1.2925
18006TIP3   OH275508   0.501   3.335   4.236 -0.0398 -0.0723 -0.0671
18006TIP3    H175509   0.470   3.352   4.147 -1.3414 -0.0363  0.3863
18006TIP3    H275510   0.459   3.252   4.261 -0.6773  0.5476  0.9657
18007TIP3   OH275511   1.779   3.986  16.614  0.2819 -0.3465  0.4635
18007TIP3    H175512   1.733   3.904  16.630  0.0009 -0.3024 -0.1175
18007TIP3    H275513   1.853   3.984  16.676 -0.8929 -0.0656  1.9450
18008TIP3   OH275514   5.275   3.053   4.382 -0.3475  0.2080  0.1496
18008TIP3    H175515   5.329   2.979   4.409 -1.2456 -1.1148 -1.5623
18008TIP3    H275516   5.303   3.072   4.292 -1.5422  0.6260 -0.1464
18009TIP3   OH275517   4.680   6.589   2.886 -0.5733 -0.2887 -0.6477
18009TIP3    H175518   4.679   6.561   2.978 -1.1042  2.5831  0.3117
18009TIP3    H275519   4.587   6.592   2.861 -0.3970 -2.7857 -1.9636
18010TIP3   OH275520   4.453   4.172   5.381  0.3542  0.4741  0.3769
18010TIP3    H175521   4.482   4.256   5.344 -1.0933  1.4524  1.3680
18010TIP3    H275522   4.453   4.186   5.476 -2.7025  0.4086  0.4978
18011TIP3   OH275523   2.659   1.596  14.179  0.3651 -0.4081  0.4624
18011TIP3    H175524   2.714   1.518  14.186 -0.0814 -0.7237  0.5144
18011TIP3    H275525   2.570   1.562  14.166  0.1192  0.0860  0.7989
18012TIP3   OH275526   1.117   1.839   4.252  0.8667  0.0822 -0.0646
18012TIP3    H175527   1.179   1.769   4.233  0.8695  0.3243 -1.0003
18012TIP3    H275528   1.157   1.886   4.325  0.6401 -1.1393  0.8770
18013TIP3   OH275529   0.518   2.194   4.156  0.3900 -0.1652  0.0767
18013TIP3    H175530   0.513   2.132   4.083  0.3689 -0.5996  0.4454
18013TIP3    H275531   0.555   2.144   4.228  0.0217  0.1437  0.4884
18014TIP3   OH275532   5.104   2.106   0.700 -0.4174 -0.1136 -0.1930
18014TIP3    H175533   5.044   2.092   0.627 -0.4047 -2.5195  0.1934
18014TIP3    H275534   5.189   2.079   0.667 -0.6229 -2.5287  1.0092
18015TIP3   OH275535   3.284   5.766   4.218  0.4138 -0.4577 -0.4251
18015TIP3    H175536   3.234   5.847   4.207  0.9449 -0.2059 -1.0416
18015TIP3    H275537   3.273   5.719   4.135 -2.9658 -2.8227  1.1310
18016TIP3   OH275538   3.243   0.967  14.259 -0.0893 -0.5513  0.1984
18016TIP3    H175539   3.220   1.009  14.176 -2.5253 -0.8920  0.5996
18016TIP3    H275540   3.283   1.036  14.311  2.0710 -0.4940 -1.4305
18017TIP3   OH275541   0.578   6.805   4.886 -0.0809 -0.4094 -0.2559
18017TIP3    H175542   0.582   6.856   4.966  0.0668 -1.9296  0.7404
18017TIP3    H275543   0.488   6.814   4.856 -0.1919 -0.0035  0.1965
18018TIP3   OH275544   5.661   4.869   1.530  0.3751  0.5784 -0.5984
18018TIP3    H175545   5.595   4.832   1.588  0.2084 -1.6214 -2.0617
18018TIP3    H275546   5.676   4.957   1.564 -0.5397 -0.1784  2.0293
18019TIP3   OH275547   4.111   6.264  16.436 -0.4736 -0.2936 -0.2321
18019TIP3    H175548   4.139   6.320  16.509 -0.6382 -0.5133  0.0016
18019TIP3    H275549   4.147   6.178  16.457 -1.4921 -0.6443  0.1979
18020TIP3   OH275550   4.222   5.450   3.347  0.2091 -0.7686 -0.0642
18020TIP3    H175551   4.217   5.392   3.271 -0.8660 -1.6680  0.6473
18020TIP3    H275552   4.169   5.526   3.322 -0.2676 -1.1278 -0.1737
18021TIP3   OH275553   5.637   4.705   3.798 -0.5187 -0.1268 -0.6952
18021TIP3    H175554   5.615   4.764   3.726 -0.4914  2.1437  1.0310
18021TIP3    H275555   5.552   4.679   3.834 -0.5457  1.2114  0.2829
18022TIP3   OH275556   3.533   2.195  11.412 -0.4523  0.6440 -0.1030
18022TIP3    H175557   3.545   2.267  11.350  0.6467  1.5277  1.1006
18022TIP3    H275558   3.622   2.164  11.430 -0.7963  0.0755  0.6614
18023TIP3   OH275559   1.976   0.951   6.322  0.0253  0.5910 -0.3848
18023TIP3    H175560   1.927   0.937   6.241 -0.2123 -0.2607 -0.1033
18023TIP3    H275561   1.912   0.990   6.382 -0.0627  0.3157 -0.3001
18024TIP3   OH275562   3.836   5.621  11.184 -0.1491  0.5575 -0.1209
18024TIP3    H175563   3.777   5.560  11.139 -1.3339  1.2187  0.4919
18024TIP3    H275564   3.884   5.663  11.113 -1.4804  1.0757 -0.7573
18025TIP3   OH275565   3.271   5.794   0.707 -0.2712 -0.1983  0.4631
18025TIP3    H175566   3.270   5.873   0.654 -0.7564 -0.0716  0.6530
18025TIP3    H275567   3.359   5.791   0.744 -0.0745 -0.0512  0.0071
18026TIP3   OH275568   4.819   5.317  13.769  0.6215 -0.2632 -0.3730
18026TIP3    H175569   4.895   5.301  13.824  1.1239  1.3465 -0.5156
18026TIP3    H275570   4.754   5.252  13.796  1.0903  0.0390  1.6249
18027TIP3   OH275571   4.940   0.878  14.103  0.3180  0.2528  0.0017
18027TIP3    H175572   4.977   0.827  14.031  2.1380  0.0205  1.0307
18027TIP3    H275573   4.954   0.824  14.180 -1.3259  0.6266  0.5932
18028TIP3   OH275574   6.322   3.971  14.346  0.0073  0.2467  0.0783
18028TIP3    H175575   6.330   3.975  14.251  1.7092 -0.0591  0.1802
18028TIP3    H275576   6.331   3.878  14.367  0.8111  0.4373  0.6163
18029TIP3   OH275577   6.257   5.907  13.429  0.1711 -0.0291 -0.5882
18029TIP3    H175578   6.250   5.917  13.334 -1.2259 -0.3090 -0.5274
18029TIP3    H275579   6.345   5.871  13.443  0.3257 -0.1362 -1.7788
18030TIP3   OH275580   1.123   5.853  13.850  0.3294  0.0612  0.8635
18030TIP3    H175581   1.129   5.788  13.921 -2.0562 -0.2264  0.9008
18030TIP3    H275582   1.064   5.813  13.786  0.2108  1.4771  0.0426
18031TIP3   OH275583   6.676   1.784   4.861  1.1957 -0.1161 -0.2045
18031TIP3    H175584   6.733   1.786   4.939  0.7096  1.2089  0.1505
18031TIP3    H275585   6.678   1.693   4.832  0.1446 -1.0255  2.2941
18032TIP3   OH275586   4.807   2.534  16.221 -0.6737 -0.2714 -0.3850
18032TIP3    H175587   4.847   2.621  16.214 -0.3452 -0.3204  0.6452
18032TIP3    H275588   4.860   2.479  16.164  1.5440 -0.5790  1.7536
18033TIP3   OH275589   3.305   5.627  14.700  0.1945 -0.0085  0.4829
18033TIP3    H175590   3.284   5.576  14.778  1.5112 -0.4109  0.6110
18033TIP3    H275591   3.297   5.718  14.729  2.8729 -0.0952  1.8408
18034TIP3   OH275592   6.437   4.230  13.995 -0.2482  0.2573 -0.0418
18034TIP3    H175593   6.481   4.224  14.080  0.8690  0.0542 -0.6282
18034TIP3    H275594   6.459   4.316  13.962 -0.6444  0.3158 -0.1564
18035TIP3   OH275595   4.634   2.634   0.022 -0.8323  0.3093 -0.2356
18035TIP3    H175596   4.607   2.545   0.045 -0.0880  0.0041 -0.5172
18035TIP3    H275597   4.720   2.623  -0.017 -0.1358  1.2805  0.9544
18036TIP3   OH275598   6.189   6.493   1.370  0.1683 -0.1582  0.1464
18036TIP3    H175599   6.174   6.413   1.319  1.7790  0.3315 -1.1507
18036TIP3    H275600   6.163   6.469   1.459  0.6542 -2.1524 -0.2023
18037TIP3   OH275601   3.306   1.552   3.218  0.1878  0.2534 -0.3914
18037TIP3    H175602   3.348   1.470   3.194 -0.0179  0.0539 -0.0846
18037TIP3    H275603   3.364   1.620   3.185  0.6371 -0.0195 -0.1726
18038TIP3   OH275604   2.664   5.926   5.427 -0.1198 -0.8924 -0.5054
18038TIP3    H175605   2.680   5.934   5.521  1.2494 -1.8781 -0.6238
18038TIP3    H275606   2.706   6.002   5.388 -2.5716  0.7386 -0.1995
18039TIP3   OH275607   0.667   0.850  11.394 -0.0908  0.3447  0.1795
18039TIP3    H175608   0.680   0.772  11.340  0.0750  0.0926  0.5770
18039TIP3    H275609   0.736   0.910  11.365 -0.9306  0.7967 -0.9248
18040TIP3   OH275610   3.411   1.935   3.979 -0.4137 -0.3344 -0.2713
18040TIP3    H175611   3.412   1.993   4.054 -0.8926 -0.3149 -0.2768
18040TIP3    H275612   3.336   1.964   3.926  0.9886  0.8551 -1.7108
18041TIP3   OH275613   3.198   6.148  14.140 -0.2748  0.0736 -0.0744
18041TIP3    H175614   3.195   6.056  14.164 -0.1276  0.3160  0.9246
18041TIP3    H275615   3.279   6.158  14.090  0.3437 -0.1081  0.8686
18042TIP3   OH275616   2.069   2.378  14.670  0.1831  0.2863  0.1092
18042TIP3    H175617   2.134   2.345  14.732 -0.3269 -1.8428 -0.3935
18042TIP3    H275618   2.042   2.463  14.706  3.0909  1.1863  0.3801
18043TIP3   OH275619   5.388   2.543   6.032 -0.0303  0.2041  0.2791
18043TIP3    H175620   5.376   2.453   6.064  0.1679  0.8363  2.3099
18043TIP3    H275621   5.436   2.533   5.950 -0.3385 -1.5550  0.2543
18044TIP3   OH275622   1.352   1.975  16.077 -1.2190  0.6339 -0.2279
18044TIP3    H175623   1.416   2.044  16.059  0.0874 -0.4555  0.1054
18044TIP3    H275624   1.332   1.984  16.170  0.8747 -0.9575  0.4368
18045TIP3   OH275625   3.410   0.267  14.740 -0.0592 -0.1410 -0.0489
18045TIP3    H175626   3.408   0.329  14.813 -0.8821 -0.2057 -0.0065
18045TIP3    H275627   3.442   0.318  14.665 -3.6803  1.2820 -0.8371
18046TIP3   OH275628   3.552   5.611  16.998  0.0928 -0.1668  0.4978
18046TIP3    H175629   3.525   5.653  17.079  0.2178 -0.6398  0.7938
18046TIP3    H275630   3.477   5.620  16.939 -0.8597 -1.7144  1.3959
18047TIP3   OH275631   0.811   2.783  10.205 -0.8090  0.6409  0.1775
18047TIP3    H175632   0.791   2.854  10.144 -0.4490 -1.5054 -2.5947
18047TIP3    H275633   0.727   2.741  10.222 -0.6004 -0.1567 -0.7060
18048TIP3   OH275634   5.624   6.182   5.730  0.0377 -0.1825  0.2863
18048TIP3    H175635   5.610   6.208   5.821  0.9202  0.4600  0.2459
18048TIP3    H275636   5.710   6.216   5.708  0.1672 -1.0096 -0.5532
18049TIP3   OH275637   0.803   6.677   5.829  0.3282  0.3000 -0.2060
18049TIP3    H175638   0.839   6.752   5.876 -0.8169  0.4037  0.5473
18049TIP3    H275639   0.790   6.708   5.739  1.6640  0.3871 -0.3884
18050TIP3   OH275640   2.288   0.807   0.324  0.8430 -0.4191  0.4055
18050TIP3    H175641   2.362   0.830   0.381  0.0065 -0.5524  1.5989
18050TIP3    H275642   2.271   0.887   0.274  1.7406 -0.3682  0.1595
18051TIP3   OH275643   3.561   1.811  16.185  0.0341 -0.7194 -0.2099
18051TIP3    H175644   3.615   1.736  16.162 -0.6716 -1.3309  0.0965
18051TIP3    H275645   3.562   1.866  16.107  0.1882 -1.2613 -0.5933
18052TIP3   OH275646   2.846   5.238   1.840  0.3674 -0.3203 -0.2994
18052TIP3    H175647   2.899   5.298   1.894  2.2642 -2.1773  0.0283
18052TIP3    H275648   2.793   5.190   1.903  0.2626 -0.3246 -0.3915
18053TIP3   OH275649   6.229   3.230  16.857  0.1366  0.1816 -0.8297
18053TIP3    H175650   6.213   3.140  16.830 -1.2586  0.3422 -0.6134
18053TIP3    H275651   6.201   3.234  16.948  1.8889  0.4123 -0.2581
18054TIP3   OH275652   4.309   6.237   0.405 -0.4537 -0.0789  0.6377
18054TIP3    H175653   4.221   6.225   0.439 -0.9849  0.2513 -0.5717
18054TIP3    H275654   4.342   6.315   0.450 -1.2710  0.5501  0.1715
18055TIP3   OH275655   1.316   5.798  11.204 -0.3687 -0.4079  0.3989
18055TIP3    H175656   1.294   5.712  11.241 -2.2965  0.1147  0.5739
18055TIP3    H275657   1.333   5.853  11.280 -2.4374  0.1774  0.4897
18056TIP3   OH275658   5.141   5.266  15.177  0.5106 -0.3654  0.1884
18056TIP3    H175659   5.085   5.243  15.103  0.4181  0.2415  0.0614
18056TIP3    H275660   5.164   5.358  15.162 -1.5180  0.5703  2.1590
18057TIP3   OH275661   4.900   1.020  16.724  0.7528 -0.0045  0.9521
18057TIP3    H175662   4.991   1.045  16.705  0.5106  1.0370  1.1107
18057TIP3    H275663   4.904   0.926  16.741  1.4023 -0.5363 -1.6970
18058TIP3   OH275664   4.215   5.296   3.829 -0.2840  0.7055 -0.0068
18058TIP3    H175665   4.222   5.362   3.898  1.4712 -0.3827  0.9325
18058TIP3    H275666   4.147   5.236   3.859 -1.2529  1.5536 -0.4380
18059TIP3   OH275667   3.024   3.197  10.865 -0.4185 -0.4572 -0.4762
18059TIP3    H175668   3.119   3.190  10.862 -0.3562  0.3914 -0.6059
18059TIP3    H275669   2.993   3.111  10.837  0.3109 -1.0949  0.6025
18060TIP3   OH275670   5.615   2.076  13.803  0.0570  0.0627  1.0215
18060TIP3    H175671   5.682   2.060  13.870  2.2011  1.5427 -0.6488
18060TIP3    H275672   5.656   2.048  13.721 -0.7039  2.4409 -0.2701
18061TIP3   OH275673   4.555   2.752   2.213  0.2445  0.0587 -0.0632
18061TIP3    H175674   4.626   2.796   2.167  0.5581  1.8797  1.9883
18061TIP3    H275675   4.583   2.750   2.304 -1.8683 -0.1012  0.6409
18062TIP3   OH275676   6.376   5.383   6.332 -0.3146 -0.0656 -0.5436
18062TIP3    H175677   6.288   5.412   6.357  0.3118  1.1153  0.3698
18062TIP3    H275678   6.434   5.450   6.367  1.1056 -1.7428  0.4895
18063TIP3   OH275679   1.282   4.496  15.272  0.2850  0.1932  0.0269
18063TIP3    H175680   1.318   4.460  15.353 -1.5144 -0.1827  0.7164
18063TIP3    H275681   1.357   4.507  15.214  1.1459 -3.7282  0.1206
18064TIP3   OH275682   3.445   2.976  16.442  0.0590 -0.6062  0.0412
18064TIP3    H175683   3.351   2.983  16.459  0.3174  0.5135  1.1361
18064TIP3    H275684   3.474   2.904  16.498 -0.4210 -2.1857 -1.6531
18065TIP3   OH275685   4.245   0.058  12.997  0.7390  0.5793 -0.0574
18065TIP3    H175686   4.221   0.070  12.905  2.0238  0.3005 -0.4374
18065TIP3    H275687   4.204   0.132  13.042 -0.0706  0.6093 -0.8147
18066TIP3   OH275688   3.843   3.493  12.554  0.3286 -0.2068 -0.3941
18066TIP3    H175689   3.889   3.542  12.622  1.6711 -1.6969 -0.1870
18066TIP3    H275690   3.864   3.540  12.473 -1.1580  1.4860  0.1353
18067TIP3   OH275691   1.876   0.300   1.316 -0.8751  0.6321  0.2001
18067TIP3    H175692   1.840   0.212   1.314 -4.3068  1.7996  1.9314
18067TIP3    H275693   1.954   0.296   1.260 -0.7960 -3.4427  0.3383
18068TIP3   OH275694   1.060   0.949  12.341 -0.0924 -0.1596  0.6080
18068TIP3    H175695   1.106   0.967  12.259 -0.3571 -0.6640  0.3402
18068TIP3    H275696   1.129   0.936  12.406  0.1143  0.5119  0.5249
18069TIP3   OH275697   5.626   1.193   1.143 -0.3707  0.2107 -0.3560
18069TIP3    H175698   5.574   1.225   1.216  0.7240  1.0993  0.0584
18069TIP3    H275699   5.575   1.120   1.108 -1.2477  0.2093  0.8507
18070TIP3   OH275700   6.056   5.474  11.755 -0.3183  0.1880 -0.2045
18070TIP3    H175701   6.101   5.516  11.681  1.8368 -0.5616  0.5855
18070TIP3    H275702   6.039   5.546  11.815 -1.0574  0.6288 -0.9195
18071TIP3   OH275703   5.731   6.257   4.823  0.0913  0.6202 -0.3578
18071TIP3    H175704   5.813   6.283   4.864 -0.9802  0.1982  2.2250
18071TIP3    H275705   5.663   6.305   4.871 -1.4321 -1.8053  0.1070
18072TIP3   OH275706   4.314   5.883   3.168  0.2840  0.0987 -0.5280
18072TIP3    H175707   4.361   5.891   3.085  0.8339  1.0528 -0.1345
18072TIP3    H275708   4.333   5.794   3.198  1.8407  0.4642 -0.3754
18073TIP3   OH275709   1.332   6.707  10.955 -0.1871  0.0959  0.2068
18073TIP3    H175710   1.247   6.686  10.917  0.5770  0.4993 -1.8460
18073TIP3    H275711   1.342   6.645  11.027 -1.7938 -0.5894 -0.1129
18074TIP3   OH275712   5.084   1.438   3.975  0.2775  0.1870 -0.5053
18074TIP3    H175713   5.107   1.500   4.044  0.6890 -0.6279  0.0993
18074TIP3    H275714   5.155   1.445   3.911  1.1132 -0.7225  0.2886
18075TIP3   OH275715   5.222   5.549  14.318 -0.2156 -0.2673 -0.5003
18075TIP3    H175716   5.232   5.455  14.302 -1.6717 -1.2528  3.2453
18075TIP3    H275717   5.298   5.574  14.370 -1.3789 -0.2848  1.3326
18076TIP3   OH275718   0.142   4.627  14.001 -0.4880  0.2459 -0.1644
18076TIP3    H175719   0.166   4.577  13.923 -0.6595 -1.1462  0.6504
18076TIP3    H275720   0.135   4.718  13.970  1.6059  0.0778 -1.3150
18077TIP3   OH275721   2.240   3.532   2.046  0.0748  0.3874 -0.7509
18077TIP3    H175722   2.213   3.591   2.117 -0.7166  0.0893 -0.7965
18077TIP3    H275723   2.335   3.536   2.047  0.0472  1.1820 -0.3366
18078TIP3   OH275724   0.603   3.486   0.314 -0.7166 -0.1419  0.1151
18078TIP3    H175725   0.586   3.456   0.403 -1.2459  0.2572  0.1488
18078TIP3    H275726   0.646   3.571   0.325 -2.4426  0.7911 -0.0134
18079TIP3   OH275727   0.594   6.874  16.239 -0.0520 -0.0347 -0.4292
18079TIP3    H175728   0.597   6.856  16.145  0.6716 -0.5075 -0.3267
18079TIP3    H275729   0.685   6.893  16.263 -0.3218  0.6750  0.0663
18080TIP3   OH275730   2.362   4.312   1.447  0.1344  0.3504  0.5791
18080TIP3    H175731   2.329   4.271   1.527  2.8519 -0.0498  1.6132
18080TIP3    H275732   2.371   4.404   1.469 -0.5979  0.5228  0.1787
18081TIP3   OH275733   0.122   6.303  15.025  0.5492 -0.0338  0.2891
18081TIP3    H175734   0.064   6.379  15.027  0.7898  0.2252 -1.3362
18081TIP3    H275735   0.147   6.289  15.116  0.7326  1.9928  0.5792
18082TIP3   OH275736   5.107   6.353  13.610 -0.7778  0.0882  0.0037
18082TIP3    H175737   5.173   6.283  13.601 -0.7359  0.0135  0.8206
18082TIP3    H275738   5.124   6.411  13.536 -1.6085 -1.4072 -1.3989
18083TIP3   OH275739   4.580   5.566  15.220  0.0867 -0.0834  0.3932
18083TIP3    H175740   4.675   5.566  15.207  0.5110  2.6731  2.6597
18083TIP3    H275741   4.568   5.566  15.315 -2.0160  2.3316  0.2504
18084TIP3   OH275742   1.098   6.658  15.219 -0.4174 -0.1245  0.0866
18084TIP3    H175743   1.142   6.579  15.249  0.8907  0.5578  0.0333
18084TIP3    H275744   1.114   6.723  15.288  0.9982  0.8988 -1.1266
18085TIP3   OH275745   6.342   3.959  15.975 -0.2144  0.2930  0.2995
18085TIP3    H175746   6.317   3.988  15.888  0.6191  0.1128 -0.0089
18085TIP3    H275747   6.320   3.866  15.977 -1.3138  0.5451  0.6989
18086TIP3   OH275748   1.251   5.007  14.508 -0.0491  0.3502  0.1990
18086TIP3    H175749   1.343   4.983  14.513  0.0301  0.6416  0.1423
18086TIP3    H275750   1.213   4.942  14.449  0.3516  0.9052 -0.6915
18087TIP3   OH275751   1.255   5.101   2.117 -0.1175 -0.4261 -0.6663
18087TIP3    H175752   1.215   5.020   2.148 -0.7610 -0.3208 -1.1887
18087TIP3    H275753   1.233   5.105   2.024 -0.1737  0.3880 -0.6286
18088TIP3   OH275754   4.967   4.347   1.739  0.0262  0.1913 -0.6298
18088TIP3    H175755   4.936   4.308   1.820 -0.1913 -1.0644 -1.2884
18088TIP3    H275756   5.055   4.312   1.726  0.7677  1.7490 -0.0765
18089TIP3   OH275757   1.597   4.947  16.211  0.1322 -0.3692  0.2469
18089TIP3    H175758   1.561   4.982  16.130  0.2627 -1.6911 -0.4106
18089TIP3    H275759   1.534   4.880  16.238  0.0433  0.1107  1.3003
18090TIP3   OH275760   2.736   5.884   5.715  0.1592 -0.4778  0.2184
18090TIP3    H175761   2.675   5.939   5.764 -0.5518 -0.5582 -0.5534
18090TIP3    H275762   2.822   5.917   5.739 -0.1585 -0.6865  1.7107
18091TIP3   OH275763   3.826   6.650   4.374  0.7749  0.0310  0.6297
18091TIP3    H175764   3.802   6.586   4.440  0.3980 -0.9496 -0.4236
18091TIP3    H275765   3.754   6.714   4.376  0.1814 -0.6076  0.4045
18092TIP3   OH275766   2.113   3.086   4.425 -0.3344 -0.2937 -0.0113
18092TIP3    H175767   2.179   3.048   4.367  0.1445  0.4441  0.0287
18092TIP3    H275768   2.147   3.174   4.445 -0.0959 -0.7637  1.9580
18093TIP3   OH275769   3.867   2.643  16.352  0.5976 -0.5673  0.3235
18093TIP3    H175770   3.885   2.653  16.445  0.2518 -1.0502  0.4438
18093TIP3    H275771   3.786   2.693  16.338  1.6182  1.0452 -0.0880
18094TIP3   OH275772   0.806   4.947   5.692  0.4447  0.0733  0.8478
18094TIP3    H175773   0.804   4.856   5.663 -1.0216  0.3340  0.0308
18094TIP3    H275774   0.891   4.980   5.662  0.3998 -0.6358 -0.1131
18095TIP3   OH275775   3.553   2.604   2.744  0.3561  0.1935 -0.1841
18095TIP3    H175776   3.538   2.673   2.679 -0.0108 -0.7050 -1.0761
18095TIP3    H275777   3.526   2.643   2.827 -0.5345  0.8836 -0.7756
18096TIP3   OH275778   3.595   4.531  10.847 -0.2798 -0.7845  0.3660
18096TIP3    H175779   3.579   4.437  10.858 -0.2974 -1.1697 -2.2617
18096TIP3    H275780   3.613   4.542  10.754 -0.2902  1.8461  0.5830
18097TIP3   OH275781   6.726   5.340  15.662 -0.3124 -0.3835  0.1210
18097TIP3    H175782   6.805   5.386  15.635  1.0074 -2.8344 -0.4650
18097TIP3    H275783   6.756   5.271  15.721 -1.6563 -2.7400 -1.7601
18098TIP3   OH275784   4.201   5.222   3.156 -0.0284  0.5118 -0.2762
18098TIP3    H175785   4.177   5.220   3.063  1.0289 -3.1425 -0.6245
18098TIP3    H275786   4.296   5.234   3.156 -0.1058  1.2008  0.4005
18099TIP3   OH275787   3.348   0.735   5.309 -0.3244 -0.0116  0.5369
18099TIP3    H175788   3.359   0.707   5.400  1.2957  0.8934  0.6695
18099TIP3    H275789   3.293   0.813   5.314 -0.1675  0.0875  0.7701
18100TIP3   OH275790   3.863   6.521  12.064  0.4376  0.1645  0.4986
18100TIP3    H175791   3.908   6.513  12.148 -1.2397  1.6098  1.6054
18100TIP3    H275792   3.813   6.603  12.071 -0.6621 -0.2714 -1.4618
18101TIP3   OH275793   5.181   5.794  10.729  0.1398 -0.1117  0.4960
18101TIP3    H175794   5.216   5.879  10.753  0.0763 -0.6390  2.7646
18101TIP3    H275795   5.118   5.812  10.660  0.6071  1.5823  0.4716
18102TIP3   OH275796   2.133   1.481   2.864 -0.2697 -0.2980 -0.4035
18102TIP3    H175797   2.174   1.450   2.784 -0.2940 -0.1853 -0.4602
18102TIP3    H275798   2.189   1.449   2.934 -1.4218 -2.3048 -0.3149
18103TIP3   OH275799   1.916   2.178  15.719 -0.0248  0.2309 -0.5752
18103TIP3    H175800   1.898   2.093  15.761 -0.3652 -0.4011 -1.9631
18103TIP3    H275801   2.010   2.190  15.730  0.2374 -0.9134 -1.3880
18104TIP3   OH275802   6.635   6.116  15.182 -0.7765  0.0263 -0.3496
18104TIP3    H175803   6.547   6.100  15.214 -0.3258 -0.9434  0.4428
18104TIP3    H275804   6.677   6.168  15.251 -0.1610 -1.1044  0.1613
18105TIP3   OH275805   5.704   1.885  13.598  0.3455  0.1407 -0.3154
18105TIP3    H175806   5.790   1.924  13.581  0.0890  0.8014 -0.1392
18105TIP3    H275807   5.718   1.824  13.670  0.6923  0.1578 -0.3685
18106TIP3   OH275808   2.782   4.139   2.367  0.2042 -0.8457  0.1410
18106TIP3    H175809   2.771   4.049   2.335  1.2953 -1.2599  0.8712
18106TIP3    H275810   2.848   4.177   2.309 -1.3337  0.0317 -1.1433
18107TIP3   OH275811   2.512   5.116  15.554 -0.4815  0.0765 -0.1420
18107TIP3    H175812   2.471   5.190  15.599 -0.0598  0.3857 -0.2654
18107TIP3    H275813   2.594   5.101  15.602 -0.5734 -0.3221 -0.1057
18108TIP3   OH275814   4.756   5.421   2.576  0.4417  0.2552  0.1054
18108TIP3    H175815   4.737   5.328   2.566 -0.0240  0.5758 -5.4517
18108TIP3    H275816   4.848   5.430   2.552  0.4796  1.1968  0.5437
18109TIP3   OH275817   6.144   4.850   3.658  0.6668  0.1055 -0.0100
18109TIP3    H175818   6.169   4.939   3.683  1.3279 -0.4699  1.5513
18109TIP3    H275819   6.067   4.861   3.602  0.0564  1.6154  1.0570
18110TIP3   OH275820   0.149   0.737   2.192  0.2779 -0.1485  0.5580
18110TIP3    H175821   0.224   0.787   2.160 -0.6549  1.3142  0.6082
18110TIP3    H275822   0.076   0.763   2.136 -0.3428 -1.1213  0.8801
18111TIP3   OH275823   4.188   4.662  16.326 -0.1501 -0.6197 -0.2787
18111TIP3    H175824   4.181   4.655  16.231  1.6804  1.0027 -0.5907
18111TIP3    H275825   4.242   4.588  16.352  0.4340 -0.3369 -0.6763
18112TIP3   OH275826   6.153   1.743   1.336  0.0796  0.0364 -0.0121
18112TIP3    H175827   6.147   1.724   1.430  2.7460 -0.4190  0.1401
18112TIP3    H275828   6.231   1.799   1.327 -1.1538  1.6316 -1.7882
18113TIP3   OH275829   2.534   3.681   2.965  0.1979  0.0116  0.2601
18113TIP3    H175830   2.616   3.728   2.953  0.3512 -0.1934  0.4828
18113TIP3    H275831   2.482   3.703   2.889  0.3232  0.4277  0.2935
18114TIP3   OH275832   6.140   5.849  10.321  0.2193 -0.0997  0.1374
18114TIP3    H175833   6.235   5.837  10.314 -0.0650 -1.5235 -3.2417
18114TIP3    H275834   6.103   5.769  10.283 -2.3664  0.6644  0.8281
18115TIP3   OH275835   6.843   2.621  13.151 -0.2817  0.2299  0.1812
18115TIP3    H175836   6.867   2.710  13.177 -0.4547  0.1888  0.4826
18115TIP3    H275837   6.784   2.591  13.220  0.7625 -0.5846  0.7315
18116TIP3   OH275838   2.396   4.638  14.447  0.2489  0.2579 -0.3044
18116TIP3    H175839   2.417   4.545  14.439  0.6515  0.2580  0.5832
18116TIP3    H275840   2.473   4.683  14.411  0.0881  0.2499 -0.6608
18117TIP3   OH275841   4.009   3.478  13.560 -0.2218 -0.2839  0.0634
18117TIP3    H175842   3.964   3.542  13.505  0.3536 -0.7667 -1.0090
18117TIP3    H275843   3.943   3.449  13.622 -0.9035  0.2776 -0.3812
18118TIP3   OH275844   5.540   5.928  11.326 -0.2110 -0.0347 -0.3591
18118TIP3    H175845   5.613   5.950  11.268  1.0561 -0.7971  0.9076
18118TIP3    H275846   5.463   5.966  11.282  1.0245  1.4996 -1.3213
18119TIP3   OH275847   2.329   4.979   1.279  0.3893 -0.2055 -0.1640
18119TIP3    H175848   2.305   5.051   1.337  0.6915  0.4075 -0.7836
18119TIP3    H275849   2.265   4.910   1.298  1.2658 -0.5521  1.8608
18120TIP3   OH275850   6.226   0.508   3.040 -0.0766  0.6087 -0.1013
18120TIP3    H175851   6.232   0.591   2.994  1.5656  0.4810 -0.1760
18120TIP3    H275852   6.210   0.443   2.971 -1.4501  0.8268 -0.0337
18121TIP3   OH275853   1.596   6.173   5.997  0.2771 -0.1442 -0.6228
18121TIP3    H175854   1.614   6.180   5.903 -1.7236  2.0631 -0.9249
18121TIP3    H275855   1.577   6.263   6.025  1.3247 -0.6526  2.0439
18122TIP3   OH275856   4.578   3.846   0.498 -0.2939  0.2573  0.2742
18122TIP3    H175857   4.657   3.858   0.446 -1.4163  2.7260 -0.9794
18122TIP3    H275858   4.530   3.775   0.454  0.4964 -0.2386  0.1960
18123TIP3   OH275859   3.579   0.299   3.873  0.0791 -0.1437 -0.2633
18123TIP3    H175860   3.615   0.241   3.805  0.9385 -3.2362  2.5924
18123TIP3    H275861   3.486   0.303   3.853 -0.2884 -3.6690  0.0229
18124TIP3   OH275862   1.946   4.186  14.166  0.1249 -0.0636  0.5208
18124TIP3    H175863   1.925   4.165  14.076 -0.7865 -1.1558  0.9659
18124TIP3    H275864   2.029   4.142  14.183 -0.6042 -1.3890  0.7422
18125TIP3   OH275865   4.962   6.876  15.562 -0.5682 -0.3375 -0.1040
18125TIP3    H175866   4.941   6.830  15.481 -0.7480 -0.7523  0.1713
18125TIP3    H275867   5.056   6.889  15.559 -0.8241  1.6960 -1.4395
18126TIP3   OH275868   4.877   3.422  16.174 -0.0668 -0.0454  0.4378
18126TIP3    H175869   4.823   3.359  16.222  0.9632 -0.3710  1.1936
18126TIP3    H275870   4.962   3.419  16.217 -0.2427  2.5945  1.1861
18127TIP3   OH275871   4.215   0.309   0.349 -0.0888 -0.2674 -0.4811
18127TIP3    H175872   4.241   0.283   0.260  0.9573 -0.5458 -0.1076
18127TIP3    H275873   4.265   0.250   0.406  0.8299  1.2569  0.3342
18128TIP3   OH275874   0.780   6.769  15.284  0.1439 -0.4270  0.0769
18128TIP3    H175875   0.856   6.720  15.317  0.7475  0.8898  0.7641
18128TIP3    H275876   0.724   6.779  15.361  0.4460  0.6729  0.1692
18129TIP3   OH275877   4.383   0.534   0.590 -0.2707 -0.0080  0.2899
18129TIP3    H175878   4.308   0.560   0.537  1.3557  2.6474 -0.9416
18129TIP3    H275879   4.365   0.572   0.676 -0.6947 -0.1051  0.2474
18130TIP3   OH275880   5.362   3.156  17.015 -0.2285 -0.0655 -0.8089
18130TIP3    H175881   5.363   3.148  17.111 -0.3232 -0.3273 -0.8268
18130TIP3    H275882   5.454   3.159  16.990 -0.1608  2.8734 -0.4983
18131TIP3   OH275883   1.389   5.289   3.409  0.0795 -0.2043  0.4380
18131TIP3    H175884   1.476   5.265   3.375 -0.2421  0.1987 -0.7081
18131TIP3    H275885   1.396   5.276   3.504  0.4715 -3.1534  0.0982
18132TIP3   OH275886   6.251   3.688   5.599 -0.3924  0.1820 -0.2968
18132TIP3    H175887   6.293   3.603   5.600  0.4736  0.5645  1.6685
18132TIP3    H275888   6.274   3.727   5.515  0.8431 -0.7409 -0.3966
18133TIP3   OH275889   1.603   5.711  10.531  0.0643 -0.2363 -0.9473
18133TIP3    H175890   1.600   5.711  10.627  0.3575 -1.4670 -0.9151
18133TIP3    H275891   1.696   5.702  10.510  0.0189  0.2124 -1.3590
18134TIP3   OH275892   3.491   0.731   1.239 -0.1945 -0.4675 -0.1708
18134TIP3    H175893   3.436   0.729   1.161 -1.7575 -1.7031  0.9183
18134TIP3    H275894   3.566   0.675   1.217 -0.2587 -0.2396 -1.0073
18135TIP3   OH275895   0.040   5.835   0.910  0.0648  0.4189 -0.3702
18135TIP3    H175896  -0.020   5.764   0.933 -0.3688  1.2000  0.9591
18135TIP3    H275897   0.108   5.792   0.857  1.4338 -1.6252  2.7601
18136TIP3   OH275898   5.151   1.784  15.045  0.2153 -0.0701  0.6526
18136TIP3    H175899   5.189   1.747  15.124  0.6343 -0.7680  0.1321
18136TIP3    H275900   5.196   1.740  14.973 -1.2542 -0.5818  0.0125
18137TIP3   OH275901   6.408   1.964  15.971 -0.3691  0.3330 -0.4373
18137TIP3    H175902   6.406   1.868  15.973  0.8660  0.2940 -0.1155
18137TIP3    H275903   6.441   1.985  15.883 -0.8690  0.4699 -0.5928
18138TIP3   OH275904   4.321   6.129   5.026 -0.0490  0.3668 -0.0278
18138TIP3    H175905   4.367   6.045   5.018 -0.4950  0.1526 -0.4011
18138TIP3    H275906   4.389   6.191   5.053  0.3783 -0.0210 -0.1927
18139TIP3   OH275907   4.234   1.929   4.528  0.2486 -0.2380  0.0858
18139TIP3    H175908   4.234   1.884   4.612 -0.3742  0.7853  0.6511
18139TIP3    H275909   4.326   1.956   4.516  0.1888  0.3499  0.8572
18140TIP3   OH275910   4.098   2.803   4.679  0.0179  0.2543 -0.2147
18140TIP3    H175911   4.092   2.886   4.726  1.1007 -0.9424  2.1828
18140TIP3    H275912   4.185   2.769   4.701 -0.9868 -2.2536  0.1869
18141TIP3   OH275913   2.014   3.673   5.335 -0.0303  0.0880  0.2693
18141TIP3    H175914   2.104   3.702   5.351 -0.0284  0.8212 -0.9734
18141TIP3    H275915   1.980   3.655   5.423  0.3290  2.8182  1.0708
18142TIP3   OH275916   1.689   3.440   4.656 -0.6902 -0.3813  0.0045
18142TIP3    H175917   1.653   3.360   4.620 -0.2176 -0.0681 -1.2357
18142TIP3    H275918   1.627   3.467   4.724 -1.9186 -0.7253 -0.9398
18143TIP3   OH275919   3.796   1.827  15.941  0.6815  0.0043 -0.1260
18143TIP3    H175920   3.806   1.739  15.904  0.2615 -0.0627 -0.0801
18143TIP3    H275921   3.852   1.826  16.019 -1.8927 -1.3521  1.8341
18144TIP3   OH275922   4.280   6.608   2.016  0.0771 -0.1303 -0.0888
18144TIP3    H175923   4.275   6.703   2.022 -3.0860 -0.2643  1.2425
18144TIP3    H275924   4.247   6.587   1.928  2.2311 -0.0235 -0.9870
18145TIP3   OH275925   3.587   5.516   5.030 -0.0452  0.4832 -0.1881
18145TIP3    H175926   3.523   5.513   4.960  0.3846  1.6893 -0.6595
18145TIP3    H275927   3.538   5.493   5.109 -0.6314 -0.4368 -0.8081
18146TIP3   OH275928   4.121   1.390   2.912  0.2492 -0.4272 -0.1611
18146TIP3    H175929   4.111   1.430   2.998  0.9606  1.5437 -0.9320
18146TIP3    H275930   4.215   1.396   2.893  0.2014 -1.4417 -0.8233
18147TIP3   OH275931   5.477   4.737  14.131 -0.2958 -0.0562  0.0798
18147TIP3    H175932   5.479   4.703  14.042 -1.3502  0.4010 -0.1437
18147TIP3    H275933   5.539   4.684  14.180  0.1943 -0.3958 -0.9003
18148TIP3   OH275934   3.642   2.075   4.715 -0.4866 -0.0536  0.3635
18148TIP3    H175935   3.548   2.059   4.720 -0.9936  1.7757 -1.8113
18148TIP3    H275936   3.677   2.003   4.663 -0.9180 -0.0128  0.0184
18149TIP3   OH275937   0.126   2.729   3.840 -0.2985 -0.4576  0.0075
18149TIP3    H175938   0.149   2.775   3.921 -0.8823 -1.3016  0.6797
18149TIP3    H275939   0.130   2.797   3.772  0.3843  0.2265  0.7053
18150TIP3   OH275940   0.117   5.902  15.653  0.5757 -0.7055  0.3417
18150TIP3    H175941   0.024   5.882  15.659 -0.0003  1.7920  0.5216
18150TIP3    H275942   0.152   5.885  15.740 -0.1660  0.3875  0.8610
18151TIP3   OH275943   4.563   3.839  11.338 -0.0751  0.2307 -0.4479
18151TIP3    H175944   4.539   3.930  11.355  0.2813  0.2100  0.2256
18151TIP3    H275945   4.545   3.794  11.421 -0.4162 -0.3507 -0.8246
18152TIP3   OH275946   5.854   1.029   3.809 -0.2347 -0.0469  0.4778
18152TIP3    H175947   5.807   1.084   3.872 -0.3885 -1.9383  2.1116
18152TIP3    H275948   5.917   1.088   3.768  0.1107  1.2051  2.6796
18153TIP3   OH275949   5.321   5.232   3.787  0.5448 -0.0265 -0.3477
18153TIP3    H175950   5.369   5.315   3.788  0.4646  0.0377 -1.3793
18153TIP3    H275951   5.261   5.240   3.713 -1.5368  0.1640  1.2462
18154TIP3   OH275952   2.113   2.216  11.375  0.2821  0.3694 -0.2611
18154TIP3    H175953   2.094   2.207  11.468 -1.0056  2.0699 -0.3072
18154TIP3    H275954   2.050   2.158  11.332 -0.6567  1.2631 -0.1335
18155TIP3   OH275955   4.497   4.654  13.805 -0.6651 -0.1832 -0.0820
18155TIP3    H175956   4.576   4.627  13.852 -0.3669  1.8544  0.6992
18155TIP3    H275957   4.522   4.651  13.713  1.0920  2.3387  0.2041
18156TIP3   OH275958   4.229   2.716  12.515 -0.5844  0.0264 -0.0425
18156TIP3    H175959   4.312   2.693  12.555 -0.6194 -0.2029 -0.1018
18156TIP3    H275960   4.227   2.668  12.432 -0.2964  0.8771 -0.5561
18157TIP3   OH275961   4.894   4.181  12.040 -0.5681  0.0529  0.6604
18157TIP3    H175962   4.859   4.139  11.961 -0.7766 -0.9757  1.2803
18157TIP3    H275963   4.983   4.148  12.047 -0.1341  1.0699  0.2218
18158TIP3   OH275964   4.591   5.622   4.820  0.2476  0.6033  0.1637
18158TIP3    H175965   4.683   5.631   4.795 -0.1092  1.6545 -0.8940
18158TIP3    H275966   4.589   5.643   4.913  1.3385 -1.4202  0.6995
18159TIP3   OH275967   4.362   2.265   4.024  0.2845 -0.2486  0.1844
18159TIP3    H175968   4.310   2.317   3.963 -0.4035 -1.3543 -0.2019
18159TIP3    H275969   4.358   2.314   4.107  1.2684  1.2899 -0.6371
18160TIP3   OH275970   5.985   6.014   0.590 -0.1410  0.3101 -0.1491
18160TIP3    H175971   6.032   5.977   0.666 -0.8736 -0.3199  0.0054
18160TIP3    H275972   5.899   6.037   0.624 -0.0896  1.1031 -0.5303
18161TIP3   OH275973   5.633   3.889   4.526  0.3908  0.4031 -0.6025
18161TIP3    H175974   5.595   3.974   4.549 -0.1790  0.3450 -1.3263
18161TIP3    H275975   5.606   3.874   4.436  0.1774 -0.7301 -0.3537
18162TIP3   OH275976   0.940   0.249   5.937 -0.1070 -0.3145 -0.1563
18162TIP3    H175977   0.973   0.287   5.856  0.8532 -0.6674  0.0533
18162TIP3    H275978   0.890   0.320   5.977 -0.2931 -0.0253 -0.8850
18163TIP3   OH275979   0.563   4.956  12.483 -0.2140  0.3656  0.2704
18163TIP3    H175980   0.576   4.998  12.568 -1.1072  0.2619  0.4715
18163TIP3    H275981   0.607   5.014  12.420 -0.0384  0.7435  0.7356
18164TIP3   OH275982   6.028   1.021   2.397  0.6304 -0.5811  0.0007
18164TIP3    H175983   5.967   1.039   2.326  1.3539  0.8358 -0.2845
18164TIP3    H275984   6.022   1.097   2.454  2.4944 -0.1684 -0.3023
18165TIP3   OH275985   2.520   1.443   3.987 -0.2306  0.3965  0.1720
18165TIP3    H175986   2.578   1.431   4.061 -2.3664  0.5812  1.9859
18165TIP3    H275987   2.438   1.473   4.025 -1.7769 -0.5431 -2.1650
18166TIP3   OH275988   0.214   5.364  16.107 -0.3215  0.2721 -0.2267
18166TIP3    H175989   0.289   5.305  16.096 -0.4001  0.5302 -2.9164
18166TIP3    H275990   0.250   5.442  16.149  0.3434 -0.6117  0.8876
18167TIP3   OH275991   0.918   0.627  15.455 -0.5672  0.1039  0.4861
18167TIP3    H175992   1.004   0.643  15.491 -0.0908 -0.0048 -0.5605
18167TIP3    H275993   0.877   0.566  15.516 -0.2344  0.7984  1.4322
18168TIP3   OH275994   0.891   4.638   4.084 -0.0521 -0.1170 -0.1887
18168TIP3    H175995   0.958   4.578   4.051  0.5364  0.2350  0.3361
18168TIP3    H275996   0.929   4.673   4.165 -0.8606  0.1114  0.1003
18169TIP3   OH275997   1.065   6.315   3.977 -0.2156  0.4360  0.1511
18169TIP3    H175998   1.151   6.327   4.018  0.1210 -1.0789 -0.0529
18169TIP3    H275999   1.040   6.402   3.946 -0.4942  1.6995  3.5433
18170TIP3   OH276000   2.086   5.940   3.344  0.3921 -0.1978 -0.6946
18170TIP3    H176001   2.158   5.961   3.285  0.3075  1.0287 -0.3847
18170TIP3    H276002   2.092   6.006   3.413 -1.1428  0.0426 -0.7626
18171TIP3   OH276003   4.606   3.339  16.214 -0.2182 -0.4337 -0.6089
18171TIP3    H176004   4.541   3.304  16.274  0.5529 -0.7800  0.0489
18171TIP3    H276005   4.586   3.432  16.207 -0.7018 -0.5147 -0.3152
18172TIP3   OH276006   3.851   1.060  10.558  0.3483  0.2630 -0.1580
18172TIP3    H176007   3.794   1.045  10.483 -0.3238  1.3518  0.1217
18172TIP3    H276008   3.793   1.086  10.629  1.2275  2.2084 -0.0840
18173TIP3   OH276009   1.052   0.267   1.419 -0.0496  0.0008 -0.2475
18173TIP3    H176010   1.117   0.197   1.412  0.7267  0.6953 -0.1059
18173TIP3    H276011   1.021   0.262   1.510 -0.6697 -0.7258 -0.4832
18174TIP3   OH276012   1.317   2.465  14.948 -0.1042 -0.4133 -0.4735
18174TIP3    H176013   1.358   2.495  14.867 -1.1963  1.7278 -0.3039
18174TIP3    H276014   1.304   2.544  14.999 -0.5384 -1.5716  1.3127
18175TIP3   OH276015   4.196   0.945  14.116 -0.7811  0.1076  0.1295
18175TIP3    H176016   4.163   0.964  14.028 -0.2463  1.0376  0.1198
18175TIP3    H276017   4.118   0.952  14.172 -1.2478 -1.0839 -0.3226
18176TIP3   OH276018   2.507   5.554  15.410  0.0327 -0.0369  0.0882
18176TIP3    H176019   2.436   5.491  15.425 -0.8701  0.1562 -2.8701
18176TIP3    H276020   2.473   5.637  15.445 -0.3616 -0.3516  0.4741
18177TIP3   OH276021   1.044   2.875  10.991 -0.0099  0.4196  0.3352
18177TIP3    H176022   1.003   2.953  11.028 -1.4155 -0.5249  0.8540
18177TIP3    H276023   0.999   2.862  10.907 -0.0584 -0.0422  0.4290
18178TIP3   OH276024   6.477   6.449  15.062 -0.3655 -0.2787  0.1824
18178TIP3    H176025   6.551   6.390  15.052  1.7734  2.3772 -0.9533
18178TIP3    H276026   6.492   6.491  15.147  0.2373  1.1488 -0.5774
18179TIP3   OH276027   4.967   3.676   3.619  0.1562 -0.3206 -0.5362
18179TIP3    H176028   4.874   3.654   3.631  0.1889 -0.3745 -0.3852
18179TIP3    H276029   5.013   3.595   3.639  0.3891  0.2561  1.5413
18180TIP3   OH276030   6.410   2.162  12.456 -0.3014  0.2266  0.1759
18180TIP3    H176031   6.490   2.208  12.427 -0.1107  0.3304  0.8311
18180TIP3    H276032   6.431   2.132  12.545 -1.5682  1.7252  1.0354
18181TIP3   OH276033   3.287   5.878  15.105  0.7494  0.4133 -0.1119
18181TIP3    H176034   3.298   5.852  15.014  1.1538  0.5590 -0.1075
18181TIP3    H276035   3.196   5.910  15.110  0.1260 -1.2833 -0.0279
18182TIP3   OH276036   4.036   4.000  13.242  0.3587  0.1672 -0.4505
18182TIP3    H176037   3.988   4.049  13.175  1.5900 -1.0975 -2.3783
18182TIP3    H276038   3.969   3.950  13.288 -0.5519  1.2594 -0.5632
18183TIP3   OH276039   2.819   4.047   3.041  0.3180  0.2075  0.1957
18183TIP3    H176040   2.810   4.140   3.021  2.5122  0.1337 -1.6271
18183TIP3    H276041   2.854   4.044   3.130  1.7682  1.2592 -0.2978
18184TIP3   OH276042   1.719   0.449  11.191  0.5809  0.1813  0.0654
18184TIP3    H176043   1.743   0.423  11.102  1.3612 -0.2130  0.3803
18184TIP3    H276044   1.735   0.371  11.244  0.2360  0.4493  0.5798
18185TIP3   OH276045   0.704   1.843   5.012  0.2424  0.6030 -0.2458
18185TIP3    H176046   0.691   1.906   4.941  1.3064  0.4640 -0.5757
18185TIP3    H276047   0.714   1.896   5.091  2.3644  0.9608 -0.6927
18186TIP3   OH276048   6.204   6.119  13.586 -0.5123  0.2771 -0.6200
18186TIP3    H176049   6.258   6.186  13.544  1.0613  0.2917  1.3132
18186TIP3    H276050   6.216   6.041  13.531  0.3449  0.6718 -1.0129
18187TIP3   OH276051   1.176   5.299  16.199  0.0834 -0.0295  0.3120
18187TIP3    H176052   1.096   5.295  16.252 -0.1996 -1.1531 -0.1765
18187TIP3    H276053   1.247   5.284  16.261 -0.2068 -0.7640  0.4717
18188TIP3   OH276054   3.985   1.470  14.214 -0.3875  0.0814  0.3273
18188TIP3    H176055   4.013   1.548  14.262 -0.2815  0.1180  0.2050
18188TIP3    H276056   4.063   1.442  14.166 -0.6912  0.4631 -0.3975
18189TIP3   OH276057   0.937   1.234  15.454 -0.0445  0.1579 -0.0722
18189TIP3    H176058   0.977   1.148  15.468  1.3176  0.8332  0.3601
18189TIP3    H276059   0.967   1.260  15.368  0.1810  0.5304  0.1181
18190TIP3   OH276060   6.341   5.049   2.887  0.0998 -0.3019 -0.1159
18190TIP3    H176061   6.337   5.025   2.794  1.7891 -1.0450 -0.0281
18190TIP3    H276062   6.330   4.966   2.933 -2.4110  0.2600  0.4436
18191TIP3   OH276063   3.632   4.858  10.698 -0.1677  0.3218 -1.3122
18191TIP3    H176064   3.713   4.808  10.709  0.4412  1.2448 -1.4907
18191TIP3    H276065   3.572   4.798  10.655 -0.0159 -0.8140 -0.0097
18192TIP3   OH276066   6.033   6.198   5.899 -0.2555  0.8958  0.2796
18192TIP3    H176067   5.979   6.206   5.978 -0.3496  0.4453  0.2657
18192TIP3    H276068   6.115   6.159   5.929 -1.1235 -1.4502 -0.1509
18193TIP3   OH276069   0.323   5.809   5.581 -0.2524  0.4388 -0.3054
18193TIP3    H176070   0.245   5.860   5.604 -1.6667 -1.3053 -0.9923
18193TIP3    H276071   0.306   5.778   5.493  0.7638 -0.8314 -0.0777
18194TIP3   OH276072   4.958   6.402   2.976 -0.8525 -0.4138  0.2394
18194TIP3    H176073   5.029   6.339   2.963 -0.9576 -0.5937  0.5414
18194TIP3    H276074   4.950   6.411   3.071  0.9724  2.1049  0.2649
18195TIP3   OH276075   0.622   5.584   0.685  0.1376  0.0930 -0.0720
18195TIP3    H176076   0.584   5.605   0.771  0.7181 -0.3927  0.3126
18195TIP3    H276077   0.555   5.531   0.641  0.0080 -0.0085  0.2443
18196TIP3   OH276078   0.710   5.357  12.012 -0.3776 -0.6215 -0.6583
18196TIP3    H176079   0.786   5.309  11.980 -0.7999 -0.8194 -1.4048
18196TIP3    H276080   0.667   5.390  11.932 -0.1329  0.9607 -0.1787
18197TIP3   OH276081   2.880   4.590   4.968 -0.3320 -0.2612  0.1724
18197TIP3    H176082   2.866   4.506   5.010 -1.1964 -1.0409 -1.5700
18197TIP3    H276083   2.972   4.590   4.943  0.2252  0.2777  2.1305
18198TIP3   OH276084   1.651   3.329   5.283 -0.2868 -0.1253 -0.0393
18198TIP3    H176085   1.608   3.247   5.258 -0.9895 -0.2884  1.5785
18198TIP3    H276086   1.684   3.313   5.371  0.5973  0.9568 -0.1513
18199TIP3   OH276087   1.480   3.239  16.704  0.3213 -0.2292  0.0269
18199TIP3    H176088   1.386   3.219  16.697  0.5486 -0.8168 -1.9274
18199TIP3    H276089   1.484   3.319  16.757 -1.1636 -1.0245  1.4256
18200TIP3   OH276090   5.267   2.812  15.463  0.2897  0.8410  0.3171
18200TIP3    H176091   5.332   2.793  15.396 -3.2416 -1.1701 -2.8999
18200TIP3    H276092   5.240   2.902  15.444 -0.8485  0.2088 -1.2142
18201TIP3   OH276093   0.266   5.524  10.396  0.7710  0.1792  0.5094
18201TIP3    H176094   0.256   5.488  10.307 -0.5527  1.0467  0.2821
18201TIP3    H276095   0.320   5.602  10.384  1.3991 -0.2301  0.6197
18202TIP3   OH276096   1.008   4.963  11.517 -0.0596 -0.0838  0.1965
18202TIP3    H176097   1.005   4.935  11.609 -0.5818  0.9545  0.5084
18202TIP3    H276098   1.024   4.882  11.468 -0.3409 -0.7407  1.1537
18203TIP3   OH276099   5.222   0.965   5.081  0.4773  0.8469 -0.8182
18203TIP3    H176100   5.273   1.040   5.109 -0.4563  0.7681  1.2513
18203TIP3    H276101   5.255   0.892   5.133  0.9263 -0.0881 -2.3253
18204TIP3   OH276102   6.703   2.731  12.455  0.8812 -0.3809  0.2653
18204TIP3    H176103   6.651   2.724  12.376 -3.3880  3.8588  2.2284
18204TIP3    H276104   6.779   2.783  12.429 -0.3984  0.8871 -1.1280
18205TIP3   OH276105   2.142   5.321   1.047  0.6218 -0.4088  0.5555
18205TIP3    H176106   2.125   5.304   1.140  2.3285 -1.0475  0.7808
18205TIP3    H276107   2.118   5.239   1.004 -2.3327  0.5901  0.0644
18206TIP3   OH276108   3.729   0.530  12.467  0.1319 -0.0029 -0.1040
18206TIP3    H176109   3.793   0.567  12.529  0.3574 -0.3718 -0.1124
18206TIP3    H276110   3.711   0.443  12.500 -0.4223  0.1192 -0.0706
18207TIP3   OH276111   4.090   2.937  15.249  0.5698 -0.4511  0.3539
18207TIP3    H176112   4.035   3.006  15.212  1.2212 -0.8765 -1.4841
18207TIP3    H276113   4.037   2.901  15.320 -0.8980  0.1647 -0.3740
18208TIP3   OH276114   4.177   2.156  10.679  0.3867 -0.1391  0.4830
18208TIP3    H176115   4.204   2.228  10.736 -0.0457  0.2759  0.1715
18208TIP3    H276116   4.118   2.103  10.733  0.7663 -0.3078  0.7377
18209TIP3   OH276117   4.991   4.567  12.581 -0.3634 -0.1267 -0.6390
18209TIP3    H176118   4.959   4.526  12.500  1.0530 -0.5294 -1.0236
18209TIP3    H276119   4.979   4.500  12.648 -3.0403  0.7508 -0.1106
18210TIP3   OH276120   3.249   0.263   1.017  0.4536  0.2371  0.3572
18210TIP3    H176121   3.287   0.298   1.098 -0.9353 -1.5038  1.8578
18210TIP3    H276122   3.172   0.318   1.002  0.2982  0.1094  0.6649
18211TIP3   OH276123   5.701   2.526   5.014  0.0435  0.6917  0.7538
18211TIP3    H176124   5.715   2.620   5.016  1.6270  0.4781  0.6645
18211TIP3    H276125   5.621   2.513   5.066  0.0868  2.0260  1.1962
18212TIP3   OH276126   3.552   0.143   0.758 -0.2337 -0.1591 -0.0073
18212TIP3    H176127   3.547   0.096   0.841 -0.9932 -2.9664 -1.5024
18212TIP3    H276128   3.475   0.113   0.709  0.4823  0.9819 -1.9535
18213TIP3   OH276129   3.841   1.769  13.986  0.3131  0.0296  0.0981
18213TIP3    H176130   3.779   1.700  13.965  0.3948 -0.0578  0.1439
18213TIP3    H276131   3.841   1.825  13.909 -1.1407  1.0142  0.7526
18214TIP3   OH276132   5.275   4.136  11.291 -0.1833  0.3133  0.7896
18214TIP3    H176133   5.317   4.220  11.310  0.9795 -0.5637  2.3562
18214TIP3    H276134   5.251   4.102  11.377 -3.0231  0.1802  0.0354
18215TIP3   OH276135   0.889   0.243   0.487  0.4052 -0.3344  0.1593
18215TIP3    H176136   0.891   0.151   0.458 -0.8905 -0.8752  1.6717
18215TIP3    H276137   0.927   0.240   0.575 -1.0225  0.3295  0.8139
18216TIP3   OH276138   1.737   6.636  14.993 -0.2489  0.4167 -0.1064
18216TIP3    H176139   1.823   6.649  14.953 -1.2513  1.7202 -1.9717
18216TIP3    H276140   1.675   6.679  14.933 -2.3824 -1.7168  0.4101
18217TIP3   OH276141   0.573   6.546   3.339  0.1111  0.4966 -0.2199
18217TIP3    H176142   0.526   6.563   3.421  0.7997 -0.2314  0.3436
18217TIP3    H276143   0.655   6.594   3.348  0.3642  0.0867 -0.2952
18218TIP3   OH276144   6.532   1.243   1.981  0.2159 -0.5153  0.2756
18218TIP3    H176145   6.471   1.170   1.986 -0.5009  0.1419  2.4239
18218TIP3    H276146   6.612   1.206   1.944 -0.8929 -1.8006 -0.9405
18219TIP3   OH276147   6.700   6.028   0.786 -0.1943  0.8117 -0.4107
18219TIP3    H176148   6.775   6.063   0.739  0.3489  0.3885  0.1206
18219TIP3    H276149   6.671   6.100   0.843 -0.3984  1.0799 -0.8472
18220TIP3   OH276150   0.277   2.418   2.355  0.2263  0.4420  0.1057
18220TIP3    H176151   0.323   2.339   2.327  0.7776  1.0675 -0.8190
18220TIP3    H276152   0.268   2.470   2.275 -0.2994  1.2356  0.6621
18221TIP3   OH276153   0.674   0.877  15.173 -0.7577 -0.4619 -0.2825
18221TIP3    H176154   0.580   0.895  15.168 -0.6427  0.7798  1.1909
18221TIP3    H276155   0.690   0.811  15.105 -2.3219  0.7671 -1.9559
18222TIP3   OH276156   3.543   6.586  14.252  0.3660 -0.4609  0.0243
18222TIP3    H176157   3.463   6.632  14.225  0.2637 -0.9008 -0.4269
18222TIP3    H276158   3.610   6.655  14.257  0.0625 -0.1603 -0.0188
18223TIP3   OH276159   6.272   5.052  14.970  0.1026  0.2927  1.0368
18223TIP3    H176160   6.286   5.081  14.880 -1.4873 -0.6553  0.4402
18223TIP3    H276161   6.353   5.006  14.992  0.9086  1.3910  0.4714
18224TIP3   OH276162   3.516   1.632  12.335  0.0709  0.4376  0.1931
18224TIP3    H176163   3.504   1.555  12.391 -0.9149  0.2665 -0.2382
18224TIP3    H276164   3.581   1.605  12.271 -0.1242  0.0223  0.1673
18225TIP3   OH276165   5.061   2.929   0.312 -0.0954  0.0646  0.2345
18225TIP3    H176166   5.128   2.894   0.253  0.1854 -1.2064  1.2455
18225TIP3    H276167   5.107   2.995   0.363  0.2145 -0.3068  0.4434
18226TIP3   OH276168   3.697   0.549  12.195  0.1156  0.1617  0.1415
18226TIP3    H176169   3.765   0.482  12.189 -2.0517 -2.3823  1.6707
18226TIP3    H276170   3.687   0.563  12.289 -0.5748  1.4885 -0.1199
18227TIP3   OH276171   3.073   5.189  11.385 -0.3440 -0.0942  0.2171
18227TIP3    H176172   3.070   5.103  11.342 -2.2855  0.4562 -0.8685
18227TIP3    H276173   3.104   5.249  11.318 -0.8279  0.3636  0.4010
18228TIP3   OH276174   5.958   5.481  12.404 -0.5128  0.3796  0.4269
18228TIP3    H176175   5.911   5.404  12.437 -0.2455  0.3302  0.7049
18228TIP3    H276176   5.893   5.551  12.405 -1.2622 -0.2287 -1.5235
18229TIP3   OH276177   5.882   1.759   1.464 -0.2884 -0.4545  0.1739
18229TIP3    H176178   5.959   1.760   1.407 -1.1708 -0.5054 -1.0590
18229TIP3    H276179   5.811   1.791   1.409 -1.0361  0.2307  1.4896
18230TIP3   OH276180   2.098   6.417  15.779  0.0218 -0.6350  0.2383
18230TIP3    H176181   2.161   6.346  15.782 -1.1086 -1.7161 -0.4706
18230TIP3    H276182   2.081   6.430  15.685  1.6062  1.8950  0.1913
18231TIP3   OH276183   4.402   2.189   1.522 -0.1549  0.3472 -0.2786
18231TIP3    H176184   4.461   2.200   1.596  0.0561 -1.2098 -0.1816
18231TIP3    H276185   4.346   2.116   1.546 -0.8509  0.5611 -1.1836
18232TIP3   OH276186   1.267   0.127  15.625  0.1381 -0.2789 -0.5196
18232TIP3    H176187   1.284   0.034  15.608 -0.5729 -0.9763  2.0459
18232TIP3    H276188   1.177   0.141  15.595  0.0857 -0.5605 -0.5003
18233TIP3   OH276189   0.545   1.928  15.418  0.3239 -0.3662 -0.1098
18233TIP3    H176190   0.630   1.925  15.374 -0.3471 -0.4924 -1.4551
18233TIP3    H276191   0.510   1.839  15.409  0.6109 -0.6961  1.6554
18234TIP3   OH276192   3.612   2.410   6.297 -0.8185  0.1588 -0.2267
18234TIP3    H176193   3.530   2.366   6.321 -1.1716  0.3595 -1.0383
18234TIP3    H276194   3.616   2.486   6.354 -0.6615 -0.4180  0.5521
18235TIP3   OH276195   5.010   5.898   5.362 -0.0945 -0.0173  0.0504
18235TIP3    H176196   5.093   5.849   5.354  0.4429  0.2887  2.7552
18235TIP3    H276197   4.946   5.832   5.390  0.1598  0.3946  1.6907
18236TIP3   OH276198   1.669   3.985   0.750 -0.3657  0.0412 -0.0711
18236TIP3    H176199   1.612   3.910   0.767  0.0174 -0.4159 -0.7747
18236TIP3    H276200   1.625   4.058   0.793 -1.4898 -0.3001 -0.5897
18237TIP3   OH276201   4.253   3.713   3.509  0.6596 -0.3055 -0.0387
18237TIP3    H176202   4.248   3.723   3.604 -0.0391  1.2409 -0.2075
18237TIP3    H276203   4.331   3.762   3.484  1.2472 -1.2980 -0.2178
18238TIP3   OH276204   0.697   5.823   2.533  0.1160  0.5355 -0.2143
18238TIP3    H176205   0.605   5.809   2.554 -0.2463 -0.8431 -2.4075
18238TIP3    H276206   0.736   5.736   2.535  0.9271  0.8559 -1.1336
18239TIP3   OH276207   4.046   6.198   5.924  0.2709  0.6398 -0.1220
18239TIP3    H176208   4.069   6.113   5.963  1.5013  1.4289  0.9384
18239TIP3    H276209   3.976   6.231   5.980 -0.0650  0.4290 -0.4120
18240TIP3   OH276210   5.791   0.778  12.012  0.8033 -0.5862 -0.1117
18240TIP3    H176211   5.838   0.732  11.943  0.0553 -0.3928 -0.7731
18240TIP3    H276212   5.770   0.863  11.974 -1.3549 -1.1895 -0.4174
18241TIP3   OH276213   0.040   5.021  13.305 -0.1815  0.5738  0.1528
18241TIP3    H176214   0.080   4.936  13.287 -0.3652  0.5895 -0.3427
18241TIP3    H276215   0.082   5.050  13.385  1.8704  1.2271 -1.0794
18242TIP3   OH276216   1.554   3.950   5.674 -0.0165  0.3986 -0.2848
18242TIP3    H176217   1.467   3.972   5.705 -0.2115 -0.4974 -0.1831
18242TIP3    H276218   1.568   3.860   5.701  0.1270 -0.1619 -2.0623
18243TIP3   OH276219   2.576   5.762  16.916  0.4599  0.2617 -0.4138
18243TIP3    H176220   2.670   5.746  16.923  0.1083 -1.9602 -0.0854
18243TIP3    H276221   2.536   5.677  16.933 -1.6291  1.1963 -0.3751
18244TIP3   OH276222   0.965   1.779  14.228 -0.3424 -0.1226 -0.4498
18244TIP3    H176223   1.036   1.719  14.204  0.3337  0.4495  0.1016
18244TIP3    H276224   0.885   1.728  14.212  0.0502 -0.0118 -3.3384
18245TIP3   OH276225   2.357   6.742  16.450 -0.8246  0.3633  0.0770
18245TIP3    H176226   2.399   6.658  16.470 -2.2062 -0.1820  0.7856
18245TIP3    H276227   2.340   6.738  16.356  1.2128  0.8583 -0.3633
18246TIP3   OH276228   6.466   0.476  15.856  0.2482  0.1663 -0.3274
18246TIP3    H176229   6.437   0.454  15.945 -0.2748  2.3096  0.0920
18246TIP3    H276230   6.384   0.494  15.809  0.6385  2.5271 -0.2059
18247TIP3   OH276231   2.014   6.577   4.450  0.2528  0.3560  0.4635
18247TIP3    H176232   1.974   6.493   4.473  0.4890 -0.0586 -0.5823
18247TIP3    H276233   1.956   6.642   4.489 -3.1529 -0.0951 -3.2666
18248TIP3   OH276234   5.819   3.276   4.986 -0.2269  0.2325  0.1246
18248TIP3    H176235   5.887   3.339   4.962 -0.6555  0.8595  0.5325
18248TIP3    H276236   5.737   3.318   4.960 -0.4067 -1.0193 -1.4543
18249TIP3   OH276237   5.543   5.131   3.229 -0.4400  0.2763  0.5068
18249TIP3    H176238   5.637   5.113   3.237 -0.3148  1.6550  3.3232
18249TIP3    H276239   5.502   5.045   3.232  0.6893 -0.3664 -0.9847
18250TIP3   OH276240   4.057   3.716  10.616 -0.7030  0.3488 -0.3377
18250TIP3    H176241   4.008   3.635  10.629  1.0557 -0.6050  0.8208
18250TIP3    H276242   4.148   3.687  10.602 -0.5018  1.9714 -3.1684
18251TIP3   OH276243   5.451   5.408  14.186  0.1260 -0.2781  0.1440
18251TIP3    H176244   5.440   5.484  14.128  3.0281  0.3867  0.2928
18251TIP3    H276245   5.449   5.444  14.274  0.4142 -0.5326  0.2587
18252TIP3   OH276246   3.788   0.147   6.041  0.0290 -0.4205  0.7252
18252TIP3    H176247   3.806   0.180   6.129  0.1219 -0.6931  0.8096
18252TIP3    H276248   3.694   0.159   6.030  0.3297  1.7051 -0.0005
18253TIP3   OH276249   5.175   1.684  15.702  0.2144  0.3979 -0.1755
18253TIP3    H176250   5.207   1.661  15.615  0.9536  2.6880 -0.5794
18253TIP3    H276251   5.099   1.740  15.685 -0.1757  0.1416  0.6857
18254TIP3   OH276252   6.122   4.447  10.991 -0.3974 -0.1048  0.1879
18254TIP3    H176253   6.175   4.408  10.921  0.1916  1.0474 -0.0449
18254TIP3    H276254   6.136   4.390  11.066 -1.0642 -1.3815 -0.6314
18255TIP3   OH276255   5.542   5.789   2.808 -0.4765  0.0348  0.4881
18255TIP3    H176256   5.586   5.811   2.891  1.5420 -1.7533 -0.0211
18255TIP3    H276257   5.503   5.871   2.780 -0.1071  1.0052  2.5639
18256TIP3   OH276258   3.451   4.618   0.982  0.4833 -0.4845 -0.3764
18256TIP3    H176259   3.444   4.714   0.979  0.4599 -0.3652  1.8904
18256TIP3    H276260   3.541   4.602   1.012  0.3006 -1.1644 -0.1800
18257TIP3   OH276261   2.886   6.836   2.320  0.2439  1.1026  0.2295
18257TIP3    H176262   2.949   6.900   2.287  1.2953  0.7837  1.5693
18257TIP3    H276263   2.804   6.884   2.326  0.2730  1.4939 -1.6543
18258TIP3   OH276264   6.597   1.692   6.306  0.2411  0.6448  0.6590
18258TIP3    H176265   6.568   1.783   6.306 -0.6676  0.4261 -1.9319
18258TIP3    H276266   6.688   1.696   6.336 -0.5852  2.0062  3.3050
18259TIP3   OH276267   1.834   6.630   3.590 -0.3150 -0.2481  0.4956
18259TIP3    H176268   1.905   6.673   3.639  0.7255  1.3864 -2.1946
18259TIP3    H276269   1.764   6.619   3.654  1.2207  0.9758  2.5316
18260TIP3   OH276270   6.275   5.991   4.450  0.2216 -0.5827 -0.3908
18260TIP3    H176271   6.246   5.944   4.528 -1.3483  0.8401 -0.0694
18260TIP3    H276272   6.369   5.976   4.447  0.3308 -0.6483  1.7892
18261TIP3   OH276273   5.688   2.054   5.631 -0.2860 -0.6850  0.0586
18261TIP3    H176274   5.625   2.110   5.587 -1.4383 -1.4048  0.7346
18261TIP3    H276275   5.692   1.975   5.578  2.2986  0.4285 -1.6108
18262TIP3   OH276276   2.552   3.202  16.063 -0.2989  0.1625  0.2253
18262TIP3    H176277   2.617   3.234  16.126  0.1238 -1.5344  0.7144
18262TIP3    H276278   2.603   3.181  15.984  0.1714 -2.7761  1.1598
18263TIP3   OH276279   0.173   4.883  13.901 -0.2731 -0.2072  0.2194
18263TIP3    H176280   0.194   4.975  13.890 -2.6886  0.1291 -3.0816
18263TIP3    H276281   0.240   4.836  13.852 -1.1968  0.1347 -1.4318
18264TIP3   OH276282   4.192   3.612  16.343 -0.8252 -0.1725 -0.6322
18264TIP3    H176283   4.250   3.545  16.379  2.6720  2.1033 -1.4695
18264TIP3    H276284   4.191   3.594  16.249 -3.1867 -1.2964 -0.4457
18265TIP3   OH276285   3.843   3.405  12.208 -0.4264 -0.3540 -0.4976
18265TIP3    H176286   3.907   3.373  12.144  0.4781 -0.0016  0.1989
18265TIP3    H276287   3.786   3.331  12.225  1.5828 -1.6542  1.0513
18266TIP3   OH276288   1.627   1.963   0.517 -0.3005 -0.4525 -0.3081
18266TIP3    H176289   1.655   2.006   0.598 -0.1665 -0.0937 -0.5424
18266TIP3    H276290   1.571   1.891   0.546 -2.0102  0.9637  0.0300
18267TIP3   OH276291   5.916   4.448  14.270  0.7059 -0.2170  0.2000
18267TIP3    H176292   6.009   4.469  14.281  0.5449 -0.1319  1.5170
18267TIP3    H276293   5.870   4.523  14.305  0.1348 -0.5618  0.1938
18268TIP3   OH276294   6.695   2.468   2.093  0.5849  0.6878 -0.1560
18268TIP3    H176295   6.637   2.536   2.056  0.7193  0.9792  0.1590
18268TIP3    H276296   6.701   2.491   2.186  2.2263  1.4149 -0.4105
18269TIP3   OH276297   5.509   3.087   4.679  0.1168  0.0387  0.4139
18269TIP3    H176298   5.501   3.152   4.748 -1.5638  0.0751  0.2133
18269TIP3    H276299   5.472   3.130   4.602  0.9703 -0.4006 -0.2614
18270TIP3   OH276300   3.139   2.820  15.139 -0.2743  0.9973 -0.2012
18270TIP3    H176301   3.078   2.747  15.129  1.1164 -0.2101 -0.1846
18270TIP3    H276302   3.097   2.879  15.201 -1.1697 -0.0875  0.2509
18271TIP3   OH276303   6.871   0.500   0.307  0.3114  0.5725 -0.1773
18271TIP3    H176304   6.811   0.432   0.336  1.1277  0.2572  0.8394
18271TIP3    H276305   6.822   0.582   0.316  0.4945  0.5007  2.1519
18272TIP3   OH276306   5.091   6.503  12.204  0.6709 -0.0508  0.2334
18272TIP3    H176307   5.182   6.530  12.209  0.4804  0.4889  0.9727
18272TIP3    H276308   5.060   6.538  12.121  0.2570  2.6801  1.4348
18273TIP3   OH276309   1.360   4.562  14.730 -0.3443  0.1175  0.2642
18273TIP3    H176310   1.384   4.577  14.822 -1.4534 -0.1579  0.6104
18273TIP3    H276311   1.311   4.641  14.706  1.4395  1.0172 -0.6660
18274TIP3   OH276312   3.729   3.396  15.009 -0.5251 -0.1964 -0.2760
18274TIP3    H176313   3.751   3.303  15.010  1.3047  0.1769 -0.8367
18274TIP3    H276314   3.722   3.418  14.916 -3.3552 -0.2282 -0.1520
18275TIP3   OH276315   6.446   2.684   0.423  0.3342 -0.3184  0.2007
18275TIP3    H176316   6.370   2.659   0.371  1.5496  0.3655 -2.0700
18275TIP3    H276317   6.415   2.755   0.479 -0.1481  2.2371 -2.9602
18276TIP3   OH276318   1.097   3.203  12.245 -0.1595 -0.3335 -0.2530
18276TIP3    H176319   1.062   3.127  12.291 -0.8414  0.6774  0.9417
18276TIP3    H276320   1.171   3.232  12.298 -1.4554  1.3381  0.7141
18277TIP3   OH276321   3.736   1.019   1.311  0.2314 -0.2292  0.5446
18277TIP3    H176322   3.643   1.024   1.334 -0.1174 -0.5871 -0.7228
18277TIP3    H276323   3.772   0.951   1.368 -0.4739 -0.6668  0.4762
18278TIP3   OH276324   3.882   4.387   4.424 -0.4737  0.2227  0.2931
18278TIP3    H176325   3.846   4.359   4.508 -0.0031 -2.0874 -0.2317
18278TIP3    H276326   3.806   4.421   4.376 -1.2688 -1.0503  0.6154
18279TIP3   OH276327   1.898   4.079   1.231 -0.6345  0.1959 -0.2099
18279TIP3    H176328   1.872   4.085   1.139  0.7433  1.4917 -0.5526
18279TIP3    H276329   1.913   4.170   1.258 -0.3797 -0.2123  1.0981
18280TIP3   OH276330   1.453   0.011  16.563  0.4598  0.6604 -0.0338
18280TIP3    H176331   1.367  -0.024  16.537  0.2089  0.0168  1.5639
18280TIP3    H276332   1.516  -0.046  16.519  0.0867  0.9574 -0.9833
18281TIP3   OH276333   6.223   5.042   5.333 -0.2155  0.2065 -0.0205
18281TIP3    H176334   6.134   5.062   5.362 -0.6524 -0.7446 -0.6736
18281TIP3    H276335   6.227   4.947   5.334  0.8877  0.2491  0.2480
18282TIP3   OH276336   3.029   2.781  15.752 -0.0381 -0.0440  0.5361
18282TIP3    H176337   3.073   2.796  15.668  0.2265  0.0913  0.6969
18282TIP3    H276338   3.071   2.842  15.813 -1.7758  1.4714  0.2713
18283TIP3   OH276339   3.303   1.761   5.689  0.1440  0.1491 -0.1828
18283TIP3    H176340   3.229   1.820   5.705  1.3332  1.6830 -0.1171
18283TIP3    H276341   3.366   1.782   5.758  1.5340  0.4224 -1.4887
18284TIP3   OH276342   5.300   2.328   2.399  0.3924 -0.2166  0.0753
18284TIP3    H176343   5.258   2.304   2.317 -1.2369  0.1027  0.7740
18284TIP3    H276344   5.392   2.341   2.376 -0.0695  0.1204 -1.7349
18285TIP3   OH276345   2.013   3.198  15.649  0.3985 -1.2390  0.6189
18285TIP3    H176346   1.947   3.218  15.583  0.7292 -2.6437 -0.1668
18285TIP3    H276347   2.008   3.103  15.660  1.2349 -1.1767  1.6868
18286TIP3   OH276348   3.156   4.052   1.430 -0.6107  0.1642  0.5311
18286TIP3    H176349   3.219   4.018   1.494  3.0660  1.7406 -1.8883
18286TIP3    H276350   3.125   3.975   1.383  1.3732 -0.5575  0.3034
18287TIP3   OH276351   6.100   5.288   0.848 -0.3606  0.3828 -0.2830
18287TIP3    H176352   6.096   5.205   0.894  0.2524 -0.7005 -2.0703
18287TIP3    H276353   6.172   5.278   0.785  0.0431  2.4401 -0.2392
18288TIP3   OH276354   5.268   6.126   0.836 -0.2077  0.1317  0.0353
18288TIP3    H176355   5.303   6.174   0.911  0.5511  0.6378 -0.6178
18288TIP3    H276356   5.174   6.122   0.852 -0.1407  0.8063  0.6922
18289TIP3   OH276357   4.626   2.152  11.965  0.5657 -0.1534 -0.6527
18289TIP3    H176358   4.616   2.181  12.056 -0.2499 -2.2216 -0.0262
18289TIP3    H276359   4.715   2.118  11.961  0.7254  0.2690 -0.7371
18290TIP3   OH276360   3.106   6.695   4.932  0.2907 -0.2481  0.0641
18290TIP3    H176361   3.015   6.687   4.904  0.5508 -0.8980 -0.6296
18290TIP3    H276362   3.152   6.625   4.885  1.5353  1.3851 -1.2902
18291TIP3   OH276363   5.446   6.319   0.991  1.0054 -0.2533 -0.2544
18291TIP3    H176364   5.520   6.313   1.051  2.2411 -0.5369 -1.7614
18291TIP3    H276365   5.473   6.384   0.927 -0.3023  0.0579 -0.5094
18292TIP3   OH276366   6.602   2.983   2.651  0.0311  0.1674  0.3416
18292TIP3    H176367   6.681   2.930   2.640 -1.4566 -2.1259  0.0920
18292TIP3    H276368   6.623   3.066   2.607  1.7727 -0.9165 -1.0257
18293TIP3   OH276369   5.300   2.556   4.553  0.4676  0.1429  0.6999
18293TIP3    H176370   5.221   2.508   4.529  1.3852 -1.3568  0.5423
18293TIP3    H276371   5.290   2.575   4.647  0.2443 -0.6875  0.8471
18294TIP3   OH276372   2.424   2.422   1.630 -0.3046  0.0897 -0.0797
18294TIP3    H176373   2.485   2.449   1.562 -0.2152 -0.9433 -0.4267
18294TIP3    H276374   2.423   2.495   1.692 -1.3577  1.6393 -1.8057
18295TIP3   OH276375   4.615   6.669   2.572  0.2367 -0.1985 -0.3006
18295TIP3    H176376   4.700   6.703   2.602 -0.1996  0.2988  0.3777
18295TIP3    H276377   4.551   6.732   2.603 -0.6750 -1.9594  1.6419
18296TIP3   OH276378   5.865   4.625  10.459  0.3367 -0.5751  0.3881
18296TIP3    H176379   5.862   4.649  10.367 -2.1054  2.2750  1.0488
18296TIP3    H276380   5.832   4.535  10.461 -3.1822  0.4789 -1.3661
18297TIP3   OH276381   6.606   2.604   1.557  0.5257 -0.2857  0.0241
18297TIP3    H176382   6.644   2.596   1.469  1.8326 -0.3311  0.5734
18297TIP3    H276383   6.619   2.695   1.581  1.4875 -0.5904  0.7299
18298TIP3   OH276384   2.979   4.849  14.353  0.0428  0.2864  0.1253
18298TIP3    H176385   2.932   4.911  14.408 -0.8809  0.3753 -0.7468
18298TIP3    H276386   2.917   4.825  14.285  0.1832 -2.0370  0.7432
18299TIP3   OH276387   0.104   0.137   0.059 -0.1997  0.3201 -0.1322
18299TIP3    H176388   0.075   0.227   0.041  0.0253  0.2991 -0.6169
18299TIP3    H276389   0.081   0.123   0.150 -0.3783  0.8200 -0.0934
18300TIP3   OH276390   2.468   3.551   4.315 -0.5227 -0.1035  0.0337
18300TIP3    H176391   2.535   3.503   4.364 -1.9309 -0.3015  1.8642
18300TIP3    H276392   2.414   3.592   4.382 -2.8658 -0.8083 -1.3241
18301TIP3   OH276393   0.190   1.662   3.901 -0.4327  0.2130  0.1591
18301TIP3    H176394   0.135   1.623   3.968 -0.6239 -1.9014 -1.1282
18301TIP3    H276395   0.280   1.644   3.929 -0.5167 -0.9494 -0.2754
18302TIP3   OH276396   1.672   2.954  14.131 -0.2741  0.3384 -0.0197
18302TIP3    H176397   1.621   3.029  14.161  0.9288  1.1923 -0.0531
18302TIP3    H276398   1.615   2.879  14.145 -1.6168  1.2817 -0.2519
18303TIP3   OH276399   0.883   4.080   5.347  0.0268 -0.2308 -0.1307
18303TIP3    H176400   0.963   4.075   5.295  0.4184 -0.4382  0.4834
18303TIP3    H276401   0.818   4.118   5.288  0.6620  0.2371 -0.5353
18304TIP3   OH276402   0.078   3.209  11.617 -0.0549 -0.1926 -0.3498
18304TIP3    H176403   0.128   3.197  11.697  0.4438 -0.9503 -0.7638
18304TIP3    H276404  -0.014   3.201  11.645  0.0476  0.8838  0.3545
18305TIP3   OH276405   6.204   2.139   4.526  0.7231  0.5952 -0.0352
18305TIP3    H176406   6.114   2.127   4.554  0.8850 -1.1235 -0.1411
18305TIP3    H276407   6.205   2.111   4.435  0.9413  2.6975 -0.7303
18306TIP3   OH276408   0.664   3.071   4.730 -0.3196  0.2970  0.1757
18306TIP3    H176409   0.634   3.157   4.759 -0.9700  0.2176 -0.2436
18306TIP3    H276410   0.730   3.046   4.795 -0.2258  1.0452  0.3798
18307TIP3   OH276411   3.260   2.837   0.809 -0.2995  0.2616 -0.2821
18307TIP3    H176412   3.251   2.913   0.752 -1.9441  1.5901  1.5967
18307TIP3    H276413   3.341   2.852   0.857 -0.4902  0.7316 -0.1002
18308TIP3   OH276414   5.666   0.722  16.878 -0.5859  0.3413 -0.1800
18308TIP3    H176415   5.629   0.682  16.799 -1.6713  2.1976 -0.6964
18308TIP3    H276416   5.745   0.767  16.847 -0.4145  0.1700  0.0101
18309TIP3   OH276417   2.896   1.721  12.071 -0.0351 -0.2651 -0.2568
18309TIP3    H176418   2.954   1.797  12.079 -0.6259  0.1522  0.0833
18309TIP3    H276419   2.858   1.710  12.158  1.8565 -2.4511  0.4132
18310TIP3   OH276420   1.558   5.391  14.708 -0.4792  0.0013  0.1576
18310TIP3    H176421   1.479   5.363  14.754 -0.8080 -1.9254 -1.4546
18310TIP3    H276422   1.580   5.318  14.652  2.2721  0.6485  0.2646
18311TIP3   OH276423   1.551   2.329   0.835  0.2862 -0.1291 -0.0886
18311TIP3    H176424   1.641   2.349   0.813  0.9617 -2.2178  0.4950
18311TIP3    H276425   1.522   2.403   0.888  1.8334  0.3451  0.1433
18312TIP3   OH276426   4.217   1.535   1.406 -0.3804 -0.3376  0.9810
18312TIP3    H176427   4.164   1.538   1.486  1.4631  0.2522  2.2600
18312TIP3    H276428   4.245   1.443   1.400 -0.5605 -0.3933  0.9797
18313TIP3   OH276429   0.921   2.029  13.341 -0.1300  0.1855  0.0077
18313TIP3    H176430   0.945   2.107  13.291 -0.4580 -0.0025 -0.4508
18313TIP3    H276431   0.976   2.032  13.419  0.6750  0.2788 -0.5489
18314TIP3   OH276432   0.821   0.898  16.072 -0.3925 -0.0264  0.1430
18314TIP3    H176433   0.897   0.849  16.040  1.2018  1.7062  1.0677
18314TIP3    H276434   0.812   0.870  16.163 -0.6329  0.0424  0.1404
18315TIP3   OH276435   4.823   6.614   0.917  0.1091  0.3495  0.1737
18315TIP3    H176436   4.788   6.526   0.916 -0.9854  0.6577  2.7274
18315TIP3    H276437   4.915   6.604   0.892 -0.0381 -1.4773  0.2775
18316TIP3   OH276438   2.516   6.423   0.748 -0.3130  0.5328 -0.3047
18316TIP3    H176439   2.553   6.481   0.815  1.2544 -0.0884 -0.5947
18316TIP3    H276440   2.588   6.408   0.687  0.0896 -3.4555  0.8899
18317TIP3   OH276441   0.049   2.632  10.515  0.2651  0.3023  0.2746
18317TIP3    H176442   0.105   2.556  10.497 -0.7068 -0.3616  0.0313
18317TIP3    H276443   0.099   2.706  10.480  0.3172 -0.4607 -1.3255
18318TIP3   OH276444   4.953   4.457  15.535 -0.0048  0.0381 -0.3504
18318TIP3    H176445   4.975   4.547  15.512  1.0043  0.1181  0.8523
18318TIP3    H276446   4.920   4.462  15.625 -0.1772 -0.7583 -0.3610
18319TIP3   OH276447   1.682   2.603   4.285  0.8759 -0.6590 -0.3362
18319TIP3    H176448   1.644   2.525   4.244 -0.9197  0.8181 -1.6919
18319TIP3    H276449   1.694   2.664   4.213 -1.1085  1.5590  1.0571
18320TIP3   OH276450   3.993   2.156  15.719  0.1547  0.3361  0.0914
18320TIP3    H176451   3.960   2.102  15.647  1.1478 -1.0830  0.6453
18320TIP3    H276452   3.984   2.246  15.687  1.5933 -0.2669 -2.3093
18321TIP3   OH276453   4.270   5.423  11.639  0.4665 -0.3569  0.0458
18321TIP3    H176454   4.294   5.355  11.702  1.3395 -0.2378 -0.1457
18321TIP3    H276455   4.309   5.395  11.557 -0.1820 -0.2171 -0.3176
18322TIP3   OH276456   0.193   4.188   1.193 -0.3940  0.2185  0.3364
18322TIP3    H176457   0.276   4.165   1.233 -0.3050  0.4013  0.2556
18322TIP3    H276458   0.131   4.123   1.226  0.1559 -1.0422 -1.0186
18323TIP3   OH276459   3.828   3.026  12.846 -0.2906 -0.3207  0.2370
18323TIP3    H176460   3.855   3.114  12.821  3.6191 -1.2633  0.5047
18323TIP3    H276461   3.834   2.976  12.764 -0.2156 -0.7751  0.5209
18324TIP3   OH276462   3.500   3.938  16.560  0.1491  0.1527 -0.2586
18324TIP3    H176463   3.513   3.916  16.468  1.0367  1.3919 -0.4611
18324TIP3    H276464   3.578   3.989  16.583  0.5264 -1.1324  1.5175
18325TIP3   OH276465   3.056   2.271  11.319 -0.1555 -0.4274 -0.3227
18325TIP3    H176466   3.091   2.226  11.243  1.5427  1.3712 -0.6744
18325TIP3    H276467   3.072   2.211  11.392 -1.1153 -1.8378 -1.2255
18326TIP3   OH276468   4.365   3.929   2.567 -0.6208  0.1025 -0.1549
18326TIP3    H176469   4.439   3.970   2.610 -0.9412  1.3253 -0.7259
18326TIP3    H276470   4.302   4.000   2.553  0.0030  0.1518 -3.8229
18327TIP3   OH276471   6.267   3.507  15.273  0.2234 -0.4432  0.1772
18327TIP3    H176472   6.187   3.531  15.320 -1.5188 -1.0306 -2.3116
18327TIP3    H276473   6.302   3.590  15.241 -1.3662 -0.3884 -1.6157
18328TIP3   OH276474   6.830   5.642   1.598  0.2976  0.4060 -0.0007
18328TIP3    H176475   6.812   5.673   1.687  1.7294 -1.4630  1.0285
18328TIP3    H276476   6.919   5.605   1.603 -1.1512 -3.8052 -0.9646
18329TIP3   OH276477   4.634   1.042   2.655  0.2051  0.2446 -0.0238
18329TIP3    H176478   4.610   1.005   2.740  0.3147 -0.4260 -0.2755
18329TIP3    H276479   4.713   0.996   2.630  0.4287  0.7616 -0.2883
18330TIP3   OH276480   4.938   3.464  11.219  0.0553 -0.2495  0.5451
18330TIP3    H176481   4.844   3.471  11.200  0.3115 -1.5440 -1.4624
18330TIP3    H276482   4.979   3.448  11.134  1.8480 -1.9868  1.6512
18331TIP3   OH276483   2.278   2.452  16.643 -0.0132  0.3554 -0.1770
18331TIP3    H176484   2.271   2.510  16.719  0.2035 -0.8393  0.7926
18331TIP3    H276485   2.293   2.365  16.681  0.5976 -0.1934 -1.6010
18332TIP3   OH276486   1.763   0.448   5.080 -0.0505  0.5000  0.1441
18332TIP3    H176487   1.675   0.484   5.078  0.0790  1.0379  1.9881
18332TIP3    H276488   1.768   0.402   5.163  1.3105  0.2139 -0.0702
18333TIP3   OH276489   2.319   5.694   4.567  0.3125  0.1036 -0.2596
18333TIP3    H176490   2.377   5.629   4.605  0.3894  0.1914 -0.2278
18333TIP3    H276491   2.326   5.770   4.625 -2.5458 -1.0657  1.8733
18334TIP3   OH276492   1.551   5.879  12.912  0.2595  0.5231 -0.6393
18334TIP3    H176493   1.504   5.957  12.942 -0.9804 -0.2708 -0.4659
18334TIP3    H276494   1.549   5.885  12.816  4.1173  2.9975 -0.8297
18335TIP3   OH276495   5.631   5.228  12.234 -0.2430 -0.1239 -0.2634
18335TIP3    H176496   5.632   5.322  12.219  0.1156 -0.4252 -2.4275
18335TIP3    H276497   5.632   5.219  12.329 -0.4711  2.0422 -0.0055
18336TIP3   OH276498   1.109   4.193  11.480 -0.4601  0.0219 -0.0936
18336TIP3    H176499   1.046   4.121  11.475 -1.7476  1.0953  0.3207
18336TIP3    H276500   1.146   4.199  11.392 -0.5355 -0.9536 -0.2032
18337TIP3   OH276501   2.507   4.828   0.605 -0.0691  0.4797  0.2819
18337TIP3    H176502   2.600   4.823   0.587  0.0610  0.8576  0.8265
18337TIP3    H276503   2.493   4.770   0.679 -0.1167  1.0685  0.7415
18338TIP3   OH276504   3.982   1.320  11.960  0.1506  0.1109  0.4111
18338TIP3    H176505   3.990   1.283  12.048  2.5298  1.1326  0.6942
18338TIP3    H276506   4.042   1.268  11.907  1.0711  1.4594  0.0985
18339TIP3   OH276507   2.377   4.648  11.025 -0.0933  0.0811  0.1765
18339TIP3    H176508   2.364   4.729  11.076 -1.4724  0.5174 -0.8077
18339TIP3    H276509   2.322   4.660  10.948 -0.0145 -1.6519 -0.1782
18340TIP3   OH276510   4.689   3.897   4.747 -0.0654 -0.3154 -0.0600
18340TIP3    H176511   4.706   3.923   4.838  0.0196 -0.2533 -0.0937
18340TIP3    H276512   4.617   3.835   4.753 -1.3177  1.0954 -0.1171
18341TIP3   OH276513   4.712   6.780  11.725 -0.4081 -0.6472  0.5596
18341TIP3    H176514   4.708   6.855  11.666 -2.4414  0.0879  1.5163
18341TIP3    H276515   4.800   6.783  11.762 -0.0325  0.5186 -0.3629
18342TIP3   OH276516   3.789   4.676  15.866 -0.7236  0.3440  0.0339
18342TIP3    H176517   3.723   4.688  15.934  0.2041  1.1346  0.8263
18342TIP3    H276518   3.768   4.743  15.801 -0.7938  0.4945  0.2094
18343TIP3   OH276519   6.252   4.390   1.627 -0.3804 -0.1591 -0.4439
18343TIP3    H176520   6.162   4.417   1.643 -0.8660 -2.0629  0.2601
18343TIP3    H276521   6.244   4.311   1.573  0.9357  0.4212 -1.5706
18344TIP3   OH276522   2.196   0.349   0.447  0.2562 -0.0601 -0.0989
18344TIP3    H176523   2.211   0.403   0.370  0.3156 -0.9143 -0.7046
18344TIP3    H276524   2.188   0.411   0.519  0.3183  0.7457 -0.7727
18345TIP3   OH276525   3.780   0.888  11.631 -0.2967 -0.1081 -0.1782
18345TIP3    H176526   3.826   0.817  11.586 -0.0541  0.0357 -0.1633
18345TIP3    H276527   3.721   0.844  11.692 -0.5645 -0.3019 -0.5740
18346TIP3   OH276528   3.651   2.271   5.813 -0.4800  0.2763  0.4221
18346TIP3    H176529   3.699   2.247   5.893  1.5164 -1.2187 -1.1015
18346TIP3    H276530   3.680   2.360   5.794  0.7495 -0.1458  0.2238
18347TIP3   OH276531   2.617   4.367   5.254 -0.1029 -0.1970  0.0497
18347TIP3    H176532   2.645   4.458   5.261 -0.0135 -0.3097  1.6578
18347TIP3    H276533   2.691   4.317   5.289 -0.5442 -0.8072  0.1264
18348TIP3   OH276534   3.710   0.763  14.086 -0.3799 -0.6673 -0.2929
18348TIP3    H176535   3.707   0.733  13.995  1.8354 -0.2655 -0.5619
18348TIP3    H276536   3.691   0.856  14.081 -1.8824 -0.9439 -0.1153
18349TIP3   OH276537   3.174   5.755  13.984 -0.3196 -0.2487  0.4136
18349TIP3    H176538   3.108   5.769  13.917 -0.0715 -1.1610 -0.0324
18349TIP3    H276539   3.128   5.768  14.067 -0.6806  0.6401  0.0755
18350TIP3   OH276540   4.228   1.074   5.379  0.2860 -0.1730  0.0647
18350TIP3    H176541   4.181   1.147   5.418 -2.6796 -1.5300 -0.7050
18350TIP3    H276542   4.270   1.111   5.301  0.6660  1.1091  0.8466
18351TIP3   OH276543   3.471   0.849   6.094 -0.0178 -0.1938  0.2334
18351TIP3    H176544   3.434   0.789   6.030  0.2360  0.1011 -0.1909
18351TIP3    H276545   3.560   0.866   6.063 -0.5642  1.6083 -0.5110
18352TIP3   OH276546   0.595   3.122  16.918 -0.0927  0.6107  0.6833
18352TIP3    H176547   0.589   3.118  16.822  0.2221 -0.8119  0.7082
18352TIP3    H276548   0.508   3.151  16.946  0.3530  2.9732 -0.0846
18353TIP3   OH276549   2.173   3.410   1.205  0.2599 -0.7503 -0.2806
18353TIP3    H176550   2.093   3.394   1.255  0.9824 -2.7996  0.3051
18353TIP3    H276551   2.163   3.499   1.172 -1.5161 -0.3681  1.1426
18354TIP3   OH276552   3.395   4.413  15.848  0.2984 -0.2345  0.3698
18354TIP3    H176553   3.482   4.436  15.816 -0.7098  1.0814 -1.5779
18354TIP3    H276554   3.381   4.472  15.922  1.4219 -1.1961  1.4181
18355TIP3   OH276555   0.511   3.107  16.667  0.5187  0.8065 -0.4037
18355TIP3    H176556   0.511   3.090  16.573  0.3368 -1.0576 -0.1034
18355TIP3    H276557   0.436   3.057  16.701  0.7880  1.1645  0.7864
18356TIP3   OH276558   4.728   2.156   4.601 -0.0512  0.4083  0.1338
18356TIP3    H176559   4.743   2.211   4.678 -1.3953 -0.1965  0.8600
18356TIP3    H276560   4.790   2.084   4.611 -0.0936  0.4276  0.5527
18357TIP3   OH276561   2.107   4.154  15.577  0.3418 -0.2878  0.6826
18357TIP3    H176562   2.076   4.233  15.623 -1.4390  0.2202 -1.2522
18357TIP3    H276563   2.031   4.096  15.576  0.4449 -0.4405 -1.2146
18358TIP3   OH276564   5.394   2.299  12.317 -0.1848  0.4286 -0.3757
18358TIP3    H176565   5.398   2.204  12.303  1.3714  0.2106  1.1645
18358TIP3    H276566   5.305   2.323  12.294 -1.2683 -1.7595  1.1691
18359TIP3   OH276567   2.888   5.220  15.493  0.4766  0.0233 -0.2006
18359TIP3    H176568   2.861   5.257  15.409 -0.1546 -1.2042 -0.5568
18359TIP3    H276569   2.970   5.174  15.474  1.1359  0.9755  0.1972
18360TIP3   OH276570   6.656   5.304  13.621  0.4218  0.2120 -0.4409
18360TIP3    H176571   6.673   5.370  13.554  1.6269 -0.4870 -0.8613
18360TIP3    H276572   6.667   5.351  13.704  1.0352  0.6131 -0.7347
18361TIP3   OH276573   5.279   6.397   4.343 -0.0913  0.0356  0.0454
18361TIP3    H176574   5.216   6.442   4.286  0.1198 -1.0232 -1.0385
18361TIP3    H276575   5.364   6.432   4.317 -0.0374 -0.0509  0.1063
18362TIP3   OH276576   3.935   1.852   3.734 -0.3373  0.2587  0.8600
18362TIP3    H176577   3.853   1.817   3.769 -1.2789  1.7941  0.3104
18362TIP3    H276578   3.909   1.903   3.657  1.2341  0.1607  0.2178
18363TIP3   OH276579   4.342   1.424  14.599 -0.0856 -0.1554 -0.3995
18363TIP3    H176580   4.330   1.345  14.651 -0.0994 -0.6224 -1.1014
18363TIP3    H276581   4.300   1.493  14.650  1.3545 -0.2573  1.0445
18364TIP3   OH276582   3.801   2.121  12.804 -0.4869  1.0056  0.5754
18364TIP3    H176583   3.818   2.211  12.831  1.6757  0.9197 -0.2592
18364TIP3    H276584   3.853   2.067  12.864 -2.2448  0.2254  1.4669
18365TIP3   OH276585   0.986   0.521  12.874  0.2408 -0.3117  0.0711
18365TIP3    H176586   0.978   0.427  12.890  2.0634 -0.3479  1.0237
18365TIP3    H276587   0.939   0.536  12.792 -0.5872 -1.9334  0.2068
18366TIP3   OH276588   2.725   0.260   2.614  0.0882 -0.5634 -0.8703
18366TIP3    H176589   2.743   0.202   2.540  1.3425 -0.7745 -0.4209
18366TIP3    H276590   2.634   0.240   2.638 -0.5030 -0.1691 -2.6132
18367TIP3   OH276591   2.857   1.973  14.148 -0.1425  0.1250  0.4503
18367TIP3    H176592   2.770   1.948  14.118 -0.2610  0.6253  0.3818
18367TIP3    H276593   2.853   1.962  14.243 -0.6633  1.3051  0.5805
18368TIP3   OH276594   5.027   4.658  10.422  0.0204  0.3013  0.5592
18368TIP3    H176595   4.965   4.726  10.448  0.8490  0.4413  2.3093
18368TIP3    H276596   4.992   4.578  10.461  1.5256  0.5953  2.7503
18369TIP3   OH276597   6.064   6.752  15.246 -0.0945 -0.2174  0.3628
18369TIP3    H176598   6.102   6.791  15.167 -0.1023  0.4500  0.6761
18369TIP3    H276599   5.980   6.798  15.257 -0.6561 -1.1493  0.0932
18370TIP3   OH276600   0.578   4.692   4.249 -0.8053  0.1675  0.0154
18370TIP3    H176601   0.493   4.703   4.206 -0.5834  0.0937 -0.4530
18370TIP3    H276602   0.634   4.654   4.181 -0.6736 -0.7425  0.6158
18371TIP3   OH276603   0.503   1.176   1.830 -0.2643 -0.1724  0.4558
18371TIP3    H176604   0.594   1.200   1.812 -0.6690  0.6628 -0.6285
18371TIP3    H276605   0.490   1.197   1.922  0.3475  0.7035  0.3502
18372TIP3   OH276606   6.842   2.728  12.875  0.1279  0.5279  0.2863
18372TIP3    H176607   6.874   2.687  12.955 -1.7633 -0.7140  0.4751
18372TIP3    H276608   6.886   2.813  12.872  2.6645 -0.6700  0.9321
18373TIP3   OH276609   0.707   3.901  14.865 -0.0832  0.2223 -0.2962
18373TIP3    H176610   0.690   3.915  14.772  1.9536 -0.8904 -0.8930
18373TIP3    H276611   0.775   3.834  14.867  1.2255  1.4900  1.9165
18374TIP3   OH276612   2.025   2.159  14.221 -0.2057 -0.0033  0.7617
18374TIP3    H176613   2.054   2.240  14.263  0.1086 -1.3470  3.2795
18374TIP3    H276614   2.098   2.135  14.164  0.3339  0.6986  1.1362
18375TIP3   OH276615   4.784   4.226  11.586 -0.4927 -0.2123 -0.6735
18375TIP3    H176616   4.692   4.253  11.592 -0.1446  1.2560 -1.4821
18375TIP3    H276617   4.783   4.151  11.527 -1.0243  0.7270 -1.9063
18376TIP3   OH276618   1.726   4.628  14.992  0.0572  0.8807  0.0474
18376TIP3    H176619   1.711   4.655  15.082 -1.2282 -0.9057  0.4296
18376TIP3    H276620   1.744   4.534  14.998 -0.3511  0.6716 -1.5840
18377TIP3   OH276621   4.545   4.100  16.654  0.3321  0.4809  0.3275
18377TIP3    H176622   4.566   4.007  16.660 -1.4244  0.0533  0.5683
18377TIP3    H276623   4.567   4.135  16.740  0.0482  0.0459  0.5843
18378TIP3   OH276624   0.040   4.186  15.445  0.9446 -0.5733  0.5110
18378TIP3    H176625   0.037   4.098  15.482 -0.0529 -0.3264  1.0515
18378TIP3    H276626  -0.016   4.182  15.367  0.0261 -0.1683  1.1304
18379TIP3   OH276627   6.448   2.280   2.058 -0.0944  0.4399  0.7060
18379TIP3    H176628   6.452   2.248   2.148  1.0580 -1.7401 -0.0457
18379TIP3    H276629   6.495   2.363   2.060  1.7406 -0.5711  1.7712
18380TIP3   OH276630   0.260   4.773   4.971 -0.2776  0.2265 -0.3109
18380TIP3    H176631   0.256   4.690   4.923 -1.1642  0.5239 -0.7797
18380TIP3    H276632   0.173   4.782   5.010 -0.2862  1.0738 -0.5022
18381TIP3   OH276633   3.678   3.423  11.598 -0.4917  0.4226 -0.1487
18381TIP3    H176634   3.690   3.512  11.567  0.9066  0.7505  1.2347
18381TIP3    H276635   3.610   3.430  11.665 -1.3741  0.1851 -0.9812
18382TIP3   OH276636   2.991   4.550   2.168  0.2352  0.8095 -0.1004
18382TIP3    H176637   3.084   4.543   2.148  0.5426  2.9855  0.3318
18382TIP3    H276638   2.948   4.554   2.082  0.3999 -1.0920 -0.3154
18383TIP3   OH276639   2.862   0.621   5.062  0.3127  0.0645 -0.6206
18383TIP3    H176640   2.867   0.645   5.154  0.4774  1.9072 -1.0747
18383TIP3    H276641   2.946   0.578   5.044  0.8146  0.8550 -0.2151
18384TIP3   OH276642   2.691   3.674  14.939  0.0157 -0.2113 -0.3362
18384TIP3    H176643   2.662   3.604  14.998  0.6044 -1.8643 -1.8982
18384TIP3    H276644   2.784   3.683  14.957 -0.3855  1.5289  1.1367
18385TIP3   OH276645   1.434   3.164  11.384 -0.1090 -0.0741 -0.4359
18385TIP3    H176646   1.452   3.190  11.474  0.2015 -0.2233 -0.4569
18385TIP3    H276647   1.403   3.074  11.391  0.7367 -0.3777 -0.5627
18386TIP3   OH276648   2.810   0.842  16.131  0.4733  0.2357 -0.4896
18386TIP3    H176649   2.895   0.823  16.172 -0.6742 -1.1039  1.4542
18386TIP3    H276650   2.832   0.872  16.043  2.9841  0.6924  0.2185
18387TIP3   OH276651   0.829   1.458   3.139  0.7699  0.0427 -0.0982
18387TIP3    H176652   0.917   1.487   3.163  0.4611  1.1434 -0.2314
18387TIP3    H276653   0.772   1.528   3.170  0.0111 -0.2887 -0.7187
18388TIP3   OH276654   5.785   3.713   3.441 -0.5400 -0.5238  0.6097
18388TIP3    H176655   5.816   3.623   3.453 -0.6785 -0.7184 -0.4025
18388TIP3    H276656   5.859   3.767   3.469 -0.3995 -0.9528  1.0777
18389TIP3   OH276657   5.262   5.152  15.778 -0.0583  0.1998 -0.2750
18389TIP3    H176658   5.330   5.181  15.717  0.4370 -1.3636 -0.5089
18389TIP3    H276659   5.299   5.073  15.818 -1.3187 -0.0726  0.3759
18390TIP3   OH276660   4.857   1.166   0.651 -0.3645 -0.0778  0.5290
18390TIP3    H176661   4.824   1.245   0.694  2.5501  1.2186  0.6411
18390TIP3    H276662   4.906   1.120   0.719 -1.3254 -1.5978  0.2380
18391TIP3   OH276663   5.461   2.332  15.461 -0.5241 -0.3073 -0.2795
18391TIP3    H176664   5.415   2.397  15.513  0.8746  0.0032  0.6348
18391TIP3    H276665   5.428   2.248  15.493 -0.0978 -0.1034  0.7280
18392TIP3   OH276666   0.180   2.968   0.864 -0.4950  0.7514 -0.7085
18392TIP3    H176667   0.203   2.878   0.890 -1.4204  0.0089 -2.3247
18392TIP3    H276668   0.263   3.005   0.832  0.0974  0.8331  0.8085
18393TIP3   OH276669   2.035   3.629  14.923  0.3855  0.2980  0.3838
18393TIP3    H176670   2.009   3.698  14.984 -0.3498 -0.1692  0.6129
18393TIP3    H276671   2.050   3.675  14.840 -0.8789  0.6399  0.3219
18394TIP3   OH276672   1.240   4.797   5.146  0.2629  0.1656  0.7783
18394TIP3    H176673   1.164   4.743   5.126  1.0578 -0.5937 -0.2970
18394TIP3    H276674   1.212   4.852   5.219 -1.4684  0.2452  0.0967
18395TIP3   OH276675   1.476   4.351   5.773 -0.0925 -0.2503 -0.5012
18395TIP3    H176676   1.409   4.420   5.780 -0.5867 -0.5588 -1.9364
18395TIP3    H276677   1.540   4.386   5.711 -0.3989 -1.1081 -1.3210
18396TIP3   OH276678   6.577   2.959  12.302  0.2527  0.0441  0.6886
18396TIP3    H176679   6.545   3.041  12.340 -0.7218 -1.2640  2.9066
18396TIP3    H276680   6.515   2.939  12.232 -0.9095  0.0340  1.6917
18397TIP3   OH276681   5.085   0.351   5.101  0.0056  0.4403 -0.5613
18397TIP3    H176682   5.149   0.311   5.160 -1.1470  1.7486  1.7279
18397TIP3    H276683   5.064   0.282   5.038  2.3722 -0.5568 -0.3853
18398TIP3   OH276684   3.410   2.441   5.595 -0.4087  0.2634 -0.5285
18398TIP3    H176685   3.406   2.505   5.666  0.2974 -1.5263  1.1950
18398TIP3    H276686   3.368   2.486   5.521 -0.4091  2.5057  0.7322
18399TIP3   OH276687   2.401   4.242  14.097 -0.2306 -0.3891 -0.2179
18399TIP3    H176688   2.318   4.196  14.086 -0.5631 -0.0033  0.5877
18399TIP3    H276689   2.461   4.196  14.038 -0.7418 -1.3473 -0.0221
18400TIP3   OH276690   4.999   6.064  11.745 -0.8419 -0.4734  0.5748
18400TIP3    H176691   5.044   5.990  11.784  0.6178 -0.3497 -0.7630
18400TIP3    H276692   4.943   6.025  11.678  0.3515 -0.3816 -0.5208
18401TIP3   OH276693   6.453   6.399   5.059  0.5719 -0.0260 -0.1735
18401TIP3    H176694   6.492   6.320   5.098  1.5631  0.5933  0.1244
18401TIP3    H276695   6.515   6.424   4.991  0.3664  0.6172 -0.1262
18402TIP3   OH276696   6.487   4.238   1.177  0.1636  0.6888  0.6560
18402TIP3    H176697   6.501   4.146   1.156 -0.0434  0.8772 -0.3721
18402TIP3    H276698   6.501   4.244   1.272 -1.6210 -0.7504  1.0594
18403TIP3   OH276699   5.618   0.877  14.967 -0.0590 -0.3259 -0.2126
18403TIP3    H176700   5.552   0.944  14.946 -1.1390 -1.5009 -0.7110
18403TIP3    H276701   5.700   0.913  14.934  0.0938  2.3063  2.6049
18404TIP3   OH276702   4.633   2.808  14.074  0.1514  0.5313  0.1545
18404TIP3    H176703   4.591   2.889  14.101  0.7631  0.9732 -0.1971
18404TIP3    H276704   4.574   2.739  14.105 -0.1934  1.0912  0.7734
18405TIP3   OH276705   4.791   2.864   5.567  0.7711  0.2303 -0.3360
18405TIP3    H176706   4.882   2.850   5.540  0.7803  1.0479 -0.7505
18405TIP3    H276707   4.739   2.821   5.498  0.8194  1.3007 -1.0655
18406TIP3   OH276708   2.770   2.558  14.552 -0.3396 -0.9219  0.1356
18406TIP3    H176709   2.821   2.508  14.616 -0.0532  0.5850  1.1380
18406TIP3    H276710   2.823   2.636  14.535 -0.2351 -1.4575 -2.2705
18407TIP3   OH276711   3.002   3.220  15.207 -0.2913 -0.0798 -0.4154
18407TIP3    H176712   3.092   3.241  15.232  0.5577  1.5219 -4.1705
18407TIP3    H276713   2.957   3.304  15.206 -0.9336 -0.4109 -1.5855
18408TIP3   OH276714   3.015   6.795  14.004  0.1912  0.4756 -0.0871
18408TIP3    H176715   2.969   6.853  13.943  1.1114  2.4006  0.9805
18408TIP3    H276716   2.951   6.728  14.027 -0.8925  1.0326 -1.3868
18409TIP3   OH276717   0.808   4.610   2.348 -0.2554  0.2528 -0.1434
18409TIP3    H176718   0.794   4.542   2.282 -2.0055  0.5361 -0.0971
18409TIP3    H276719   0.730   4.664   2.344  0.6298  1.6337  0.5908
18410TIP3   OH276720   5.103   4.065   1.829 -0.4690  0.1260  0.2718
18410TIP3    H176721   5.094   4.019   1.912 -1.8307 -0.4003 -0.1546
18410TIP3    H276722   5.179   4.122   1.842  1.5496 -2.4553  0.7042
18411TIP3   OH276723   1.134   5.015   6.700  0.0468 -0.9413 -0.0250
18411TIP3    H176724   1.136   4.995   6.794  0.5438 -0.5790  0.0443
18411TIP3    H276725   1.088   4.941   6.661 -0.8743 -0.7191  0.5984
18412TIP3   OH276726   4.428   3.601  15.197  0.8185 -0.1053 -0.6281
18412TIP3    H176727   4.436   3.629  15.105  3.0556 -0.0097 -0.4760
18412TIP3    H276728   4.514   3.619  15.234  0.1614 -0.7742  1.3375
18413TIP3   OH276729   5.850   0.477  10.886 -0.0056  0.9136  0.5272
18413TIP3    H176730   5.791   0.406  10.859  1.3096 -0.1813  0.4707
18413TIP3    H276731   5.851   0.537  10.811 -0.8836  0.8604  0.4543
18414TIP3   OH276732   2.960   2.176  12.071  0.0443  0.1510  0.2599
18414TIP3    H176733   2.879   2.139  12.106  0.9129 -0.1547  2.0854
18414TIP3    H276734   3.022   2.103  12.071  0.6303  0.6327 -0.0532
18415TIP3   OH276735   6.031   0.802   3.154 -0.1480  0.2101  0.4275
18415TIP3    H176736   5.939   0.776   3.149 -0.0563  0.1205 -1.2682
18415TIP3    H276737   6.071   0.766   3.075  1.2921  0.5164  0.9756
18416TIP3   OH276738   5.681   5.037  16.302 -0.5758 -0.2575 -0.3793
18416TIP3    H176739   5.759   5.033  16.359 -1.2537 -2.0471  0.5020
18416TIP3    H276740   5.648   5.126  16.313  0.8292  0.2493 -0.0672
18417TIP3   OH276741   0.901   2.138   4.944  0.3892  0.2190  0.5602
18417TIP3    H176742   0.806   2.145   4.932  0.5647  3.0860 -0.0036
18417TIP3    H276743   0.937   2.152   4.856  1.3705 -2.7202  0.4116
18418TIP3   OH276744   1.618   2.421  14.789  0.5808 -0.2207 -0.5983
18418TIP3    H176745   1.695   2.438  14.735  1.2766 -0.9602  0.1211
18418TIP3    H276746   1.583   2.508  14.810  1.4272  0.1351 -0.6379
18419TIP3   OH276747   4.594   1.437  14.797  0.1156 -0.0488  0.1668
18419TIP3    H176748   4.596   1.525  14.835 -0.5263  0.1053 -0.1536
18419TIP3    H276749   4.660   1.440  14.727 -1.4951  0.9054 -1.3952
18420TIP3   OH276750   0.361   2.026   3.722 -0.1812  0.0132 -0.1730
18420TIP3    H176751   0.400   1.943   3.698  0.2205 -0.0810  0.7757
18420TIP3    H276752   0.270   2.019   3.692 -0.6979 -1.5291  1.5663
18421TIP3   OH276753   3.186   0.807  15.119 -0.6998  0.4505  0.0767
18421TIP3    H176754   3.108   0.855  15.091 -0.4815  1.4444  1.1204
18421TIP3    H276755   3.244   0.873  15.155  0.1253 -0.4385  0.4266
18422TIP3   OH276756   2.251   2.467   2.765  0.4811 -0.0423  0.3755
18422TIP3    H176757   2.217   2.491   2.679  0.9139  0.5431  0.3602
18422TIP3    H276758   2.173   2.442   2.816 -0.0306  1.6312  0.4562
18423TIP3   OH276759   3.907   3.495   2.858  0.0550  0.8998  0.0437
18423TIP3    H176760   3.828   3.453   2.823 -0.9188 -1.1354  4.0199
18423TIP3    H276761   3.977   3.431   2.844  0.3578  1.4260 -0.8785
18424TIP3   OH276762   5.364   2.254   6.146  0.0926 -0.5926 -0.4642
18424TIP3    H176763   5.308   2.299   6.210  0.7219 -2.0192  1.1843
18424TIP3    H276764   5.365   2.163   6.176 -0.5375 -1.6085 -3.2379
18425TIP3   OH276765   1.204   1.316   5.368 -0.0430 -0.1496  0.0258
18425TIP3    H176766   1.244   1.379   5.308  0.8556 -0.6939  0.0342
18425TIP3    H276767   1.110   1.330   5.358  0.1275  0.7317 -0.4640
18426TIP3   OH276768   2.745   0.175  10.517 -0.2628  0.1594 -0.0817
18426TIP3    H176769   2.701   0.129  10.445 -1.3349 -0.9710  1.2593
18426TIP3    H276770   2.825   0.125  10.532 -0.4380 -0.0815  0.0502
18427TIP3   OH276771   2.135   0.935  15.265  0.0504 -0.0020  0.2195
18427TIP3    H176772   2.092   0.924  15.180 -1.5267 -0.6623  1.0555
18427TIP3    H276773   2.074   0.896  15.327  0.8802  1.0439  1.7404
18428TIP3   OH276774   5.295   2.713  12.352 -0.1102 -0.1753  0.5841
18428TIP3    H176775   5.384   2.731  12.323 -0.6269  2.4509  0.4494
18428TIP3    H276776   5.238   2.755  12.287 -1.4417 -0.8860  1.2365
18429TIP3   OH276777   1.864   6.090   3.624  0.2294  0.2236 -0.0095
18429TIP3    H176778   1.826   6.178   3.619  0.6551  0.3929 -0.2924
18429TIP3    H276779   1.944   6.095   3.571  1.7788  0.4480  2.2226
18430TIP3   OH276780   6.580   2.461   2.881 -0.0177  0.5123  0.2442
18430TIP3    H176781   6.630   2.427   2.807  0.4153  1.6587 -0.0024
18430TIP3    H276782   6.579   2.389   2.945 -0.6231 -0.5847 -0.9687
18431TIP3   OH276783   4.175   0.780  10.797 -0.4637  0.5710 -0.0897
18431TIP3    H176784   4.182   0.869  10.832 -0.1097 -0.4547  2.7140
18431TIP3    H276785   4.259   0.763  10.755 -0.3073  1.3340 -0.0825
18432TIP3   OH276786   5.413   2.756   0.988  0.2004  0.0498  0.3487
18432TIP3    H176787   5.345   2.801   0.938 -0.3573 -1.6570 -0.4764
18432TIP3    H276788   5.484   2.743   0.925 -0.0793 -1.1527  0.2603
18433TIP3   OH276789   5.109   6.256   5.297 -0.1713 -0.2285 -0.4039
18433TIP3    H176790   5.171   6.327   5.278 -0.5460  0.5019  1.0265
18433TIP3    H276791   5.144   6.214   5.375 -1.2676 -0.0555  0.1894
18434TIP3   OH276792   3.433   2.479   0.279  0.2726  0.0638  0.1937
18434TIP3    H176793   3.394   2.562   0.307  0.9353  0.6435 -0.5914
18434TIP3    H276794   3.524   2.500   0.258  0.7879 -1.0942  1.1080
18435TIP3   OH276795   5.987   0.079  10.998  0.1811 -0.3433 -0.3694
18435TIP3    H176796   5.910   0.071  10.942 -0.7112  1.9759  0.3919
18435TIP3    H276797   5.951   0.099  11.085  1.5861 -1.9366  0.6476
18436TIP3   OH276798   0.905   0.030   2.249 -0.1997 -0.1903  0.1942
18436TIP3    H176799   0.847   0.079   2.191  0.5126 -0.3848 -0.7199
18436TIP3    H276800   0.951  -0.031   2.190  0.7811 -0.1645  0.9099
18437TIP3   OH276801   3.257   1.216   1.184 -0.6370 -0.2653 -0.0798
18437TIP3    H176802   3.263   1.219   1.089 -0.5865 -0.2116 -0.0751
18437TIP3    H276803   3.343   1.244   1.215 -0.7924  0.1506 -0.0141
18438TIP3   OH276804   5.672   2.924   5.632  0.2386  0.2820  0.7102
18438TIP3    H176805   5.623   2.841   5.626  0.8984 -0.0696  0.0476
18438TIP3    H276806   5.759   2.898   5.660 -0.0482  0.9543  2.3278
18439TIP3   OH276807   1.392   3.044   1.944  0.3949  0.0517  0.3676
18439TIP3    H176808   1.347   3.056   1.860  0.0539 -0.9565  0.3919
18439TIP3    H276809   1.357   3.114   2.000 -0.9520 -0.5221  0.2943
18440TIP3   OH276810   1.380   4.772  16.206  0.6511  0.1132 -0.3233
18440TIP3    H176811   1.330   4.811  16.135 -1.7507  0.6565  1.5328
18440TIP3    H276812   1.380   4.678  16.188 -0.1330  0.2234 -0.9251
18441TIP3   OH276813   0.728   1.821  13.963  0.0108 -0.5275  1.0426
18441TIP3    H176814   0.793   1.847  13.899 -0.4323 -1.1859  0.3025
18441TIP3    H276815   0.647   1.863  13.933  0.0236  0.0740  1.8081
18442TIP3   OH276816   4.269   6.666  13.388  0.1276 -0.1521 -0.2677
18442TIP3    H176817   4.348   6.712  13.358 -0.2750 -0.9177 -2.7854
18442TIP3    H276818   4.221   6.648  13.307 -1.9470 -0.9655  1.0809
18443TIP3   OH276819   0.626   0.335   1.162  0.2054 -0.2243 -0.4136
18443TIP3    H176820   0.607   0.332   1.256  0.5188  0.8344 -0.2984
18443TIP3    H276821   0.619   0.428   1.139 -0.6514 -0.5625 -1.6156
18444TIP3   OH276822   3.996   3.443   1.995 -0.8608  0.3995 -0.0164
18444TIP3    H176823   3.986   3.487   1.910  0.5763  1.3179  0.2521
18444TIP3    H276824   3.950   3.500   2.056  1.0568  1.6836  0.3424
18445TIP3   OH276825   4.025   2.721  14.461  0.4981 -0.0258 -0.1225
18445TIP3    H176826   4.037   2.681  14.548  2.0334  0.1322 -0.2470
18445TIP3    H276827   4.098   2.781  14.452 -0.7490  1.4741 -0.7276
18446TIP3   OH276828   2.094   0.908   4.566 -0.3161  0.8005 -0.3786
18446TIP3    H176829   2.045   0.900   4.484 -0.2936  0.6521 -0.3770
18446TIP3    H276830   2.119   0.818   4.589  0.4380  0.9313 -0.6706
18447TIP3   OH276831   3.820   3.371  14.589  0.0343 -0.4142 -0.0173
18447TIP3    H176832   3.801   3.434  14.519 -2.7167  0.5600  1.4716
18447TIP3    H276833   3.819   3.423  14.669 -0.0834 -1.9979  1.0585
18448TIP3   OH276834   6.441   2.077  11.307  0.3565  0.2185  0.3752
18448TIP3    H176835   6.356   2.033  11.303  0.5822 -0.2374  0.4578
18448TIP3    H276836   6.490   2.028  11.373  1.2048 -0.4620 -0.7185
18449TIP3   OH276837   4.061   5.622   6.236 -0.4717  0.2134 -0.1838
18449TIP3    H176838   4.129   5.686   6.215 -0.7794  0.3145 -0.9190
18449TIP3    H276839   4.106   5.537   6.230  0.5594  0.3947  3.1870
18450TIP3   OH276840   5.666   4.449  15.013 -0.6355 -0.2145 -0.4115
18450TIP3    H176841   5.575   4.459  14.986 -0.3681  0.8724 -1.0004
18450TIP3    H276842   5.662   4.406  15.098 -1.6603 -0.7838 -0.7326
18451TIP3   OH276843   2.163   6.440  13.607 -0.1510  0.4018 -0.0278
18451TIP3    H176844   2.159   6.387  13.528 -1.1881  0.9498 -0.3530
18451TIP3    H276845   2.224   6.393  13.664 -0.9925 -1.1091 -0.3241
18452TIP3   OH276846   3.013   0.183  12.148 -0.3449  0.3513  0.2272
18452TIP3    H176847   3.088   0.230  12.183 -0.9837  0.8118  1.0125
18452TIP3    H276848   3.029   0.091  12.171 -0.8306  0.6593  1.9274
18453TIP3   OH276849   1.013   4.764  13.248  0.3446 -0.3710  0.0015
18453TIP3    H176850   0.954   4.802  13.182  1.2340 -0.2844 -0.7679
18453TIP3    H276851   1.010   4.825  13.321 -0.6590 -0.4648  0.0462
18454TIP3   OH276852   0.088   4.714  10.597  0.1524  0.1649  0.0548
18454TIP3    H176853   0.005   4.709  10.645 -0.6200 -3.0881 -1.3107
18454TIP3    H276854   0.072   4.777  10.528 -0.8445  0.3514  0.4300
18455TIP3   OH276855   3.665   3.637   5.614  0.4726  0.2691 -0.6596
18455TIP3    H176856   3.584   3.639   5.664 -0.1895 -0.5264 -1.6794
18455TIP3    H276857   3.716   3.711   5.648  0.0928 -0.3029  1.2531
18456TIP3   OH276858   6.450   5.856   2.767 -0.5625 -0.0106  0.2120
18456TIP3    H176859   6.423   5.943   2.735 -0.5202  0.1123  0.5093
18456TIP3    H276860   6.412   5.795   2.704 -0.0289  0.2559 -0.3787
18457TIP3   OH276861   3.803   2.376  12.876  0.2553 -0.2258 -0.0886
18457TIP3    H176862   3.709   2.357  12.887  0.0887  0.1689 -0.7750
18457TIP3    H276863   3.818   2.451  12.934 -0.2004  0.6685 -1.1053
18458TIP3   OH276864   4.811   4.041   3.050  0.3801 -0.2759 -0.2101
18458TIP3    H176865   4.863   4.110   3.092  0.7133 -0.2669 -0.6293
18458TIP3    H276866   4.732   4.086   3.022  1.0989  0.2228 -1.5275
18459TIP3   OH276867   4.104   6.865   5.308 -0.1485 -0.7663 -0.9451
18459TIP3    H176868   4.076   6.774   5.306 -1.2320 -0.4887  0.4358
18459TIP3    H276869   4.198   6.862   5.291 -0.2724 -2.0931 -1.4232
18460TIP3   OH276870   2.477   1.959  12.766 -0.4494 -0.3881 -0.3040
18460TIP3    H176871   2.570   1.975  12.780 -0.3134 -0.8696 -0.6227
18460TIP3    H276872   2.444   1.935  12.853 -0.8431  2.3105  0.3776
18461TIP3   OH276873   1.792   0.380  13.840 -0.5453 -0.2235  0.2526
18461TIP3    H176874   1.730   0.448  13.867  0.5873  0.3754  1.3983
18461TIP3    H276875   1.822   0.341  13.922 -0.7801 -1.7878 -0.3619
18462TIP3   OH276876   6.606   5.156  14.709  0.3385  0.3782  0.5661
18462TIP3    H176877   6.549   5.103  14.653 -0.5639  0.4131  1.4110
18462TIP3    H276878   6.657   5.092  14.759  0.7884  0.3412  0.0639
18463TIP3   OH276879   0.586   0.251   0.090  0.5557  0.2001 -0.1562
18463TIP3    H176880   0.542   0.209   0.016 -1.2818  0.2085  0.8767
18463TIP3    H276881   0.522   0.315   0.122  1.6907  0.8590  0.8524
18464TIP3   OH276882   4.607   2.191   0.213  0.1441 -0.2298 -0.2325
18464TIP3    H176883   4.626   2.151   0.298 -1.0387 -1.7099 -0.6153
18464TIP3    H276884   4.688   2.182   0.164  1.0425  1.2068  0.9233
18465TIP3   OH276885   3.297   3.301  13.196  0.2967  0.3106  0.1910
18465TIP3    H176886   3.309   3.210  13.226 -1.2472 -0.5536 -1.6412
18465TIP3    H276887   3.284   3.350  13.277 -0.5800 -1.3992  1.1543
18466TIP3   OH276888   3.122   3.229   3.483 -0.4775  0.1607 -0.4695
18466TIP3    H176889   3.209   3.213   3.446  0.8837  3.1501  1.0628
18466TIP3    H276890   3.076   3.278   3.414  0.2418  1.3338 -0.1466
18467TIP3   OH276891   0.662   3.393  15.491 -0.1872 -0.0219 -0.5613
18467TIP3    H176892   0.728   3.336  15.530 -0.1311 -0.3148 -1.0807
18467TIP3    H276893   0.649   3.359  15.403 -1.7324 -0.5505 -0.1606
18468TIP3   OH276894   1.542   5.622  15.382  0.2830  0.0959  0.9029
18468TIP3    H176895   1.609   5.638  15.316 -0.7015 -1.0884 -0.4439
18468TIP3    H276896   1.590   5.584  15.456  1.4389  1.7060  1.0361
18469TIP3   OH276897   4.245   1.107   4.919 -0.4673 -0.8295 -0.5357
18469TIP3    H176898   4.212   1.078   5.004 -2.2957 -2.0021 -1.5847
18469TIP3    H276899   4.167   1.123   4.867  0.6097  0.7042 -1.7678
18470TIP3   OH276900   2.317   4.448   1.923 -0.0133  0.2219 -0.1414
18470TIP3    H176901   2.237   4.396   1.920  0.3811 -0.4633  0.7900
18470TIP3    H276902   2.383   4.393   1.881  0.8217 -0.8417  2.4296
18471TIP3   OH276903   6.396   2.783  10.842  0.2300  0.3613 -0.0243
18471TIP3    H176904   6.431   2.711  10.788  0.1302  0.3286 -0.0462
18471TIP3    H276905   6.317   2.810  10.796  0.8365  1.2021 -0.5976
18472TIP3   OH276906   2.061   4.405  15.078 -0.6612  0.0991  0.5631
18472TIP3    H176907   2.090   4.376  14.992 -0.5029 -0.0356  0.6610
18472TIP3    H276908   2.099   4.341  15.139 -0.8654  0.1280  0.7221
18473TIP3   OH276909   4.236   5.980  15.354 -0.5234  0.0178 -0.1599
18473TIP3    H176910   4.312   5.935  15.389 -0.3712  0.3587 -0.0409
18473TIP3    H276911   4.249   5.980  15.259  0.4627  1.4965 -0.0683
18474TIP3   OH276912   5.872   5.368  14.236  0.2101  0.3034  0.3576
18474TIP3    H176913   5.847   5.459  14.249 -0.7290  0.1757 -0.4049
18474TIP3    H276914   5.805   5.333  14.177  1.4970 -0.4113 -0.7467
18475TIP3   OH276915   2.302   2.135  13.160 -0.0362  0.3797  0.3934
18475TIP3    H176916   2.243   2.090  13.220 -0.7690 -1.9404 -1.9000
18475TIP3    H276917   2.390   2.113  13.191 -0.3874 -2.1966 -0.2323
18476TIP3   OH276918   1.263   5.575   0.052  0.1132  0.3330  0.2448
18476TIP3    H176919   1.352   5.603   0.034  0.6885 -0.8333  1.1230
18476TIP3    H276920   1.233   5.632   0.122 -0.1531  1.2718 -0.6088
18477TIP3   OH276921   2.214   0.518  12.421 -0.2466 -0.2296 -0.5176
18477TIP3    H176922   2.222   0.447  12.357  0.7675  0.0524 -0.7171
18477TIP3    H276923   2.271   0.588  12.387  0.7757 -0.2941  0.9732
18478TIP3   OH276924   2.490   5.195   0.159 -0.4175 -0.5324  0.6872
18478TIP3    H176925   2.446   5.172   0.241  0.9533  0.6474  1.8186
18478TIP3    H276926   2.569   5.141   0.158  0.4463  0.6761  1.0415
18479TIP3   OH276927   0.429   6.700  11.602 -0.4304 -0.2775  0.4908
18479TIP3    H176928   0.339   6.731  11.610 -0.1281  0.4080  1.4607
18479TIP3    H276929   0.425   6.629  11.538 -1.4966  0.3978 -0.2213
18480TIP3   OH276930   6.849   1.519   3.716 -0.4435  0.1647 -0.2924
18480TIP3    H176931   6.881   1.607   3.694  2.6078 -0.4603  1.0209
18480TIP3    H276932   6.929   1.468   3.730 -2.1158 -2.7585 -0.6643
18481TIP3   OH276933   5.749   3.621  16.159 -0.1464 -0.3661 -0.0769
18481TIP3    H176934   5.830   3.572  16.163 -1.0272 -1.9740 -0.9029
18481TIP3    H276935   5.775   3.709  16.130  1.3351 -0.6870  0.2366
18482TIP3   OH276936   6.762   0.859   5.645 -0.3873  0.4004  0.3223
18482TIP3    H176937   6.845   0.869   5.598 -0.0233 -0.4306  0.7745
18482TIP3    H276938   6.758   0.935   5.704 -0.3648  0.9031 -0.3106
18483TIP3   OH276939   3.919   6.446   0.984  0.4930  0.4813 -0.3838
18483TIP3    H176940   3.989   6.480   1.040  0.6613  1.2123 -1.0289
18483TIP3    H276941   3.841   6.494   1.012  0.0537 -0.8763  0.8649
18484TIP3   OH276942   0.837   6.126  14.954  0.4041  0.0657  0.7371
18484TIP3    H176943   0.810   6.168  14.872 -0.8557 -0.4756  0.8462
18484TIP3    H276944   0.929   6.101  14.939  0.6088  1.1810  0.0071
18485TIP3   OH276945   1.872   1.638   6.133  0.3938  0.1512  0.7599
18485TIP3    H176946   1.904   1.555   6.166 -0.7723 -0.2725  0.8812
18485TIP3    H276947   1.781   1.621   6.108  0.8624  0.7012 -1.6637
18486TIP3   OH276948   5.660   4.516  16.211  0.5821 -0.3137  0.8745
18486TIP3    H176949   5.646   4.573  16.287 -1.8528  0.3206  0.0425
18486TIP3    H276950   5.599   4.549  16.145 -1.9140 -4.5211  0.6994
18487TIP3   OH276951   6.258   4.590   0.075  0.2905  0.4123 -0.4171
18487TIP3    H176952   6.246   4.648   0.150  1.5351 -0.1812  0.2855
18487TIP3    H276953   6.317   4.521   0.108  0.5559 -0.0700 -1.8298
18488TIP3   OH276954   6.783   4.942  13.962  0.0746  0.1169  0.0377
18488TIP3    H176955   6.859   4.895  13.926  0.0293 -0.8187  1.0987
18488TIP3    H276956   6.711   4.918  13.904  0.4651  0.5799 -0.6633
18489TIP3   OH276957   5.536   3.379   4.285 -0.5416 -0.0018  0.6767
18489TIP3    H176958   5.550   3.472   4.267 -0.6315  0.0263  0.7526
18489TIP3    H276959   5.619   3.351   4.324 -1.6885  0.9215  4.1479
18490TIP3   OH276960   2.740   6.376   4.808  0.8497 -0.3246  0.2208
18490TIP3    H176961   2.731   6.400   4.900 -2.4477 -0.6462  0.1137
18490TIP3    H276962   2.701   6.448   4.759  1.2126 -0.8090 -0.8308
18491TIP3   OH276963   3.734   2.955   3.989 -0.2774 -0.2955 -0.2034
18491TIP3    H176964   3.770   2.868   4.008 -2.4116 -1.4654 -1.0923
18491TIP3    H276965   3.790   2.990   3.920  0.5462 -1.0399  0.0760
18492TIP3   OH276966   6.805   5.372  12.402 -0.2662 -0.7291  0.8416
18492TIP3    H176967   6.872   5.407  12.343 -0.3706 -1.0696  0.5245
18492TIP3    H276968   6.727   5.363  12.348 -0.7336  0.1557  1.3269
18493TIP3   OH276969   4.246   4.530   5.365 -0.5189  0.4617 -0.2911
18493TIP3    H176970   4.202   4.493   5.441  0.6006  2.1246  1.2467
18493TIP3    H276971   4.237   4.463   5.297 -1.7937 -0.9606  1.1993
18494TIP3   OH276972   5.439   1.827   3.101 -0.3672 -0.6331  0.3375
18494TIP3    H176973   5.525   1.826   3.144 -0.2260 -0.7516  0.0565
18494TIP3    H276974   5.444   1.755   3.038 -0.7447 -0.7680  0.4594
18495TIP3   OH276975   0.714   2.098   4.570  0.9272 -0.3510  0.1863
18495TIP3    H176976   0.722   2.053   4.486  0.4959  0.7975 -0.5023
18495TIP3    H276977   0.668   2.179   4.549  0.2108 -0.3480  1.6570
18496TIP3   OH276978   0.310   4.811   5.298  0.8015  0.2209  0.2729
18496TIP3    H176979   0.380   4.793   5.361  0.5000  0.9920  0.8453
18496TIP3    H276980   0.356   4.841   5.219  1.3125 -2.6439 -0.6425
18497TIP3   OH276981   6.612   6.854   3.907 -0.4028  0.2317  0.1192
18497TIP3    H176982   6.673   6.825   3.975  0.2980 -0.0947 -0.6256
18497TIP3    H276983   6.525   6.842   3.946 -0.0026  0.5635  1.1434
18498TIP3   OH276984   4.269   2.429  15.395  0.2101 -0.1846  0.0442
18498TIP3    H176985   4.217   2.349  15.405 -0.4794  0.3164  0.5232
18498TIP3    H276986   4.280   2.438  15.300  0.6617 -1.0721 -0.0015
18499TIP3   OH276987   5.574   1.317   0.779 -0.0639  0.1759  0.0401
18499TIP3    H176988   5.528   1.322   0.695 -0.6099 -0.3999  0.2897
18499TIP3    H276989   5.516   1.361   0.841  0.2397  0.4186  0.1529
18500TIP3   OH276990   4.358   4.438   2.023 -0.1175 -0.4570 -0.5317
18500TIP3    H176991   4.277   4.445   1.972 -0.4388  1.9927  0.1836
18500TIP3    H276992   4.423   4.408   1.960 -1.0190  0.1931 -1.8206
18501TIP3   OH276993   0.424   1.721  16.251 -0.3223  0.3633  0.0975
18501TIP3    H176994   0.407   1.681  16.336 -2.3747  0.2150 -0.3287
18501TIP3    H276995   0.457   1.649  16.197 -0.4767  0.1017  0.3506
18502TIP3   OH276996   6.665   3.410  15.279  0.0532 -0.2920 -0.3828
18502TIP3    H176997   6.639   3.318  15.288 -0.1274 -0.3751 -1.6285
18502TIP3    H276998   6.588   3.459  15.308  0.1385 -0.5195  0.2585
18503TIP3   OH276999   0.264   3.650   3.781 -0.3764 -0.2942 -0.3706
18503TIP3    H177000   0.231   3.739   3.792  0.7844  0.0475  0.4554
18503TIP3    H277001   0.186   3.599   3.760 -1.3610  0.5981  0.9444
18504TIP3   OH277002   5.253   2.449  11.237 -0.5429 -0.0516  0.1742
18504TIP3    H177003   5.184   2.512  11.216  0.3960  0.8820 -0.2249
18504TIP3    H277004   5.256   2.447  11.333 -0.1079  1.0821  0.1991
18505TIP3   OH277005   6.057   0.569  14.597  0.7417  0.6240  0.1413
18505TIP3    H177006   6.027   0.539  14.511  0.8342  1.9789 -0.4007
18505TIP3    H277007   6.151   0.550  14.598  0.5308 -0.4943  0.4544
18506TIP3   OH277008   2.061   6.725   5.030  1.1880  0.2874 -0.4725
18506TIP3    H177009   2.050   6.655   5.094  0.8373  1.1654  0.4437
18506TIP3    H277010   2.150   6.758   5.044  0.7038  1.2678  0.3891
18507TIP3   OH277011   1.162   4.189   5.254  0.0849 -0.0804 -0.1543
18507TIP3    H177012   1.150   4.221   5.164  3.0110 -0.2472 -0.7020
18507TIP3    H277013   1.255   4.205   5.273 -0.8118  1.6198  3.5576
18508TIP3   OH277014   5.461   1.566   5.102 -0.0104  0.1062 -0.2986
18508TIP3    H177015   5.554   1.591   5.097 -0.0750  0.4474  0.1590
18508TIP3    H277016   5.429   1.579   5.013  0.1666  0.8649 -0.2614
18509TIP3   OH277017   3.277   1.481   0.280  0.1940  0.0989  0.1266
18509TIP3    H177018   3.368   1.510   0.273  0.3235 -0.2004  0.5155
18509TIP3    H277019   3.236   1.509   0.199  1.1815 -1.7488 -1.0690
18510TIP3   OH277020   0.113   5.915   5.296 -0.0428  0.4289 -0.2769
18510TIP3    H177021   0.147   5.861   5.225  0.1091  1.1384 -0.7450
18510TIP3    H277022   0.040   5.864   5.331  1.4092 -1.1064  0.7163
18511TIP3   OH277023   0.174   0.107   4.896  0.6907  0.1908  0.0479
18511TIP3    H177024   0.094   0.158   4.886  0.6307  0.2141  0.5868
18511TIP3    H277025   0.179   0.090   4.990  0.8642 -0.5538 -0.0921
18512TIP3   OH277026   1.865   0.611   5.756  0.8551  0.0259  0.0916
18512TIP3    H177027   1.951   0.583   5.724  1.1399 -1.7719  2.1397
18512TIP3    H277028   1.825   0.530   5.789 -1.6182  0.8309 -0.7159
18513TIP3   OH277029   6.111   0.828   0.599 -0.3127 -0.9429  0.3761
18513TIP3    H177030   6.186   0.801   0.652  0.2680  3.0443  1.9594
18513TIP3    H277031   6.128   0.920   0.579 -2.8431 -1.0151 -2.8437
18514TIP3   OH277032   6.171   0.183   5.438 -0.0138 -0.1734 -0.7694
18514TIP3    H177033   6.226   0.255   5.468  0.4949 -1.1919  0.8098
18514TIP3    H277034   6.196   0.108   5.491 -1.3615 -1.2458 -1.5581
18515TIP3   OH277035   4.542   2.055  10.533 -0.3906 -0.1697  0.0935
18515TIP3    H177036   4.575   1.977  10.489 -1.8951 -0.4326 -0.6312
18515TIP3    H277037   4.590   2.128  10.494  0.0190 -0.6167 -0.2345
18516TIP3   OH277038   1.766   5.746  15.617  0.4881  0.6398 -0.9889
18516TIP3    H177039   1.745   5.653  15.612 -0.9588  0.9654 -1.4275
18516TIP3    H277040   1.861   5.748  15.629  0.2860 -0.9531  1.7315
18517TIP3   OH277041   4.857   3.200   2.929  0.1396  0.2786  0.1804
18517TIP3    H177042   4.817   3.119   2.960  0.3273  0.1578  0.1138
18517TIP3    H277043   4.866   3.188   2.834  0.8052  0.0841  0.2595
18518TIP3   OH277044   5.867   2.885  16.537 -0.3443  0.4888 -0.5390
18518TIP3    H177045   5.891   2.977  16.524 -0.3834  0.4575 -0.8494
18518TIP3    H277046   5.950   2.840  16.552 -0.4821  0.9017  1.7880
18519TIP3   OH277047   4.146   1.201  11.768 -0.0256 -0.3609 -0.5650
18519TIP3    H177048   4.238   1.177  11.777 -0.1185 -0.1932  1.3590
18519TIP3    H277049   4.105   1.125  11.726  1.1602  0.0731 -2.6658
18520TIP3   OH277050   0.808   1.692  13.341  0.3519  0.0325 -0.0972
18520TIP3    H177051   0.837   1.656  13.257  2.8226 -1.0080  1.1052
18520TIP3    H277052   0.819   1.787  13.331 -0.5005  0.0287 -1.2968
18521TIP3   OH277053   4.135   1.766   2.266  0.1731 -0.0744  0.0610
18521TIP3    H177054   4.139   1.853   2.227  4.4208 -0.3424 -0.5923
18521TIP3    H277055   4.083   1.777   2.346 -1.8506  2.3137 -1.4335
18522TIP3   OH277056   1.447   5.438   3.838 -0.0132 -0.0314  0.3847
18522TIP3    H177057   1.377   5.444   3.773  0.2765  2.8958  0.2091
18522TIP3    H277058   1.401   5.424   3.921 -0.7440  0.8378  0.1436
18523TIP3   OH277059   0.816   0.634   5.717  0.0746 -0.1175 -0.0363
18523TIP3    H177060   0.770   0.550   5.714  3.0694 -1.8733 -0.3125
18523TIP3    H277061   0.824   0.662   5.626 -1.4601  0.8564  0.0923
18524TIP3   OH277062   4.249   5.508  10.658 -0.0731  0.1558 -0.0920
18524TIP3    H177063   4.317   5.567  10.689  0.2347  0.0187 -0.4979
18524TIP3    H277064   4.290   5.458  10.588  0.5637 -2.5084  1.9844
18525TIP3   OH277065   5.174   6.272  12.517  0.5501  0.3875 -0.1873
18525TIP3    H177066   5.149   6.199  12.574  1.5244  0.7034  0.6770
18525TIP3    H277067   5.109   6.339  12.536  1.3664  0.8141  1.2490
18526TIP3   OH277068   5.493   0.409   3.723  0.0826  0.3826 -0.2976
18526TIP3    H177069   5.466   0.318   3.716  1.0053  0.1293 -0.7019
18526TIP3    H277070   5.411   0.459   3.719 -0.3601 -0.3851 -0.9709
18527TIP3   OH277071   4.967   5.149  14.771 -0.2883  0.1575 -0.6925
18527TIP3    H177072   4.901   5.093  14.731 -0.2096  0.5989 -1.4634
18527TIP3    H277073   5.042   5.091  14.785 -0.7983 -0.3216  0.1042
18528TIP3   OH277074   0.256   4.682   2.533 -0.1752 -0.5562  0.0477
18528TIP3    H177075   0.250   4.774   2.509  1.4378 -0.5832 -0.5322
18528TIP3    H277076   0.169   4.661   2.567 -2.0520  0.0545 -3.8165
18529TIP3   OH277077   2.353   1.328  15.304 -0.2577 -0.0683 -0.3552
18529TIP3    H177078   2.279   1.366  15.256 -0.1784  0.2091 -0.2580
18529TIP3    H277079   2.420   1.396  15.303 -0.8353  0.5909  1.5640
18530TIP3   OH277080   3.563   0.601  10.407 -0.1324 -0.0455  0.5702
18530TIP3    H177081   3.555   0.512  10.372 -0.0854 -0.5310  1.7510
18530TIP3    H277082   3.607   0.650  10.338 -0.1807 -0.9375 -0.1074
18531TIP3   OH277083   1.719   3.533  13.344 -0.2319 -0.2678 -0.9247
18531TIP3    H177084   1.650   3.568  13.400  0.9320  0.8813 -0.1775
18531TIP3    H277085   1.732   3.443  13.375  1.3254  0.7315  1.6621
18532TIP3   OH277086   1.126   0.643  11.441 -0.6225  0.1786 -0.2617
18532TIP3    H177087   1.175   0.692  11.374  1.0867 -1.3963 -0.2439
18532TIP3    H277088   1.165   0.556  11.440 -1.1558 -0.1481  2.1950
18533TIP3   OH277089   5.002   3.665  15.792  0.0429 -0.4538  0.5086
18533TIP3    H177090   4.927   3.647  15.734  0.1587  2.1032 -0.5822
18533TIP3    H277091   5.071   3.607  15.759 -0.4322 -0.3335 -0.7870
18534TIP3   OH277092   4.083   4.228  12.544 -0.3505  0.7360 -0.2736
18534TIP3    H177093   4.031   4.165  12.594  1.6991  1.5055  3.1375
18534TIP3    H277094   4.028   4.307  12.541 -0.2792  0.8908  1.4632
18535TIP3   OH277095   1.424   5.391  12.740 -0.6486  0.0173 -0.5867
18535TIP3    H177096   1.413   5.340  12.821  0.3277 -1.2848 -1.2386
18535TIP3    H277097   1.511   5.429  12.748 -0.6085  0.0049 -0.9620
18536TIP3   OH277098   4.690   6.154   1.434  0.4384  0.4281 -0.3898
18536TIP3    H177099   4.749   6.209   1.485 -0.3148  0.6886  0.2273
18536TIP3    H277100   4.617   6.136   1.494  0.9423 -1.7712 -0.3412
18537TIP3   OH277101   0.277   4.947   4.778 -0.2656 -0.4080  0.3790
18537TIP3    H177102   0.369   4.940   4.754  0.1469  2.8427  0.5421
18537TIP3    H277103   0.274   4.924   4.871  0.3099 -0.9951  0.2536
18538TIP3   OH277104   4.740   4.680   0.217 -0.6255  0.3779 -0.1666
18538TIP3    H177105   4.822   4.724   0.236 -0.9218  0.8209  0.0952
18538TIP3    H277106   4.740   4.668   0.122  0.1644 -0.4729 -0.0725
18539TIP3   OH277107   3.314   4.168  12.639  0.9337 -0.2135  0.3470
18539TIP3    H177108   3.302   4.119  12.558 -0.1850 -0.2293  0.5128
18539TIP3    H277109   3.383   4.232  12.618  1.5058 -1.0017 -0.2406
18540TIP3   OH277110   1.183   6.109  13.757 -0.1990  0.5677 -0.4626
18540TIP3    H177111   1.172   6.117  13.663  1.6671 -2.1925 -1.0342
18540TIP3    H277112   1.149   6.022  13.778 -2.2414  1.7809  1.7874
18541TIP3   OH277113   1.783   0.533   1.103  0.1764 -0.4685 -0.0717
18541TIP3    H177114   1.839   0.562   1.031 -0.2750  0.1865 -0.1654
18541TIP3    H277115   1.842   0.485   1.161  0.9013  0.4630 -0.0211
18542TIP3   OH277116   3.786   1.764  16.957 -0.7839  0.2368 -0.7120
18542TIP3    H177117   3.728   1.710  16.904  0.2901 -1.1430 -0.5275
18542TIP3    H277118   3.772   1.734  17.046 -0.3519  0.4222 -0.5795
18543TIP3   OH277119   1.410   0.182   1.032  0.8968  0.0309  0.4492
18543TIP3    H177120   1.393   0.155   0.942 -0.9290 -0.3133  0.8638
18543TIP3    H277121   1.458   0.265   1.024 -0.1867  0.5686 -0.8543
18544TIP3   OH277122   5.554   0.089   3.387 -0.2001  0.0975  0.5759
18544TIP3    H177123   5.630   0.038   3.414 -0.6205 -0.9219 -0.0992
18544TIP3    H277124   5.574   0.116   3.297 -1.0618 -1.0719  0.0118
18545TIP3   OH277125   1.761   6.410   4.722 -0.7333 -0.3496  0.3908
18545TIP3    H177126   1.769   6.483   4.783  4.3305 -2.0419  2.3207
18545TIP3    H277127   1.736   6.335   4.776 -1.5988 -0.8876 -0.7146
18546TIP3   OH277128   3.015   0.215  14.725  0.2095  0.7880 -0.1266
18546TIP3    H177129   2.998   0.125  14.754  0.0080  0.2308 -1.8635
18546TIP3    H277130   3.031   0.263  14.806 -2.2060 -0.2447  1.0557
18547TIP3   OH277131   3.311   5.677   3.945  0.0620 -0.1865  0.0580
18547TIP3    H177132   3.224   5.638   3.950  0.0691 -0.1136  0.8964
18547TIP3    H277133   3.350   5.638   3.866 -0.4231 -0.8410  0.1304
18548TIP3   OH277134   4.089   3.857  13.757 -0.3399 -0.4486 -0.1528
18548TIP3    H177135   4.142   3.936  13.745 -1.3716  0.0751 -1.4394
18548TIP3    H277136   4.146   3.798  13.807  0.0033  1.5487  1.9877
18549TIP3   OH277137   2.636   4.729  12.710  0.4455  0.1910  0.4444
18549TIP3    H177138   2.639   4.776  12.793  0.9265  0.7637  0.1071
18549TIP3    H277139   2.624   4.797  12.643  0.3042 -0.2388  0.0219
18550TIP3   OH277140   0.931   4.178   2.216 -0.0594  0.1296  0.7465
18550TIP3    H177141   0.933   4.241   2.145  4.0909 -2.0393 -1.4688
18550TIP3    H277142   0.892   4.099   2.177 -0.4565 -0.2192  1.8153
18551TIP3   OH277143   1.900   6.825  11.082  0.5775  0.0350 -0.0726
18551TIP3    H177144   1.960   6.899  11.089 -1.4421  1.8625 -0.8246
18551TIP3    H277145   1.874   6.824  10.990 -3.1653  1.6549  0.7825
18552TIP3   OH277146   2.447   5.369   3.368  0.1610 -0.1771 -0.0222
18552TIP3    H177147   2.382   5.432   3.336  0.3902 -0.0256 -0.2002
18552TIP3    H277148   2.447   5.381   3.463 -0.7469 -0.8489  0.0762
18553TIP3   OH277149   5.114   4.096   1.061 -0.2578  0.0124  0.9807
18553TIP3    H177150   5.073   4.082   1.146  1.3052  0.9364  1.9582
18553TIP3    H277151   5.056   4.157   1.016 -2.0231 -1.8595  0.6238
18554TIP3   OH277152   5.877   5.539  14.915  0.1080  0.8135 -0.0422
18554TIP3    H177153   5.911   5.521  14.828 -0.7916 -0.0253 -0.2408
18554TIP3    H277154   5.825   5.461  14.937 -1.8893  2.1169  0.1199
18555TIP3   OH277155   5.474   1.281   5.689  0.0497  0.1859  0.5458
18555TIP3    H177156   5.430   1.346   5.743  2.4116  1.6229  0.8360
18555TIP3    H277157   5.542   1.244   5.744 -1.3581 -2.8750  0.4945
18556TIP3   OH277158   4.057   0.158   1.832 -0.3496  0.2922  0.0061
18556TIP3    H177159   3.966   0.146   1.861 -0.3284  0.4974  0.1610
18556TIP3    H277160   4.065   0.102   1.755 -0.2928 -0.5840  0.6330
18557TIP3   OH277161   2.180   3.135  11.925 -0.0600 -0.3236 -0.9418
18557TIP3    H177162   2.126   3.188  11.866 -0.2317  1.9199  1.0555
18557TIP3    H277163   2.257   3.190  11.942  0.0490 -0.9451  0.7710
18558TIP3   OH277164   5.518   3.115  13.384 -0.0968 -0.0844  0.1998
18558TIP3    H177165   5.487   3.204  13.399 -1.2049 -0.2742 -0.7856
18558TIP3    H277166   5.513   3.104  13.289 -0.9334 -1.5035  0.3719
18559TIP3   OH277167   4.680   6.494  11.946  0.0507  0.1201  0.8671
18559TIP3    H177168   4.585   6.509  11.949  0.2841  1.8451  0.7084
18559TIP3    H277169   4.692   6.433  11.874 -0.8092  1.2415 -0.2768
18560TIP3   OH277170   1.309   0.189  15.902 -0.3251  0.6778  0.6191
18560TIP3    H177171   1.404   0.189  15.912 -0.0912  0.0324 -1.1294
18560TIP3    H277172   1.295   0.150  15.816 -2.0075  3.6736 -0.6220
18561TIP3   OH277173   1.369   4.683  11.310  0.1613 -0.0343 -0.5881
18561TIP3    H177174   1.325   4.602  11.335 -1.0800  0.7456 -0.1358
18561TIP3    H277175   1.458   4.656  11.288  0.4712 -1.2388  1.7507
18562TIP3   OH277176   4.381   5.352   5.333  0.0347  0.1571  0.2571
18562TIP3    H177177   4.351   5.443   5.338 -0.9103  0.1414 -2.8995
18562TIP3    H277178   4.315   5.302   5.382 -1.0721  0.8948 -0.4455
18563TIP3   OH277179   4.472   2.527  12.532  0.1906  0.2635 -0.4465
18563TIP3    H177180   4.463   2.432  12.532  0.4412  0.1853 -2.8654
18563TIP3    H277181   4.513   2.547  12.617  0.4330 -1.7908 -0.0189
18564TIP3   OH277182   5.750   3.115  13.897 -0.0376 -0.3230 -0.1710
18564TIP3    H177183   5.763   3.097  13.990 -1.0602 -1.8226 -0.2667
18564TIP3    H277184   5.655   3.122  13.887  0.1266  3.3011 -0.5820
18565TIP3   OH277185   2.210   0.365  15.783 -0.3650 -0.2614 -0.2315
18565TIP3    H177186   2.266   0.441  15.768  1.1725 -1.0218  1.2913
18565TIP3    H277187   2.158   0.357  15.703  1.1783  0.9209 -1.4187
18566TIP3   OH277188   6.419   1.773  14.682 -0.1220 -0.4053  0.7354
18566TIP3    H177189   6.398   1.802  14.771 -1.2373 -1.2155  0.7513
18566TIP3    H277190   6.509   1.803  14.668 -0.3931  0.9278  1.6285
18567TIP3   OH277191   2.401   0.071  14.303  0.5580 -0.6233 -0.0669
18567TIP3    H177192   2.433   0.091  14.392 -1.9690  0.8498  0.6084
18567TIP3    H277193   2.406  -0.025  14.297  2.3112 -0.6434  1.0129
18568TIP3   OH277194   2.429   4.629   3.218  0.5411 -0.4117 -0.5410
18568TIP3    H177195   2.408   4.546   3.175  0.8646 -0.4016 -0.7241
18568TIP3    H277196   2.434   4.607   3.311  0.2296 -0.5154 -0.5506
18569TIP3   OH277197   1.042   1.226  14.648  0.3136  0.1362  0.1862
18569TIP3    H177198   0.952   1.232  14.680 -0.2120 -2.1075 -0.6649
18569TIP3    H277199   1.054   1.306  14.597 -0.6084  1.2577  1.6367
18570TIP3   OH277200   6.352   5.927  13.784  0.4240 -0.5660  0.3791
18570TIP3    H177201   6.324   5.841  13.816  1.9642 -1.7397 -1.2647
18570TIP3    H277202   6.419   5.908  13.718 -0.1568  1.8526 -1.0202
18571TIP3   OH277203   2.098   4.371  12.951  0.4915 -0.0422  0.0776
18571TIP3    H177204   2.050   4.327  12.882  0.1503 -0.6763  0.7081
18571TIP3    H277205   2.071   4.463  12.944 -0.7480 -0.3767  0.3632
18572TIP3   OH277206   3.542   5.996  15.837 -0.3707  0.5650 -0.1558
18572TIP3    H177207   3.604   5.994  15.764 -0.5260 -0.3373 -0.2737
18572TIP3    H277208   3.456   5.995  15.795 -0.4604  0.7226  0.0261
18573TIP3   OH277209   3.311   3.660  12.369  0.3101  0.4560 -0.0546
18573TIP3    H177210   3.244   3.711  12.324  0.6906  0.7829 -0.2621
18573TIP3    H277211   3.287   3.664  12.461 -0.2458  0.1296 -0.1803
18574TIP3   OH277212   6.862   6.862   0.286 -0.1728 -0.1965 -0.0143
18574TIP3    H177213   6.866   6.778   0.332 -0.8761  0.0414  0.5038
18574TIP3    H277214   6.769   6.877   0.271 -0.1074  0.7862  0.4618
18575TIP3   OH277215   2.098   2.601  13.658 -0.0178 -0.0872 -0.2411
18575TIP3    H177216   2.074   2.652  13.580  0.6804  1.3726  0.4466
18575TIP3    H277217   2.078   2.660  13.731  1.4287 -0.5461  0.5587
18576TIP3   OH277218   1.416   5.752   2.119  0.2020 -0.6989 -0.1353
18576TIP3    H177219   1.445   5.711   2.200  0.7129  0.1080  0.1060
18576TIP3    H277220   1.418   5.846   2.139 -0.4491 -0.5360 -0.8259
18577TIP3   OH277221   6.331   3.078  16.270 -0.2132 -0.2261 -0.4067
18577TIP3    H177222   6.276   3.041  16.201  0.1075  0.2126 -0.9004
18577TIP3    H277223   6.269   3.102  16.339 -0.6256  0.1209 -0.8960
18578TIP3   OH277224   2.046   1.941  16.469  0.5502 -0.2139 -0.1623
18578TIP3    H177225   2.057   1.924  16.562  0.0869 -1.5935 -0.3305
18578TIP3    H277226   1.985   2.015  16.465 -1.1083 -1.4626  0.6585
18579TIP3   OH277227   6.190   2.741  13.243 -0.5680  0.1141 -0.3348
18579TIP3    H177228   6.137   2.673  13.286  0.2270 -0.8063 -0.7532
18579TIP3    H277229   6.263   2.692  13.204  0.2807  1.2769 -0.2531
18580TIP3   OH277230   6.422   1.170  12.741 -0.0668  0.8743 -0.3970
18580TIP3    H177231   6.393   1.132  12.658  2.4242 -0.4239 -0.7721
18580TIP3    H277232   6.460   1.255  12.717  1.0228  0.3250 -0.7118
18581TIP3   OH277233   6.825   4.367   2.444 -0.0525  0.0669 -0.1767
18581TIP3    H177234   6.920   4.370   2.458 -0.1616 -1.2400  1.0406
18581TIP3    H277235   6.814   4.392   2.352  1.4803  0.0056 -0.4097
18582TIP3   OH277236   2.824   4.121   0.041 -0.1878 -0.1964 -0.4229
18582TIP3    H177237   2.872   4.191   0.084  0.1686 -1.1369  0.7793
18582TIP3    H277238   2.890   4.055   0.022 -0.3116  0.2440 -2.6006
18583TIP3   OH277239   1.460   5.765   3.063  0.6707  0.3550 -0.1299
18583TIP3    H177240   1.550   5.789   3.041  0.1171  1.8395 -0.8803
18583TIP3    H277241   1.428   5.720   2.985  0.1357  1.6413 -0.6775
18584TIP3   OH277242   5.425   0.635  13.373 -0.5111  0.1369  0.1915
18584TIP3    H177243   5.465   0.549  13.360 -1.5702 -0.4840  0.8601
18584TIP3    H277244   5.429   0.677  13.287  0.7379 -0.2412  0.0389
18585TIP3   OH277245   3.266   3.056   0.668  0.8303 -0.1164 -0.0097
18585TIP3    H177246   3.268   2.985   0.603  1.8984 -0.3417  0.2584
18585TIP3    H277247   3.174   3.082   0.671  0.8585  0.4846 -2.2386
18586TIP3   OH277248   5.130   1.536  12.562 -0.3991 -0.2137 -0.2410
18586TIP3    H177249   5.092   1.613  12.520  0.6964  0.7185  0.4210
18586TIP3    H277250   5.119   1.551  12.656  0.8817 -0.2657 -0.0533
18587TIP3   OH277251   0.282   3.072   1.957 -0.5063 -0.2037 -0.3451
18587TIP3    H177252   0.358   3.019   1.932  0.7703  1.4530 -0.1207
18587TIP3    H277253   0.275   3.138   1.889 -0.0846  1.2650  0.9822
18588TIP3   OH277254   4.637   5.200  14.726 -0.6172 -0.1223  0.3567
18588TIP3    H177255   4.701   5.146  14.773 -0.1424 -0.8809 -1.0934
18588TIP3    H277256   4.611   5.146  14.651  0.3455  1.8721 -1.5205
18589TIP3   OH277257   5.870   4.877   4.294 -0.7738 -0.4734 -0.0476
18589TIP3    H177258   5.824   4.950   4.252  0.3568  0.3731  0.1298
18589TIP3    H277259   5.962   4.893   4.276 -0.3735 -0.9463  1.4135
18590TIP3   OH277260   1.155   3.393  10.390 -0.2175 -0.1141  0.3021
18590TIP3    H177261   1.074   3.343  10.386 -1.0975  1.2941 -0.2155
18590TIP3    H277262   1.132   3.473  10.439  0.6277  0.6889 -0.5559
18591TIP3   OH277263   1.949   5.671  16.674  0.4179  0.1402  0.5145
18591TIP3    H177264   1.907   5.591  16.644  0.8615 -0.1921  0.7716
18591TIP3    H277265   1.963   5.657  16.768  1.6648 -0.0210  0.3308
18592TIP3   OH277266   3.556   6.548   5.249 -0.0222 -0.0483  0.7847
18592TIP3    H177267   3.480   6.566   5.303 -2.2754  1.3061 -2.5342
18592TIP3    H277268   3.564   6.625   5.192  1.3508 -1.8418 -1.6431
18593TIP3   OH277269   3.357   4.726  16.708  0.1421  0.3493 -0.1831
18593TIP3    H177270   3.330   4.683  16.789 -1.3719  2.0208  0.2573
18593TIP3    H277271   3.419   4.794  16.737  2.0915 -1.0486 -0.8158
18594TIP3   OH277272   4.526   0.605  14.323 -0.1263 -0.3855  0.7789
18594TIP3    H177273   4.473   0.530  14.294 -0.1781 -0.2446  0.5040
18594TIP3    H277274   4.473   0.681  14.300  0.7950 -0.1743 -0.7680
18595TIP3   OH277275   4.643   5.567  11.879 -0.1619  0.3097 -0.1316
18595TIP3    H177276   4.570   5.624  11.901  1.3137  2.0922  0.4474
18595TIP3    H277277   4.655   5.512  11.956 -1.0510 -0.2147 -0.3513
18596TIP3   OH277278   2.624   1.384  13.847 -0.0599  0.2036  0.8287
18596TIP3    H177279   2.613   1.363  13.754  1.8174  2.3623 -0.0022
18596TIP3    H277280   2.670   1.309  13.884 -0.1752 -0.3689 -0.1655
18597TIP3   OH277281   1.247   2.275  15.128 -0.2722 -0.0580 -0.3361
18597TIP3    H177282   1.267   2.345  15.066 -1.6128  1.6627  1.0898
18597TIP3    H277283   1.332   2.253  15.167 -0.0403  2.1913  0.5987
18598TIP3   OH277284   6.709   4.088  13.194 -0.0885 -0.3505  0.0331
18598TIP3    H177285   6.779   4.040  13.149 -0.1387  0.3111 -0.7720
18598TIP3    H277286   6.646   4.109  13.125 -1.2853 -1.2749  0.8224
18599TIP3   OH277287   5.054   1.529   2.791 -0.3588 -0.1601 -0.4460
18599TIP3    H177288   5.107   1.553   2.716  1.5481  1.0937  1.2048
18599TIP3    H277289   4.987   1.598   2.797  0.4532  0.6098 -0.1025
18600TIP3   OH277290   1.842   3.150   3.139  0.4905  0.3482 -0.6888
18600TIP3    H177291   1.781   3.090   3.097  2.0510 -3.1629  1.5245
18600TIP3    H277292   1.813   3.153   3.231  0.7719  2.6804 -0.6346
18601TIP3   OH277293   5.997   5.835  15.021 -0.0632 -0.0946 -0.1684
18601TIP3    H177294   6.058   5.860  14.952  1.1684 -1.7158  0.2709
18601TIP3    H277295   5.919   5.806  14.974 -0.0318  0.7749 -0.7861
18602TIP3   OH277296   4.302   4.560   2.748 -0.4037  0.4322 -0.3159
18602TIP3    H177297   4.304   4.516   2.663 -0.2827  0.6264 -0.4128
18602TIP3    H277298   4.213   4.545   2.780 -1.6739  3.3440 -2.0597
18603TIP3   OH277299   6.438   2.585  14.274  0.3623 -0.1683  0.3822
18603TIP3    H177300   6.368   2.638  14.235  1.2796  0.1250 -0.9534
18603TIP3    H277301   6.428   2.499  14.234  1.7840  0.3409 -1.2023
18604TIP3   OH277302   0.819   0.435   6.053  0.7565  0.2692 -0.1924
18604TIP3    H177303   0.829   0.521   6.013  2.2195 -0.0123 -0.5068
18604TIP3    H277304   0.730   0.434   6.088 -0.7631  0.3957 -3.7124
18605TIP3   OH277305   1.670   3.614   2.733  0.2104 -0.6273 -0.1971
18605TIP3    H177306   1.626   3.572   2.807  0.8517  0.2723  0.7306
18605TIP3    H277307   1.734   3.549   2.704 -0.9341 -1.5015 -0.8383
18606TIP3   OH277308   5.610   5.426  12.483 -0.0208  0.6600  0.4572
18606TIP3    H177309   5.658   5.345  12.502  0.5748  0.6850 -0.8341
18606TIP3    H277310   5.608   5.473  12.566  1.7251  0.3932  0.6909
18607TIP3   OH277311   4.093   0.274   3.688 -0.0956  0.6949  0.1562
18607TIP3    H177312   4.066   0.337   3.756 -1.0597  0.9935 -0.4800
18607TIP3    H277313   4.021   0.275   3.625  0.0851 -0.7180 -0.1046
18608TIP3   OH277314   5.783   0.180  14.259 -0.3185  0.3779  0.7754
18608TIP3    H177315   5.864   0.131  14.251 -1.6229 -1.5924 -1.8239
18608TIP3    H277316   5.755   0.166  14.349  1.0652 -0.7826  1.0633
18609TIP3   OH277317   1.150   4.860   2.185  0.4369 -0.9511  0.1368
18609TIP3    H177318   1.059   4.884   2.164 -0.4090 -3.8029  0.0467
18609TIP3    H277319   1.143   4.805   2.263  2.2514 -0.2120  0.8589
18610TIP3   OH277320   6.392   1.524  13.375 -0.1419  0.2571 -0.4643
18610TIP3    H177321   6.447   1.581  13.428  0.1700 -1.1678  0.8205
18610TIP3    H277322   6.310   1.517  13.424  0.6999 -2.3239  0.7695
18611TIP3   OH277323   4.417   4.514   4.749 -0.4882  0.0562  0.0179
18611TIP3    H177324   4.341   4.518   4.692 -1.1676  1.7752  0.9721
18611TIP3    H277325   4.490   4.543   4.693 -0.9487  0.6547 -0.2845
18612TIP3   OH277326   0.427   5.238  13.214  0.2294 -0.4411  1.0950
18612TIP3    H177327   0.501   5.237  13.154 -0.8639  0.3291 -0.3122
18612TIP3    H277328   0.352   5.211  13.161 -0.5321 -1.2179  2.4855
18613TIP3   OH277329   6.533   6.153   5.147  0.2050 -0.3090 -0.0736
18613TIP3    H177330   6.605   6.106   5.104  0.2077  0.0388 -0.4545
18613TIP3    H277331   6.457   6.097   5.134  0.5916 -1.1681  1.1957
18614TIP3   OH277332   2.356   1.104  10.921 -0.0853  0.4497 -0.0976
18614TIP3    H177333   2.414   1.160  10.868 -1.5990 -0.6472 -3.1998
18614TIP3    H277334   2.412   1.031  10.946  0.5559  0.6952 -0.7373
18615TIP3   OH277335   5.059   0.148   2.563  0.8275 -0.1732 -0.0946
18615TIP3    H177336   5.015   0.221   2.606 -0.7074 -0.9840 -0.2112
18615TIP3    H277337   5.059   0.170   2.470  1.9574  0.4678  0.0464
18616TIP3   OH277338   3.856   5.747  14.428  0.0708 -0.2953  0.7023
18616TIP3    H177339   3.900   5.803  14.492  1.7006 -0.8084  0.0673
18616TIP3    H277340   3.885   5.659  14.450  0.8998 -0.4593 -0.9026
18617TIP3   OH277341   2.076   3.896  10.954  0.2785 -0.0953  0.0537
18617TIP3    H177342   2.112   3.921  11.039 -0.2462  3.0865 -0.5521
18617TIP3    H277343   2.120   3.952  10.891 -0.3275 -1.4332 -1.6630
18618TIP3   OH277344   5.187   2.944   5.070 -0.1412  0.0822  0.0038
18618TIP3    H177345   5.277   2.916   5.089 -0.0486 -0.0543 -0.6267
18618TIP3    H277346   5.144   2.866   5.036 -0.6025  0.0589  0.6082
18619TIP3   OH277347   2.130   4.878   2.407  0.0418 -0.6251 -0.2904
18619TIP3    H177348   2.096   4.828   2.482 -0.0824  0.1457  0.1755
18619TIP3    H277349   2.056   4.884   2.347 -0.4142  0.3453  0.3573
18620TIP3   OH277350   2.012   3.237   5.275  0.1503 -0.0502 -0.6300
18620TIP3    H177351   1.991   3.328   5.254  1.0171  0.8314  1.9912
18620TIP3    H277352   2.105   3.228   5.253  0.2560 -0.0686 -0.1754
18621TIP3   OH277353   4.038   3.395  11.898  0.6194  0.8273  0.3717
18621TIP3    H177354   4.090   3.365  11.823 -1.3232  0.0237 -0.7319
18621TIP3    H277355   4.006   3.314  11.938 -1.4594  1.2832 -0.2619
18622TIP3   OH277356   5.031   1.480   5.639 -0.6248 -0.8153  0.7491
18622TIP3    H177357   4.989   1.523   5.565 -1.0430 -1.7114  0.4494
18622TIP3    H277358   4.971   1.495   5.713  0.6672  1.6651  1.3994
18623TIP3   OH277359   6.477   2.586   3.450  0.6409  0.8361  0.1268
18623TIP3    H177360   6.411   2.576   3.381  0.2279  2.3418  0.2822
18623TIP3    H277361   6.439   2.543   3.526 -0.3360  1.9984  0.3160
18624TIP3   OH277362   3.128   1.727  14.607 -0.0216 -0.0260  0.2288
18624TIP3    H177363   3.151   1.806  14.557 -1.9641  0.1861 -0.4392
18624TIP3    H277364   3.096   1.760  14.691 -1.5603  0.0192 -0.3294
18625TIP3   OH277365   5.997   5.040   2.748  0.1021  0.2445  0.2569
18625TIP3    H177366   5.902   5.048   2.752  0.0815  0.0580  0.1503
18625TIP3    H277367   6.022   5.078   2.664 -0.0402 -1.1835 -0.4578
18626TIP3   OH277368   2.104   0.692  12.192  0.2460  0.0946 -0.4832
18626TIP3    H177369   2.106   0.656  12.104 -0.1956  2.0580 -1.3414
18626TIP3    H277370   2.191   0.732  12.203 -0.0741  0.7867 -0.4481
18627TIP3   OH277371   5.459   2.660   0.608  0.3093 -0.0089  0.1218
18627TIP3    H177372   5.363   2.656   0.604  0.3685 -1.3850 -0.5200
18627TIP3    H277373   5.488   2.627   0.523  1.3643  0.7296  0.1741
18628TIP3   OH277374   6.515   0.467   0.803 -0.3353 -0.2894 -0.0600
18628TIP3    H177375   6.584   0.442   0.741 -0.3051  1.6753 -0.8823
18628TIP3    H277376   6.443   0.407   0.784  0.5136 -1.2482 -0.3658
18629TIP3   OH277377   0.724   4.390  16.700 -0.3662 -0.4549  0.1156
18629TIP3    H177378   0.687   4.383  16.611 -1.3979 -1.4928  0.5970
18629TIP3    H277379   0.732   4.300  16.730 -0.0295 -0.1154  1.0913
18630TIP3   OH277380   4.320   6.790   5.546  0.4284  0.1596 -0.0242
18630TIP3    H177381   4.388   6.745   5.597 -0.1506 -1.4125 -0.5883
18630TIP3    H277382   4.240   6.741   5.564 -0.1817  0.8117 -0.8922
18631TIP3   OH277383   4.449   4.760   4.103 -0.1092  0.0286 -0.1313
18631TIP3    H177384   4.539   4.736   4.078  1.0043  1.0406  2.5627
18631TIP3    H277385   4.410   4.677   4.132  0.4989 -0.1705  0.1392
18632TIP3   OH277386   2.831   4.821   2.546  0.1886  0.4447  0.3538
18632TIP3    H177387   2.862   4.812   2.636  1.1718  0.3815  0.0213
18632TIP3    H277388   2.752   4.875   2.553  0.5271  0.8517  1.2058
18633TIP3   OH277389   3.624   6.289   5.363 -0.3026 -0.0011  0.0220
18633TIP3    H177390   3.618   6.264   5.456  0.6196 -0.2740  0.0170
18633TIP3    H277391   3.627   6.385   5.365  1.8898 -0.0302  0.4486
18634TIP3   OH277392   3.808   2.541   3.723  0.5238  0.6237  0.6232
18634TIP3    H177393   3.878   2.537   3.658 -0.0201 -1.1275  0.0714
18634TIP3    H277394   3.749   2.609   3.692  0.4537  0.0420 -0.5711
18635TIP3   OH277395   1.855   5.408  16.595 -0.3354 -0.2255 -0.1722
18635TIP3    H177396   1.880   5.372  16.509 -2.2058  0.0644 -0.8813
18635TIP3    H277397   1.832   5.331  16.647  1.9644 -0.5149  0.5437
18636TIP3   OH277398   0.965   2.852  13.883  0.1262  0.5406 -0.0923
18636TIP3    H177399   0.896   2.918  13.879 -0.2515  0.1024 -1.0143
18636TIP3    H277400   0.928   2.776  13.838  0.3566 -0.4930  1.3980
18637TIP3   OH277401   4.428   1.185   3.841  0.0654 -0.2116 -0.1700
18637TIP3    H177402   4.452   1.243   3.912  0.1831  2.5882 -2.3299
18637TIP3    H277403   4.509   1.173   3.791 -0.8017  1.3543 -2.1009
18638TIP3   OH277404   3.841   4.557  16.273 -0.2937  0.6270  0.2789
18638TIP3    H177405   3.865   4.488  16.335  1.8440 -1.8601 -2.9970
18638TIP3    H277406   3.902   4.628  16.292  0.4098 -0.1395  0.9862
18639TIP3   OH277407   3.254   6.084   3.169  0.7465 -0.3627 -0.6482
18639TIP3    H177408   3.225   6.153   3.109  0.8928  1.3895  1.2095
18639TIP3    H277409   3.288   6.131   3.245  1.4103 -2.4988  0.4460
18640TIP3   OH277410   6.186   2.364  14.265  0.1932 -0.1402 -0.1814
18640TIP3    H177411   6.274   2.339  14.293  0.0423  0.8866  1.2982
18640TIP3    H277412   6.200   2.425  14.192  0.6760 -0.5421 -0.4262
18641TIP3   OH277413   0.869   3.766  10.645 -0.1889  0.2542 -0.5450
18641TIP3    H177414   0.923   3.780  10.723  1.2435 -0.4236 -1.3783
18641TIP3    H277415   0.782   3.797  10.670  0.5904  1.4455  0.8185
18642TIP3   OH277416   1.983   4.973  11.857  0.1782  0.3512 -0.1788
18642TIP3    H177417   2.035   4.893  11.852 -0.9663 -0.3985 -0.4390
18642TIP3    H277418   2.047   5.044  11.848  1.1378 -0.5393 -0.5330
18643TIP3   OH277419   5.390   1.478  16.758 -0.4811 -0.2591  0.2457
18643TIP3    H177420   5.322   1.542  16.779 -0.8036 -0.0536 -1.3095
18643TIP3    H277421   5.456   1.492  16.825 -0.5784  1.6744  0.0232
18644TIP3   OH277422   4.361   1.615   5.578 -0.6020 -0.4069 -0.0053
18644TIP3    H177423   4.269   1.641   5.583 -1.0126 -1.6237 -0.7146
18644TIP3    H277424   4.384   1.592   5.668 -1.6223 -2.0045 -0.0983
18645TIP3   OH277425   4.580   2.095   6.157  0.1738  0.2363 -0.2200
18645TIP3    H177426   4.664   2.134   6.181  0.1215 -0.8779  2.0237
18645TIP3    H277427   4.600   2.036   6.084  1.5590 -0.6698  0.8386
18646TIP3   OH277428   5.543   6.783  13.303  0.9462 -0.2537 -0.1644
18646TIP3    H177429   5.483   6.732  13.249  0.8458 -0.0347 -0.2571
18646TIP3    H277430   5.530   6.874  13.276  0.4145 -0.0649  0.6875
18647TIP3   OH277431   4.564   1.287   0.708  0.1901 -0.1073 -0.0913
18647TIP3    H177432   4.549   1.212   0.766  0.3650 -0.1425 -0.0915
18647TIP3    H277433   4.482   1.295   0.658 -0.6836  1.0530  1.4288
18648TIP3   OH277434   5.734   3.705  13.543 -0.5820 -0.5254 -0.3992
18648TIP3    H177435   5.761   3.761  13.470  0.3702 -0.9118 -0.3603
18648TIP3    H277436   5.678   3.761  13.597  0.7229  0.5665 -0.1103
18649TIP3   OH277437   3.729   2.896   1.201  0.4819  1.0609  0.0151
18649TIP3    H177438   3.775   2.862   1.277  2.8971  3.9322  0.0350
18649TIP3    H277439   3.793   2.895   1.131 -1.2456 -0.1267 -1.6335
18650TIP3   OH277440   6.846   3.396   1.002 -0.2554  0.3113 -0.6446
18650TIP3    H177441   6.883   3.311   1.027  0.9817  0.5305 -1.6275
18650TIP3    H277442   6.752   3.381   0.999  0.0106 -1.4700 -2.3054
18651TIP3   OH277443   6.199   1.444   5.587  0.3861  0.5103 -0.5016
18651TIP3    H177444   6.249   1.525   5.595 -0.7717  1.3823 -1.6977
18651TIP3    H277445   6.114   1.464   5.626  0.4766 -0.5234  0.2761
18652TIP3   OH277446   5.959   2.971   0.336  0.1167 -0.3115 -0.4897
18652TIP3    H177447   6.003   3.012   0.261  0.6417 -0.5784 -0.3362
18652TIP3    H277448   6.010   2.891   0.353 -0.8898 -1.0413 -0.7914
18653TIP3   OH277449   1.213   5.731  16.321 -0.1576 -0.0663  0.0374
18653TIP3    H177450   1.248   5.745  16.233 -0.1742 -1.8304 -0.2832
18653TIP3    H277451   1.246   5.645  16.347  0.5052  0.7411  2.1085
18654TIP3   OH277452   1.182   3.617  15.445 -0.0948 -0.3542  0.3506
18654TIP3    H177453   1.166   3.706  15.414  0.4566 -0.9787 -1.8921
18654TIP3    H277454   1.167   3.621  15.540 -0.4423  2.0169  0.2396
18655TIP3   OH277455   6.432   4.518   3.640  0.2066  0.2647 -0.0650
18655TIP3    H177456   6.360   4.559   3.592  0.7811 -1.2989 -2.4354
18655TIP3    H277457   6.399   4.432   3.666  1.4608 -0.9019 -2.1023
18656TIP3   OH277458   2.241   4.089   3.535 -0.6172  0.3579  0.1796
18656TIP3    H177459   2.306   4.030   3.496  0.8125  1.8084  0.2467
18656TIP3    H277460   2.157   4.059   3.500  0.1570 -1.1319 -0.4830
18657TIP3   OH277461   1.469   3.609   0.343 -0.4718 -0.2235  0.6014
18657TIP3    H177462   1.562   3.586   0.335 -0.1876  1.1994 -0.7707
18657TIP3    H277463   1.468   3.704   0.347 -1.7856 -0.2580  2.6910
18658TIP3   OH277464   1.039   2.574   2.059  0.3202 -0.0535 -0.6461
18658TIP3    H177465   1.109   2.625   2.016 -0.6029  1.2540 -0.6623
18658TIP3    H277466   0.958   2.608   2.021 -0.4190 -0.3486  0.6037
18659TIP3   OH277467   4.553   1.604  11.290  0.1007  0.4019 -0.2036
18659TIP3    H177468   4.476   1.569  11.245  1.1628 -0.1617 -1.6935
18659TIP3    H277469   4.530   1.603  11.382 -1.9020  0.8551 -0.6503
18660TIP3   OH277470   1.705   6.189   4.883  0.3476  0.2483  0.9859
18660TIP3    H177471   1.729   6.211   4.973  0.3833 -1.2197  1.3533
18660TIP3    H277472   1.623   6.139   4.891 -0.8009  1.8520  0.0318
18661TIP3   OH277473   1.127   6.191  15.532 -0.0538 -0.4065 -0.2747
18661TIP3    H177474   1.061   6.221  15.594  1.1191  1.9703 -0.0897
18661TIP3    H277475   1.120   6.095  15.535 -0.7302 -0.3640  2.7561
18662TIP3   OH277476   3.493   2.810  13.903 -0.1218 -0.0976  0.2045
18662TIP3    H177477   3.492   2.903  13.927  0.4158  0.3343 -1.3206
18662TIP3    H277478   3.580   2.796  13.866 -0.2515 -1.1812  0.2888
18663TIP3   OH277479   1.796   5.262  16.375 -0.5366 -0.4189 -0.3937
18663TIP3    H177480   1.745   5.185  16.402  0.4914 -0.5876  1.1302
18663TIP3    H277481   1.729   5.327  16.351 -1.5427 -0.3826  2.2198
18664TIP3   OH277482   5.577   0.851   4.038  0.5221 -0.3865 -0.0206
18664TIP3    H177483   5.660   0.808   4.054 -0.0237 -1.6382 -0.4067
18664TIP3    H277484   5.559   0.834   3.945  1.1342  2.2234 -0.6935
18665TIP3   OH277485   0.247   2.391   4.006  0.5711 -0.3943  0.5625
18665TIP3    H177486   0.225   2.303   3.979 -0.0991  0.5505 -2.2534
18665TIP3    H277487   0.340   2.400   3.985  0.3541 -0.0680 -0.2871
18666TIP3   OH277488   5.338   1.605  16.138 -0.6126  0.0646 -0.4525
18666TIP3    H177489   5.357   1.667  16.067 -2.0040 -0.9822 -1.7961
18666TIP3    H277490   5.263   1.644  16.183  0.0099  0.5199  0.2121
18667TIP3   OH277491   1.096   6.456  12.362  0.2273  0.7443  0.1505
18667TIP3    H177492   1.159   6.385  12.378  0.1926  0.7678  0.3950
18667TIP3    H277493   1.016   6.412  12.334  0.0577  0.6561  0.7588
18668TIP3   OH277494   0.796   4.260  15.720 -0.0007  0.6860  0.1100
18668TIP3    H177495   0.754   4.344  15.743 -1.1103  0.6495 -1.5982
18668TIP3    H277496   0.795   4.259  15.625 -1.1576 -1.8342  0.0894
18669TIP3   OH277497   3.734   6.016  16.298 -0.1457 -0.2281  0.5347
18669TIP3    H177498   3.800   5.974  16.243 -1.1157 -0.8500 -0.2003
18669TIP3    H277499   3.671   6.054  16.236  0.7086  2.4243  1.1682
18670TIP3   OH277500   5.098   1.356  14.950  0.2497 -0.0180  0.2340
18670TIP3    H177501   5.101   1.309  15.033  1.2157  0.9673  0.7780
18670TIP3    H277502   5.058   1.294  14.889  0.1592 -1.0057  1.2628
18671TIP3   OH277503   5.133   4.153   4.380 -0.5322  0.2601  0.0136
18671TIP3    H177504   5.042   4.152   4.352 -0.4668  0.7848 -0.2186
18671TIP3    H277505   5.170   4.232   4.341  0.0671 -0.0325 -0.0322
18672TIP3   OH277506   0.918   0.136  16.958 -0.5754  0.0004 -0.3737
18672TIP3    H177507   0.908   0.226  16.988 -2.9979  0.3263 -1.8665
18672TIP3    H277508   0.979   0.141  16.885  0.9204  0.0504  0.8252
18673TIP3   OH277509   5.419   5.647   0.861  0.3618  0.4555  0.1046
18673TIP3    H177510   5.446   5.641   0.769  0.8885  0.6175  0.2465
18673TIP3    H277511   5.388   5.737   0.870  1.3986  0.7906  0.3753
18674TIP3   OH277512   1.639   5.232  16.722 -0.4699 -0.1691 -0.4888
18674TIP3    H177513   1.606   5.230  16.812 -1.5040 -0.6499 -0.8588
18674TIP3    H277514   1.578   5.289  16.675  0.4192  0.5732 -0.7653
18675TIP3   OH277515   1.785   6.606  13.318  0.1923  0.2376  0.6070
18675TIP3    H177516   1.727   6.652  13.379  1.3120  1.0555  1.0876
18675TIP3    H277517   1.803   6.523  13.361  0.5945  0.6136  1.1794
18676TIP3   OH277518   2.981   5.079  15.785 -0.1972 -0.2050 -0.3407
18676TIP3    H177519   3.039   5.104  15.712  1.0165 -1.0894  0.2750
18676TIP3    H277520   3.027   5.110  15.863  0.0149 -1.9014  0.2379
18677TIP3   OH277521   5.714   6.461   1.155  0.4676  0.3277  0.4172
18677TIP3    H177522   5.751   6.382   1.116 -1.3900 -0.9241  1.0817
18677TIP3    H277523   5.704   6.521   1.082  1.1350 -0.3459 -0.2497
18678TIP3   OH277524   6.019   2.213  11.223 -0.1334  0.0956 -0.6999
18678TIP3    H177525   6.060   2.128  11.238 -1.6230 -0.5455 -0.0720
18678TIP3    H277526   6.002   2.215  11.129 -2.0518 -1.2634 -0.4246
18679TIP3   OH277527   0.092   1.766  15.328  0.4194  0.3366 -0.0086
18679TIP3    H177528   0.046   1.746  15.247  0.4651  2.3471 -0.5662
18679TIP3    H277529   0.072   1.692  15.386  3.0144 -2.9218 -2.8068
18680TIP3   OH277530   4.124   5.638   6.648 -0.0304  0.3465 -0.2424
18680TIP3    H177531   4.177   5.587   6.587 -3.1620 -1.2020 -1.8672
18680TIP3    H277532   4.131   5.728   6.617  1.6043  0.2283 -0.3401
18681TIP3   OH277533   5.675   3.666  12.964  0.1666  0.4116 -0.2555
18681TIP3    H177534   5.713   3.617  13.038 -1.0422  0.9814  0.7836
18681TIP3    H277535   5.608   3.608  12.929  0.7468  0.1385 -0.9375
18682TIP3   OH277536   2.025   3.187  13.919 -0.3171  0.3327 -0.3008
18682TIP3    H177537   2.091   3.256  13.914  1.3373 -1.1496  0.3787
18682TIP3    H277538   2.055   3.120  13.857 -0.0251 -1.2706  1.4899
18683TIP3   OH277539   5.155   2.987   1.013 -0.2611 -0.2966  0.2588
18683TIP3    H177540   5.136   2.911   0.958  1.5134 -0.1719 -0.5969
18683TIP3    H277541   5.074   3.001   1.062 -2.2326 -0.0425 -2.7391
18684TIP3   OH277542   3.541   0.188   2.135  0.7054  0.2948  0.4183
18684TIP3    H177543   3.514   0.174   2.225  1.6467 -0.6719  0.5736
18684TIP3    H277544   3.581   0.105   2.108  0.4931  0.5798 -0.8708
18685TIP3   OH277545   2.841   4.085  15.913 -0.0440 -0.7619 -0.1656
18685TIP3    H177546   2.750   4.079  15.883  0.1611 -1.9050 -0.6288
18685TIP3    H277547   2.836   4.129  15.997 -0.9448 -0.1094 -0.5395
18686TIP3   OH277548   5.799   6.554   2.126 -0.2502  0.0207 -0.1677
18686TIP3    H177549   5.851   6.479   2.096  0.3090  0.1937  0.3559
18686TIP3    H277550   5.793   6.611   2.049  1.1757  0.4661  0.0150
18687TIP3   OH277551   2.205   4.990  15.633 -0.0071  0.0233 -0.2016
18687TIP3    H177552   2.231   5.027  15.549 -0.8844 -1.5026 -1.2133
18687TIP3    H277553   2.282   5.000  15.689  0.6431  0.9599 -1.2163
18688TIP3   OH277554   6.436   4.334  11.914  0.2271  0.1889  0.4821
18688TIP3    H177555   6.525   4.368  11.902  0.0020  0.4899 -0.3999
18688TIP3    H277556   6.392   4.401  11.966  0.3809  0.2582  0.5236
18689TIP3   OH277557   5.958   4.078   0.129  0.0868  0.6442 -0.4131
18689TIP3    H177558   5.928   4.138   0.197  0.2743  1.6350 -1.1851
18689TIP3    H277559   6.021   4.129   0.077  0.3643 -0.2619 -1.0001
18690TIP3   OH277560   3.708   6.036   0.025  0.5899  0.6801 -0.0468
18690TIP3    H177561   3.696   6.001   0.113  1.5496 -0.3341 -0.3017
18690TIP3    H277562   3.771   6.107   0.034  1.1197  0.2066  0.0117
18691TIP3   OH277563   0.574   4.334   2.637  0.0300 -0.1486  0.2245
18691TIP3    H177564   0.528   4.333   2.721 -0.4025  0.5980 -0.0030
18691TIP3    H277565   0.509   4.303   2.574  0.7487 -2.0327  0.3432
18692TIP3   OH277566   6.802   1.170   5.018 -0.0522  0.0936  0.1504
18692TIP3    H177567   6.716   1.205   5.041 -0.5215 -1.4044  0.7663
18692TIP3    H277568   6.790   1.130   4.932 -0.2735 -1.0574  0.6961
18693TIP3   OH277569   3.324   2.442  13.610  0.7322 -0.4419  0.3189
18693TIP3    H177570   3.363   2.522  13.576  0.5879 -0.5955 -0.2227
18693TIP3    H277571   3.389   2.374  13.594  0.9829 -0.3899  1.0545
18694TIP3   OH277572   4.993   0.897  10.777 -0.3992 -0.0218 -0.0745
18694TIP3    H177573   5.063   0.899  10.842  0.6504 -1.0141 -1.1133
18694TIP3    H277574   5.039   0.899  10.693 -1.6953  0.6409 -0.7948
18695TIP3   OH277575   2.177   0.522  16.075 -0.0901 -0.2294 -0.4337
18695TIP3    H177576   2.173   0.461  16.001 -0.9815  0.2291 -0.7895
18695TIP3    H277577   2.261   0.566  16.065  0.1642 -0.7589 -0.6939
18696TIP3   OH277578   2.585   6.487  15.468 -0.1432 -0.4714 -0.2552
18696TIP3    H177579   2.515   6.447  15.520 -1.7397  1.9759 -0.3374
18696TIP3    H277580   2.566   6.462  15.378 -2.1294  1.6376 -0.5163
18697TIP3   OH277581   1.574   2.540   3.733 -0.1341  0.6258 -0.2242
18697TIP3    H177582   1.639   2.472   3.717  0.9813  2.0638 -2.3339
18697TIP3    H277583   1.490   2.498   3.719  0.3869 -0.8239  0.7690
18698TIP3   OH277584   2.989   5.834   0.762  0.3314 -0.3206  0.1856
18698TIP3    H177585   2.941   5.781   0.698 -1.0233  0.0283  0.8615
18698TIP3    H277586   3.079   5.803   0.757  0.1725 -0.5867 -1.5811
18699TIP3   OH277587   3.887   4.159   6.621  0.0416  0.7969  0.2510
18699TIP3    H177588   3.915   4.068   6.623  0.9649  1.0811  0.4275
18699TIP3    H277589   3.962   4.207   6.588 -0.0390  1.6269  1.2202
18700TIP3   OH277590   3.318   3.072   6.227  0.4075  0.2390  0.3409
18700TIP3    H177591   3.357   3.019   6.296  1.3764 -0.8270 -0.9642
18700TIP3    H277592   3.393   3.104   6.177 -0.1867  2.3589  0.7082
18701TIP3   OH277593   2.003   2.644  14.772  0.4855 -0.0822  0.4161
18701TIP3    H177594   2.005   2.734  14.737  1.4014  0.6193  2.1425
18701TIP3    H277595   2.020   2.655  14.865 -1.6737 -1.8966  1.0891
18702TIP3   OH277596   4.279   1.659   2.055 -0.4564  0.2342 -0.6702
18702TIP3    H177597   4.282   1.570   2.092  1.2129  0.4400 -0.2348
18702TIP3    H277598   4.251   1.714   2.128  1.7861  0.4894  0.0705
18703TIP3   OH277599   3.660   0.485   1.479 -0.1566  0.0195  0.3416
18703TIP3    H177600   3.712   0.497   1.400  0.1216  0.0360  0.5231
18703TIP3    H277601   3.590   0.425   1.454  2.1689 -3.2683  1.0223
18704TIP3   OH277602   1.383   4.576   1.564 -0.5637 -0.1842 -0.3750
18704TIP3    H177603   1.299   4.616   1.587 -1.2502 -1.2455 -0.9359
18704TIP3    H277604   1.384   4.492   1.610  1.1875  0.7159  1.3808
18705TIP3   OH277605   1.040   3.592  10.546  0.3890  0.1573 -0.1147
18705TIP3    H177606   1.085   3.561  10.625 -0.2921 -0.6069 -0.0189
18705TIP3    H277607   0.982   3.661  10.577  0.3351  0.0581  0.0052
18706TIP3   OH277608   0.074   6.516  15.714  0.2560 -0.2856  0.2024
18706TIP3    H177609   0.090   6.462  15.637  2.0512  0.3554  0.0652
18706TIP3    H277610   0.138   6.588  15.706 -0.4149  0.5081  1.6106
18707TIP3   OH277611   1.063   6.597   0.203 -0.0601  0.4421 -0.3662
18707TIP3    H177612   0.979   6.597   0.249  0.2411 -0.1543  0.2099
18707TIP3    H277613   1.090   6.689   0.201 -0.8659  0.6789 -0.8293
18708TIP3   OH277614   0.758   0.725   0.347  0.1526  0.0343  0.3422
18708TIP3    H177615   0.713   0.748   0.266  1.4992 -0.3794 -0.5453
18708TIP3    H277616   0.713   0.646   0.378 -1.5030  1.1652  0.9669
18709TIP3   OH277617   0.629   2.382  13.851 -0.3918  0.2068 -0.1695
18709TIP3    H177618   0.653   2.365  13.942 -3.3575  0.8624  0.8376
18709TIP3    H277619   0.563   2.316  13.831  0.1688  0.1208 -1.8399
18710TIP3   OH277620   5.029   2.569  13.578 -0.3897  0.4032  0.2674
18710TIP3    H177621   5.044   2.513  13.654  0.9144 -0.0615 -0.2998
18710TIP3    H277622   5.099   2.546  13.517 -0.6678  1.6584 -0.5654
18711TIP3   OH277623   3.461   3.391   1.399  0.8351 -0.2541 -0.5526
18711TIP3    H177624   3.452   3.456   1.329  0.0738 -0.9235 -1.0826
18711TIP3    H277625   3.459   3.307   1.354  2.9383 -0.6612  0.0039
18712TIP3   OH277626   5.042   0.706  11.658  0.2665 -0.5273 -0.0426
18712TIP3    H177627   5.043   0.684  11.751  0.1259  2.8919  0.8890
18712TIP3    H277628   4.963   0.665  11.624  2.2704 -5.2742  0.2106
18713TIP3   OH277629   0.293   2.182  12.463 -0.2075  0.4439  0.2008
18713TIP3    H177630   0.257   2.120  12.527 -2.0915  0.6415 -0.6167
18713TIP3    H277631   0.299   2.265  12.511 -2.6937  0.8830 -0.0984
18714TIP3   OH277632   6.099   1.941  16.312 -0.2560 -0.0948  0.1637
18714TIP3    H177633   6.158   1.981  16.376  2.7471 -2.7626 -0.6734
18714TIP3    H277634   6.128   1.975  16.227 -2.3554  1.2374 -0.1023
18715TIP3   OH277635   6.107   2.305   4.199 -0.1077  0.1976  0.5566
18715TIP3    H177636   6.032   2.325   4.255  0.2789 -0.5948  1.3923
18715TIP3    H277637   6.117   2.210   4.207  0.8102  0.2622  0.2434
18716TIP3   OH277638   2.765   6.666   2.149  0.0878 -0.8055  0.9754
18716TIP3    H177639   2.825   6.624   2.088 -1.5241 -4.3584  1.5843
18716TIP3    H277640   2.820   6.722   2.203  2.1313 -0.6055 -1.1767
18717TIP3   OH277641   0.226   6.332   2.643 -0.0867  0.0894  0.3329
18717TIP3    H177642   0.299   6.277   2.674 -1.7371 -2.1322  0.5106
18717TIP3    H277643   0.232   6.328   2.547  0.2314  0.2074  0.3466
18718TIP3   OH277644   2.959   1.658   0.274  0.0945 -0.1828  0.0508
18718TIP3    H177645   2.898   1.628   0.207 -1.1347 -0.3880  1.2142
18718TIP3    H277646   3.018   1.718   0.228 -1.0402  0.0895 -1.0920
18719TIP3   OH277647   2.947   5.081   1.140 -0.1996  0.6289 -0.4000
18719TIP3    H177648   2.899   5.030   1.205  0.4720 -1.8668 -1.7619
18719TIP3    H277649   2.961   5.021   1.067  3.1820  1.8541 -0.9263
18720TIP3   OH277650   1.480   0.346   4.539  0.1061  0.6005 -0.0144
18720TIP3    H177651   1.456   0.438   4.543 -0.2171  0.5004  0.4081
18720TIP3    H277652   1.532   0.338   4.459 -0.7003  0.9589 -0.5822
18721TIP3   OH277653   4.824   5.408  11.678 -0.0572  1.0928  0.5523
18721TIP3    H177654   4.871   5.360  11.746 -0.1290 -0.9596 -0.7792
18721TIP3    H277655   4.749   5.446  11.723  0.4418  0.6386  1.8139
18722TIP3   OH277656   5.859   3.000  11.974  0.9210  0.2443 -0.1479
18722TIP3    H177657   5.852   2.909  11.944 -0.6598  0.5846 -0.9065
18722TIP3    H277658   5.769   3.032  11.976  1.5554  2.6771 -2.7080
18723TIP3   OH277659   2.225   0.845   4.107 -0.7133  0.0635 -0.3309
18723TIP3    H177660   2.300   0.841   4.166 -0.2222  0.6174 -0.9071
18723TIP3    H277661   2.235   0.929   4.062 -1.8448  0.2796 -0.2024
18724TIP3   OH277662   3.186   1.123   1.922 -0.7217 -0.1627  0.2383
18724TIP3    H177663   3.113   1.080   1.878  0.7048 -0.2875 -2.1661
18724TIP3    H277664   3.246   1.051   1.945  1.3200  0.2500 -3.1244
18725TIP3   OH277665   3.708   5.918   5.510  0.3610 -0.2838 -0.0677
18725TIP3    H177666   3.684   5.890   5.598  2.8165 -0.0967  0.7392
18725TIP3    H277667   3.749   6.004   5.522 -0.1203  0.1846 -1.5260
18726TIP3   OH277668   4.789   3.709  16.185  0.4175  0.1268 -0.0134
18726TIP3    H177669   4.862   3.742  16.133 -1.6351  0.5644 -2.7956
18726TIP3    H277670   4.811   3.617  16.200  2.1298  0.5639  0.4119
18727TIP3   OH277671   2.345   3.137   2.364  0.1674 -0.1472  0.6777
18727TIP3    H177672   2.363   3.046   2.341  0.2882 -0.3070  1.3559
18727TIP3    H277673   2.285   3.168   2.296  1.1398 -0.3346 -0.2862
18728TIP3   OH277674   5.691   2.592   1.335  0.1917 -0.1598 -0.2168
18728TIP3    H177675   5.598   2.568   1.331  0.2974 -0.4890 -0.8573
18728TIP3    H277676   5.731   2.523   1.387  0.5279 -1.5691 -2.2129
18729TIP3   OH277677   6.336   0.523   1.029 -0.2090  0.3650 -0.3343
18729TIP3    H177678   6.412   0.502   0.974 -0.3054 -1.0217  0.0458
18729TIP3    H277679   6.370   0.521   1.118 -0.7139 -0.3888 -0.1537
18730TIP3   OH277680   3.170   0.761  13.890 -0.5443  0.0005  0.3132
18730TIP3    H177681   3.224   0.835  13.920  1.6461 -1.8360  1.2371
18730TIP3    H277682   3.104   0.750  13.959 -1.2458  1.3876 -0.1047
18731TIP3   OH277683   4.889   4.630   3.371 -0.4693 -0.3548 -0.0257
18731TIP3    H177684   4.922   4.710   3.330 -1.8229  0.2414  0.0139
18731TIP3    H277685   4.891   4.565   3.300  2.1361 -0.7842  0.3271
18732TIP3   OH277686   0.268   6.369  14.351 -0.1490 -0.2489 -0.4173
18732TIP3    H177687   0.322   6.370  14.429 -0.6522  0.2370 -0.0664
18732TIP3    H277688   0.330   6.364  14.278  0.3610  0.2815 -0.0239
18733TIP3   OH277689   0.545   1.982  13.816  0.2698  1.1941  0.5080
18733TIP3    H177690   0.468   1.948  13.769 -0.3762  1.0200  1.6560
18733TIP3    H277691   0.599   2.022  13.747 -0.0108 -0.1980 -0.5685
18734TIP3   OH277692   5.142   1.175   4.728 -0.0154  0.2631 -0.0487
18734TIP3    H177693   5.170   1.083   4.731  0.1715  0.3284  0.1850
18734TIP3    H277694   5.190   1.217   4.799 -0.6989  0.3800  0.3470
18735TIP3   OH277695   2.004   1.600  12.208  0.4445 -0.0517  0.4535
18735TIP3    H177696   1.976   1.517  12.247  1.6147 -0.9224 -0.4841
18735TIP3    H277697   2.093   1.613  12.241 -0.1781  1.5557  1.6609
18736TIP3   OH277698   6.154   0.267   2.875  0.0936 -0.4896 -0.1252
18736TIP3    H177699   6.128   0.182   2.841 -0.8239 -0.7470  1.1331
18736TIP3    H277700   6.122   0.268   2.965  3.1071 -0.1752  1.0640
18737TIP3   OH277701   6.319   0.802  11.570  0.3476  0.2496 -0.2878
18737TIP3    H177702   6.404   0.845  11.575  0.1352  0.7708 -0.9927
18737TIP3    H277703   6.258   0.870  11.543 -0.8093  0.5027  2.5868
18738TIP3   OH277704   5.532   3.398  15.191  0.1998 -0.1951  0.0125
18738TIP3    H177705   5.571   3.464  15.133  1.0563  0.1066  0.8976
18738TIP3    H277706   5.593   3.324  15.187 -0.9875 -1.1583 -1.3322
18739TIP3   OH277707   4.775   0.776  10.634  0.0285  0.6349 -0.6377
18739TIP3    H177708   4.856   0.790  10.683  0.6674  0.4341 -1.6165
18739TIP3    H277709   4.785   0.831  10.556 -0.5734  0.2456 -0.9908
18740TIP3   OH277710   0.142   3.790   3.479 -0.6398 -0.2619 -0.5127
18740TIP3    H177711   0.096   3.739   3.413 -1.9946  1.7791 -1.2323
18740TIP3    H277712   0.102   3.763   3.562 -2.1221  0.3549 -0.9881
18741TIP3   OH277713   1.876   3.227  14.154  0.0749 -0.2726 -0.1393
18741TIP3    H177714   1.932   3.201  14.226 -1.5063 -0.7738  0.9727
18741TIP3    H277715   1.931   3.219  14.076  1.5450 -0.6175  0.8983
18742TIP3   OH277716   2.010   0.280  12.672 -0.0955 -0.3337 -0.0742
18742TIP3    H177717   2.004   0.375  12.666 -1.5338 -0.4713 -2.6985
18742TIP3    H277718   1.936   0.255  12.727  1.1350  0.0931  1.8337
18743TIP3   OH277719   3.443   5.250   2.381  0.1994  0.1512 -0.1337
18743TIP3    H177720   3.465   5.225   2.291 -0.6202 -0.4084 -0.1915
18743TIP3    H277721   3.479   5.179   2.435  0.6675  0.4732 -0.0169
18744TIP3   OH277722   5.271   4.934  14.170 -0.5043  0.2525  0.1363
18744TIP3    H177723   5.245   4.913  14.259  0.2225  1.2609  0.6050
18744TIP3    H277724   5.337   4.869  14.147  0.0578  0.6150  0.7194
18745TIP3   OH277725   2.091   0.873   5.434  0.7744  0.0401  0.5933
18745TIP3    H177726   2.108   0.823   5.355  0.9616  0.2105  0.5224
18745TIP3    H277727   2.009   0.839   5.468  0.0535  0.7930 -0.3349
18746TIP3   OH277728   2.256   3.315   2.552  0.3932 -0.2297 -0.3504
18746TIP3    H177729   2.252   3.388   2.491 -0.6104 -0.2111 -0.2849
18746TIP3    H277730   2.281   3.240   2.498 -1.2435 -0.3701 -0.9637
18747TIP3   OH277731   2.525   6.689   3.689  0.0544  0.0248  0.3327
18747TIP3    H177732   2.538   6.784   3.689  0.1551  0.0633  2.3899
18747TIP3    H277733   2.443   6.676   3.642  0.1147  1.1121 -0.1106
18748TIP3   OH277734   4.061   3.104  14.333  0.4977  0.1315 -0.2135
18748TIP3    H177735   4.049   3.185  14.283 -2.5021 -0.2197 -0.2688
18748TIP3    H277736   4.066   3.036  14.266 -0.6939 -0.0468 -0.1524
18749TIP3   OH277737   3.511   1.553   1.239  0.0120  0.0273 -0.1483
18749TIP3    H177738   3.528   1.509   1.156 -1.2458  1.9176 -1.5141
18749TIP3    H277739   3.562   1.634   1.234 -0.7245  0.5540  0.5554
18750TIP3   OH277740   2.063   5.074   2.690 -0.0379  0.3666  0.3504
18750TIP3    H177741   2.029   4.987   2.672  1.7819 -0.3056 -0.1303
18750TIP3    H277742   2.067   5.116   2.604 -0.8074  0.8893  0.5657
18751TIP3   OH277743   1.179   1.459  15.333 -0.3993 -0.0884  0.6273
18751TIP3    H177744   1.177   1.397  15.260 -0.0604  0.4313  0.1779
18751TIP3    H277745   1.246   1.424  15.392  0.0994  0.0772  0.1659
18752TIP3   OH277746   2.457   2.370   4.538 -0.0821  0.3160  0.2374
18752TIP3    H177747   2.520   2.372   4.609 -0.0006  1.6929  0.1615
18752TIP3    H277748   2.446   2.462   4.513 -1.4524  0.0320 -0.3346
18753TIP3   OH277749   5.606   0.689   2.676  0.0918  0.5805 -0.1253
18753TIP3    H177750   5.530   0.636   2.649  0.0655  0.3089  0.4697
18753TIP3    H277751   5.675   0.662   2.616 -0.4053  1.1864 -0.9960
18754TIP3   OH277752   5.899   1.938  12.047  0.1007 -0.3522 -0.0584
18754TIP3    H177753   5.910   1.909  11.956 -0.2566 -2.1555  0.4470
18754TIP3    H277754   5.919   2.032  12.044  1.1271 -0.5782 -1.8068
18755TIP3   OH277755   3.709   5.187   1.961 -0.2003  0.2768 -0.4763
18755TIP3    H177756   3.722   5.094   1.943 -0.3996  0.2938 -0.7224
18755TIP3    H277757   3.705   5.228   1.874  2.7573  0.9418 -0.4159
18756TIP3   OH277758   4.729   2.746   1.094 -0.0815 -0.2012 -0.2394
18756TIP3    H177759   4.688   2.829   1.118 -1.4630 -1.1083  0.6776
18756TIP3    H277760   4.690   2.723   1.009  0.2984  0.0771 -0.4916
18757TIP3   OH277761   2.223   0.424   0.755 -0.0132  0.4921  0.0292
18757TIP3    H177762   2.234   0.516   0.729  0.7808  0.7559  1.1917
18757TIP3    H277763   2.309   0.400   0.791 -0.6303 -0.2706  1.0284
18758TIP3   OH277764   0.045   4.039   0.726  0.4084 -0.3779 -0.2542
18758TIP3    H177765  -0.032   3.988   0.702 -1.3473  2.2658 -0.6168
18758TIP3    H277766   0.086   4.062   0.643 -0.8210  1.6518 -0.3499
18759TIP3   OH277767   5.508   4.282  11.553 -0.6547 -0.1778 -0.4325
18759TIP3    H177768   5.559   4.311  11.478 -1.6539 -0.9524 -1.4420
18759TIP3    H277769   5.477   4.363  11.594  1.7534  0.3456  0.5447
18760TIP3   OH277770   0.188   2.862   2.389  0.3751 -0.2066 -0.3016
18760TIP3    H177771   0.249   2.853   2.316  2.3133  0.0589  1.1927
18760TIP3    H277772   0.240   2.840   2.466 -1.2119  0.8379  1.1363
18761TIP3   OH277773   4.128   5.681  13.826 -0.1572  0.1660  0.6280
18761TIP3    H177774   4.168   5.760  13.864  0.0827  0.7851 -0.8186
18761TIP3    H277775   4.104   5.628  13.901 -0.5235  1.7200  1.6651
18762TIP3   OH277776   1.987   5.585  11.694  0.3347  0.2774  0.0374
18762TIP3    H177777   2.022   5.569  11.781 -0.5943 -0.3450  0.3159
18762TIP3    H277778   1.894   5.562  11.701 -0.2203  2.1141 -0.5849
18763TIP3   OH277779   4.853   4.186   0.742  0.0268  0.0235  0.0798
18763TIP3    H177780   4.797   4.110   0.757  0.2908 -0.1898 -0.0158
18763TIP3    H277781   4.821   4.252   0.804 -0.5385  0.0151 -0.1915
18764TIP3   OH277782   2.837   4.866   2.052  0.4018  0.1157 -0.5326
18764TIP3    H177783   2.928   4.881   2.075 -0.1630  0.9291  1.4500
18764TIP3    H277784   2.800   4.953   2.042 -0.2467 -0.1936 -0.8706
18765TIP3   OH277785   4.065   1.633   1.879 -0.0496 -0.2570 -0.3164
18765TIP3    H177786   4.138   1.658   1.936 -0.2555  1.1958 -0.6311
18765TIP3    H277787   3.986   1.660   1.927 -0.1737  2.6605 -1.9318
18766TIP3   OH277788   5.353   1.726   3.577  0.4760  0.3765 -0.5894
18766TIP3    H177789   5.287   1.778   3.623  0.5302 -1.1264  1.3199
18766TIP3    H277790   5.320   1.719   3.488 -0.9742  1.2634 -0.1581
18767TIP3   OH277791   3.262   5.859   0.234  0.3773 -0.4516  0.0395
18767TIP3    H177792   3.220   5.865   0.320 -0.1924 -2.9583  0.0125
18767TIP3    H277793   3.269   5.765   0.218  0.5801 -0.0401 -2.6274
18768TIP3   OH277794   1.189   0.520  11.732  0.2396 -0.1626  0.0294
18768TIP3    H177795   1.113   0.576  11.753  2.2037  1.9567  1.9829
18768TIP3    H277796   1.232   0.565  11.659  1.0610  0.1253  0.6806
18769TIP3   OH277797   0.573   5.299   4.532  0.2655 -0.2915 -0.0079
18769TIP3    H177798   0.627   5.283   4.609  0.7376 -0.3317 -0.3418
18769TIP3    H277799   0.538   5.213   4.510  2.5363 -0.9130 -1.6007
18770TIP3   OH277800   3.786   0.409   0.405 -0.7815  0.4632 -0.0586
18770TIP3    H177801   3.795   0.503   0.390 -0.2153  0.1235 -2.1254
18770TIP3    H277802   3.692   0.394   0.412 -0.8735  1.1738  0.2347
18771TIP3   OH277803   2.205   0.103   5.329 -0.0755 -0.6690 -0.4117
18771TIP3    H177804   2.250   0.083   5.411  3.4019  1.4953 -1.5876
18771TIP3    H277805   2.131   0.157   5.356  0.8779 -0.1509  1.3618
18772TIP3   OH277806   6.655   4.817  16.387  0.6318  0.4376 -0.0179
18772TIP3    H177807   6.611   4.901  16.375  0.9685  0.7465  0.8139
18772TIP3    H277808   6.720   4.833  16.456 -0.7065 -0.9892  1.6976
18773TIP3   OH277809   5.236   1.622  13.432 -0.4190  0.3129 -0.9380
18773TIP3    H177810   5.231   1.695  13.371  0.7327  1.1777 -0.0416
18773TIP3    H277811   5.320   1.581  13.413 -0.8336 -0.4973 -1.0912
18774TIP3   OH277812   2.927   2.487  11.227 -0.6464  0.4905  0.5538
18774TIP3    H177813   2.986   2.419  11.260  0.9089  2.1730  1.4692
18774TIP3    H277814   2.905   2.459  11.138  0.1941 -1.0241  0.7805
18775TIP3   OH277815   4.829   4.306   0.967 -0.0996  0.3003 -0.1985
18775TIP3    H177816   4.789   4.365   1.030  0.1329  0.1887  0.0537
18775TIP3    H277817   4.807   4.218   0.999  2.1956  0.1567  1.1998
18776TIP3   OH277818   0.040   2.874   1.176 -0.1322  0.3147  0.1427
18776TIP3    H177819  -0.038   2.819   1.185 -0.9847  1.1995 -1.3399
18776TIP3    H277820   0.019   2.953   1.226  0.4141 -0.0265  0.9214
18777TIP3   OH277821   6.278   0.597  15.286  0.4268  0.5762  0.2658
18777TIP3    H177822   6.201   0.540  15.286 -1.5225  2.9733  1.2988
18777TIP3    H277823   6.347   0.545  15.325 -1.5655 -0.7073  2.3181
18778TIP3   OH277824   3.250   6.489   2.340 -0.1413 -0.0471  0.1504
18778TIP3    H177825   3.221   6.399   2.329 -2.4351  0.4157  1.5414
18778TIP3    H277826   3.313   6.485   2.412 -0.1815 -0.5466  0.1628
18779TIP3   OH277827   2.820   4.026  13.603  0.4311 -0.3677  0.5672
18779TIP3    H177828   2.864   4.098  13.647  3.0065 -1.1732 -0.4941
18779TIP3    H277829   2.739   4.065  13.569  0.7765  1.4806  1.7140
18780TIP3   OH277830   1.821   6.838  16.803  0.0682  1.1676 -0.4274
18780TIP3    H177831   1.771   6.908  16.844  1.9854  2.2999  0.1244
18780TIP3    H277832   1.864   6.881  16.728 -1.6835 -0.3563 -2.4383
18781TIP3   OH277833   5.842   4.213   0.376 -0.5443  0.7973 -0.0812
18781TIP3    H177834   5.796   4.228   0.459  1.1841  0.2929  1.0454
18781TIP3    H277835   5.915   4.155   0.400 -0.8504 -0.5851 -2.2621
18782TIP3   OH277836   5.198   3.732  12.271  0.3158  0.1226  0.7565
18782TIP3    H177837   5.284   3.705  12.303  0.3708  0.1610  0.6418
18782TIP3    H277838   5.159   3.651  12.238  0.5083  0.1926  0.3520
18783TIP3   OH277839   5.936   2.583  15.621  0.1789  0.2390  0.1838
18783TIP3    H177840   5.950   2.497  15.583  0.5142  0.4629 -0.2111
18783TIP3    H277841   5.961   2.645  15.552 -2.2851  0.6919 -0.3861
18784TIP3   OH277842   0.760   0.629  11.623 -0.4576  0.1888  0.3070
18784TIP3    H177843   0.741   0.540  11.650 -0.1921  0.4212  1.3017
18784TIP3    H277844   0.769   0.624  11.528  0.8577 -1.0872  0.4649
18785TIP3   OH277845   0.081   5.923  12.124 -0.0055 -0.4245 -0.3388
18785TIP3    H177846   0.131   5.842  12.120 -0.1036 -0.6275  1.5259
18785TIP3    H277847   0.143   5.991  12.099  0.2199 -1.0107 -1.4183
18786TIP3   OH277848   2.824   1.101  14.637  0.1181 -0.3941 -0.2637
18786TIP3    H177849   2.915   1.129  14.629 -0.5995  2.3720  0.4505
18786TIP3    H277850   2.819   1.023  14.582  3.0602 -1.0733  0.2389
18787TIP3   OH277851   4.498   3.673  13.285  0.1500  0.1681  0.2718
18787TIP3    H177852   4.575   3.698  13.337  0.9680  0.0293 -0.8330
18787TIP3    H277853   4.442   3.750  13.287  1.1141  0.9008 -0.3309
18788TIP3   OH277854   3.650   3.492   3.519 -0.0069  0.0338 -0.0772
18788TIP3    H177855   3.567   3.465   3.559 -0.1240  0.4135 -0.0612
18788TIP3    H277856   3.697   3.410   3.504 -1.4451 -0.4660 -2.4602
18789TIP3   OH277857   4.240   4.763  13.717  0.5678  0.2149  0.0813
18789TIP3    H177858   4.330   4.736  13.734  0.6309  0.9881  1.0483
18789TIP3    H277859   4.247   4.832  13.650  0.5938 -0.4628 -0.6290
18790TIP3   OH277860   3.891   2.071   0.139 -0.6614  0.0862 -0.3829
18790TIP3    H177861   3.903   1.976   0.130 -1.3136  0.0466 -0.8682
18790TIP3    H277862   3.933   2.107   0.061 -0.0541  0.2299  0.0052
18791TIP3   OH277863   1.662   1.079  10.393  0.5036  0.2856 -0.1921
18791TIP3    H177864   1.590   1.053  10.335  0.4437  0.7536 -0.3288
18791TIP3    H277865   1.624   1.148  10.448  1.4323  2.0223 -1.6493
18792TIP3   OH277866   3.993   5.720   1.409 -0.1180  0.4116 -0.0853
18792TIP3    H177867   3.985   5.784   1.480 -1.4045  0.4125 -0.1985
18792TIP3    H277868   3.919   5.740   1.351  0.4374 -0.1145 -0.9998
18793TIP3   OH277869   2.607   6.172   2.080 -0.2375  0.8863  0.7946
18793TIP3    H177870   2.593   6.241   2.015  1.1130 -1.3554 -2.1309
18793TIP3    H277871   2.695   6.190   2.114  0.1524  0.5858 -0.0318
18794TIP3   OH277872   4.330   4.004  14.609  0.2162 -0.0313  0.4022
18794TIP3    H177873   4.307   3.911  14.605  1.9303 -0.4779 -0.0243
18794TIP3    H277874   4.286   4.036  14.687 -1.2414 -0.9535 -0.0127
18795TIP3   OH277875   0.421   3.371   2.210  0.4173 -0.0961 -0.1857
18795TIP3    H177876   0.497   3.426   2.232 -0.4203  0.6167  1.0942
18795TIP3    H277877   0.446   3.283   2.238 -0.8155  0.8251  4.7643
18796TIP3   OH277878   4.044   3.922  16.366  0.0477 -0.3036 -0.1844
18796TIP3    H177879   4.015   3.894  16.280  0.0169 -3.5108  0.7449
18796TIP3    H277880   3.964   3.942  16.414 -0.0512 -0.3407 -0.3362
18797TIP3   OH277881   4.441   4.991   5.660 -0.2861 -0.5108 -0.1838
18797TIP3    H177882   4.526   4.995   5.617  0.9408 -1.2432  2.0564
18797TIP3    H277883   4.440   5.068   5.718 -0.1459 -1.7094  1.4745
18798TIP3   OH277884   1.309   3.286   5.429  1.1415 -0.4487 -0.5989
18798TIP3    H177885   1.398   3.297   5.396  1.4060 -0.5798  0.0483
18798TIP3    H277886   1.257   3.348   5.380  1.4867 -0.7791 -1.3961
18799TIP3   OH277887   0.541   6.658   0.320 -0.3572 -0.0065  1.1537
18799TIP3    H177888   0.455   6.675   0.357 -1.1570  0.9952 -1.0146
18799TIP3    H277889   0.555   6.728   0.257  1.2002 -1.2158  0.0680
18800TIP3   OH277890   4.016   5.345   2.627  0.2623  0.1105  0.3314
18800TIP3    H177891   4.070   5.287   2.575  0.2597  1.1428 -0.8694
18800TIP3    H277892   3.926   5.314   2.614  0.4812 -1.4431  2.1195
18801TIP3   OH277893   1.874   2.673   5.158 -0.2029  0.3187 -0.3124
18801TIP3    H177894   1.942   2.724   5.114 -1.5359  1.5557 -0.9952
18801TIP3    H277895   1.914   2.648   5.242  1.2516  0.5939 -0.8946
18802TIP3   OH277896   5.831   1.880   1.743  0.2685 -0.8868  0.2401
18802TIP3    H177897   5.851   1.808   1.683  0.6418 -0.9278  0.4096
18802TIP3    H277898   5.781   1.942   1.690 -0.3507 -1.4209  0.1827
18803TIP3   OH277899   1.313   1.648   5.383 -0.4121  0.1442  0.0616
18803TIP3    H177900   1.255   1.720   5.359  0.3863  0.5634 -0.6874
18803TIP3    H277901   1.304   1.585   5.311 -0.3504 -0.0501  0.2215
18804TIP3   OH277902   3.779   2.570  14.080  0.7018  0.9098  0.3780
18804TIP3    H177903   3.722   2.495  14.062  1.2944 -0.0061  2.0327
18804TIP3    H277904   3.769   2.627  14.004 -0.5282 -0.3804 -0.4835
18805TIP3   OH277905   4.043   6.744   3.602  0.5452 -0.0037  0.9083
18805TIP3    H177906   4.056   6.791   3.684  2.5165  2.1983 -0.5358
18805TIP3    H277907   4.130   6.712   3.578 -0.2066 -1.6845  0.2590
18806TIP3   OH277908   5.582   5.844  12.656 -0.2549  0.3267 -0.2170
18806TIP3    H177909   5.511   5.874  12.599 -1.1436 -0.9512  0.1442
18806TIP3    H277910   5.540   5.835  12.742  0.4604 -0.0091  0.1018
18807TIP3   OH277911   1.528   3.820   2.633 -0.3407 -0.7669 -0.0977
18807TIP3    H177912   1.576   3.739   2.649 -2.3127 -1.7621  1.3267
18807TIP3    H277913   1.437   3.797   2.651 -1.3215  1.1471 -2.1305
18808TIP3   OH277914   1.915   5.236   2.919  0.4027 -0.0932 -0.3366
18808TIP3    H177915   1.929   5.179   2.844  0.7423 -0.7001  0.1754
18808TIP3    H277916   1.886   5.319   2.882 -2.0640 -1.1638 -1.0344
18809TIP3   OH277917   5.660   2.109   6.108 -0.1043  0.0312 -0.0790
18809TIP3    H177918   5.647   2.183   6.049 -0.5441  0.0224  0.0022
18809TIP3    H277919   5.644   2.032   6.053 -3.0864  0.0489  0.6017
18810TIP3   OH277920   0.321   3.963  15.344  0.2818 -0.5498 -0.1280
18810TIP3    H177921   0.352   3.882  15.302 -0.8025 -1.1058  0.1217
18810TIP3    H277922   0.252   3.934  15.403  0.9619  0.3797  1.1548
18811TIP3   OH277923   6.202   1.145   1.916  0.2799  0.2984 -0.3607
18811TIP3    H177924   6.165   1.218   1.867  1.6879  0.7435 -0.8004
18811TIP3    H277925   6.223   1.182   2.002 -1.1492 -0.2041  0.2430
18812TIP3   OH277926   2.356   4.673  11.290  0.6296 -0.3375  0.0875
18812TIP3    H177927   2.318   4.747  11.337 -1.4488 -0.2842 -1.5130
18812TIP3    H277928   2.431   4.647  11.343 -0.7425  0.5679  2.6717
18813TIP3   OH277929   3.264   1.863   0.996 -0.1212 -0.6123  0.2021
18813TIP3    H177930   3.202   1.926   0.959 -0.1003 -0.3598  0.5994
18813TIP3    H277931   3.339   1.865   0.935  0.2233  0.3407  0.6444
18814TIP3   OH277932   0.979   0.254  11.928 -0.6638 -0.7307 -0.3271
18814TIP3    H177933   1.018   0.304  11.999  1.0286 -0.8678 -1.1122
18814TIP3    H277934   1.037   0.269  11.853 -2.5864 -0.2588 -1.8192
18815TIP3   OH277935   4.502   0.675   4.044  0.5225 -0.4471  0.2973
18815TIP3    H177936   4.564   0.730   3.995 -2.0102  0.2083 -2.5263
18815TIP3    H277937   4.551   0.595   4.063  3.0054  1.0518  0.6906
18816TIP3   OH277938   5.513   2.653   0.330 -0.5196 -0.1457 -1.0559
18816TIP3    H177939   5.540   2.706   0.255 -0.4449 -2.1954 -2.5521
18816TIP3    H277940   5.421   2.634   0.315 -0.8072  0.3314 -0.0158
18817TIP3   OH277941   0.077   0.101  11.915  0.1639  0.6589  0.1980
18817TIP3    H177942   0.152   0.043  11.930 -0.1146  0.2569  0.0357
18817TIP3    H277943   0.001   0.043  11.916  0.0568  0.6520 -2.2998
18818TIP3   OH277944   1.030   3.358   0.009  0.5649  0.2180 -0.1478
18818TIP3    H177945   1.011   3.309  -0.071  2.2987  0.3307 -0.6753
18818TIP3    H277946   0.962   3.331   0.070  0.0270 -0.9522 -1.2120
18819TIP3   OH277947   5.225   1.112   3.682  0.0422 -0.0877  0.4073
18819TIP3    H177948   5.251   1.171   3.611  0.2633  0.6687  1.0998
18819TIP3    H277949   5.155   1.159   3.728 -0.5345 -0.8432  0.3165
18820TIP3   OH277950   4.185   3.482  14.620  0.1418  0.0061  0.0231
18820TIP3    H177951   4.147   3.412  14.567 -0.8200  0.2759  0.3329
18820TIP3    H277952   4.113   3.510  14.677  0.3659  1.5822 -0.4361
18821TIP3   OH277953   1.776   2.269   4.155  0.1913 -0.0659 -0.0981
18821TIP3    H177954   1.842   2.322   4.198 -0.1352  0.3049 -0.0470
18821TIP3    H277955   1.706   2.330   4.134  0.1615 -0.3250 -0.7747
18822TIP3   OH277956   6.699   3.699   2.188  0.0765 -0.7069  0.1139
18822TIP3    H177957   6.713   3.616   2.142  1.4246  0.3006 -1.4221
18822TIP3    H277958   6.786   3.727   2.215  0.0660  1.4617 -1.7695
18823TIP3   OH277959   0.306   3.234  10.592  0.4930  0.4347 -0.4625
18823TIP3    H177960   0.376   3.182  10.554  0.3905  0.3906 -0.5936
18823TIP3    H277961   0.270   3.284  10.519  0.2744  0.3242 -0.4327
18824TIP3   OH277962   1.078   5.927   4.500 -0.3148  0.2912 -0.4362
18824TIP3    H177963   1.064   6.018   4.526  2.4944  0.8077 -0.3910
18824TIP3    H277964   1.071   5.928   4.404 -1.0776  0.3674 -0.3864
18825TIP3   OH277965   0.295   6.248   3.399 -0.1073 -0.3705 -0.3367
18825TIP3    H177966   0.217   6.257   3.453 -0.9938  0.2777 -1.6772
18825TIP3    H277967   0.266   6.199   3.322  1.3316 -2.0617  0.1440
18826TIP3   OH277968   0.291   1.967  15.698  0.2512 -0.2258  0.2317
18826TIP3    H177969   0.386   1.963  15.690  0.2430  0.3183 -0.1289
18826TIP3    H277970   0.275   1.952  15.791  0.7235  0.2822  0.4027
18827TIP3   OH277971   5.302   0.160  13.816 -0.8765  0.4227  0.1753
18827TIP3    H177972   5.386   0.192  13.783  0.3811 -0.4412  2.3017
18827TIP3    H277973   5.305   0.066  13.801 -1.7553  0.4656 -0.3083
18828TIP3   OH277974   6.506   3.125   2.899  0.2636  0.2895  0.1162
18828TIP3    H177975   6.561   3.197   2.867 -0.3165  1.7785  2.2290
18828TIP3    H277976   6.434   3.120   2.837  1.1838  0.3714 -0.9985
18829TIP3   OH277977   1.231   5.187  13.671 -0.1493 -0.5139  0.1374
18829TIP3    H177978   1.301   5.219  13.729 -0.6852 -1.2167  1.2237
18829TIP3    H277979   1.167   5.258  13.668 -0.2749 -0.5939  0.7095
18830TIP3   OH277980   1.919   1.183  11.423 -0.0656 -0.0683 -0.0971
18830TIP3    H177981   2.004   1.140  11.438 -0.0076  0.0912  0.0240
18830TIP3    H277982   1.939   1.276  11.422 -0.1923 -0.0420 -0.3784
18831TIP3   OH277983   6.360   1.033   3.187 -0.0744 -0.0060  0.6893
18831TIP3    H177984   6.276   1.011   3.229 -0.9282 -1.4014 -1.5479
18831TIP3    H277985   6.377   1.123   3.213 -1.2171 -0.3402  2.8421
18832TIP3   OH277986   4.695   1.545   4.151  0.0320 -0.0206 -0.2213
18832TIP3    H177987   4.624   1.492   4.116  0.8781 -0.6108 -1.1026
18832TIP3    H277988   4.695   1.526   4.245 -0.7645 -0.2472 -0.2603
18833TIP3   OH277989   1.782   1.342   6.347  0.0326  0.2054  0.2774
18833TIP3    H177990   1.782   1.305   6.259 -0.1783 -0.9897  0.7539
18833TIP3    H277991   1.873   1.369   6.361  0.1165  0.1888 -0.2262
18834TIP3   OH277992   4.873   4.922   0.644 -0.7854 -0.3503 -0.0475
18834TIP3    H177993   4.955   4.965   0.618 -0.8527 -0.9459 -1.3273
18834TIP3    H277994   4.872   4.841   0.593 -0.9520 -1.6179  1.8408
18835TIP3   OH277995   2.811   4.485   2.737 -0.3886 -0.4513  0.3735
18835TIP3    H177996   2.824   4.406   2.684  0.6628 -0.6561  0.9222
18835TIP3    H277997   2.731   4.466   2.787 -1.8320  0.0404 -1.6060
18836TIP3   OH277998   5.526   0.297   4.487  0.0594  0.5422  0.4779
18836TIP3    H177999   5.470   0.364   4.526  0.2776  1.8206 -1.2897
18836TIP3    H278000   5.465   0.236   4.445 -0.0914  0.4175  0.8757
18837TIP3   OH278001   2.325   1.513  11.538  0.1880  0.5997  0.3590
18837TIP3    H178002   2.313   1.520  11.633 -0.3984  0.1916  0.3145
18837TIP3    H278003   2.302   1.600  11.505 -0.8303  0.3777  0.4651
18838TIP3   OH278004   6.682   2.008  15.175  0.1631  0.1805 -0.3402
18838TIP3    H178005   6.741   1.948  15.128  0.9726  0.3379  0.4671
18838TIP3    H278006   6.738   2.077  15.208 -0.9366  2.1944 -2.4296
18839TIP3   OH278007   2.440   1.991   4.143 -0.2252 -0.2190  0.2780
18839TIP3    H178008   2.387   1.912   4.144  0.9211 -1.0040  1.6986
18839TIP3    H278009   2.382   2.058   4.108 -1.4926 -1.4854 -0.1223
18840TIP3   OH278010   0.203   4.654  16.766 -1.2488 -0.3585 -0.2846
18840TIP3    H178011   0.184   4.575  16.716  2.2244 -1.5266  0.0149
18840TIP3    H278012   0.295   4.647  16.790 -1.0583  3.2774  0.7493
18841TIP3   OH278013   0.385   0.698  10.902 -0.4875  0.3802 -0.1823
18841TIP3    H178014   0.376   0.606  10.876  2.0941  0.0771 -0.2875
18841TIP3    H278015   0.407   0.744  10.821  2.0805  0.3625  0.4104
18842TIP3   OH278016   3.007   4.310  15.463  0.0556  0.0797 -0.1754
18842TIP3    H178017   3.093   4.316  15.505 -0.0954  0.1802  0.1266
18842TIP3    H278018   2.955   4.377  15.507  0.1422  0.7993 -1.1374
18843TIP3   OH278019   3.520   1.318  13.369  0.0305 -0.2776  0.6923
18843TIP3    H178020   3.564   1.369  13.436  1.9949  0.2905 -0.9278
18843TIP3    H278021   3.590   1.293  13.308 -1.8225  0.6562 -2.0305
18844TIP3   OH278022   3.387   1.463  15.589  0.3664 -0.1712  0.1806
18844TIP3    H178023   3.376   1.468  15.494  1.7649 -1.6216 -0.1144
18844TIP3    H278024   3.349   1.378  15.613 -0.3939  0.3897  0.9952
18845TIP3   OH278025   3.530   6.160   2.232 -0.2590 -0.0377 -0.0848
18845TIP3    H178026   3.595   6.225   2.205  1.5899 -1.0904  1.5557
18845TIP3    H278027   3.573   6.076   2.216 -0.5666 -0.7478  2.4104
18846TIP3   OH278028   4.574   5.424  14.910 -0.0941  0.0283 -0.2459
18846TIP3    H178029   4.669   5.434  14.915 -0.0108 -0.0220 -1.5026
18846TIP3    H278030   4.561   5.331  14.890 -0.5226 -0.5267  2.3120
18847TIP3   OH278031   6.802   2.355  12.813 -0.2628 -0.2118  0.7723
18847TIP3    H178032   6.788   2.407  12.734  0.1971 -0.6864  0.3722
18847TIP3    H278033   6.720   2.365  12.863  0.0176  1.3153  0.9648
18848TIP3   OH278034   0.294   6.768   0.364 -0.0466 -0.2203  0.3578
18848TIP3    H178035   0.235   6.788   0.437 -1.4465  4.2199 -1.6066
18848TIP3    H278036   0.244   6.707   0.310 -0.4869 -0.7993  1.3978
18849TIP3   OH278037   4.448   6.728   2.956  0.3683  0.6419  0.2793
18849TIP3    H178038   4.368   6.699   3.001  0.6399  0.3714  0.6030
18849TIP3    H278039   4.507   6.753   3.028  0.9642 -0.1965  0.1074
18850TIP3   OH278040   4.901   4.862  10.552  0.3592  0.4312  0.7213
18850TIP3    H178041   4.814   4.843  10.586  1.0550 -0.0149  2.4179
18850TIP3    H278042   4.919   4.951  10.580  0.1714  0.7928 -0.2806
18851TIP3   OH278043   3.535   5.716   6.050 -0.2565  0.2075 -0.2493
18851TIP3    H178044   3.542   5.636   5.999 -2.9077 -0.1872 -0.1241
18851TIP3    H278045   3.448   5.713   6.088  0.3782  2.1308  1.5464
18852TIP3   OH278046   2.133   4.583   5.860 -0.3639 -0.4751  0.2691
18852TIP3    H178047   2.106   4.671   5.884  0.6822 -0.0808  0.0251
18852TIP3    H278048   2.173   4.592   5.773 -3.5174 -1.7726 -1.4854
18853TIP3   OH278049   1.420   5.193   5.412  0.1858 -0.3957  0.3548
18853TIP3    H178050   1.457   5.238   5.488  1.3993 -1.3356  0.3384
18853TIP3    H278051   1.494   5.149   5.371 -0.4404  0.0668 -1.3850
18854TIP3   OH278052   1.090   1.739  13.115  0.1523 -0.3648 -0.6517
18854TIP3    H178053   1.124   1.690  13.041 -0.7734  0.1938 -1.4742
18854TIP3    H278054   1.155   1.807  13.132  0.5445 -0.7239 -0.6980
18855TIP3   OH278055   0.848   1.688  15.399  0.2931 -0.3242  0.4199
18855TIP3    H178056   0.761   1.663  15.430 -0.0189  0.5758  0.2970
18855TIP3    H278057   0.856   1.781  15.422  0.6613 -0.0254 -0.8090
18856TIP3   OH278058   1.546   0.538   5.247 -0.2165  0.3021  0.2654
18856TIP3    H178059   1.514   0.588   5.172  0.7405 -0.3145 -0.5840
18856TIP3    H278060   1.592   0.602   5.301 -0.0454  0.5675 -0.1887
18857TIP3   OH278061   0.207   1.248   3.041  0.4991 -0.4262  0.3652
18857TIP3    H178062   0.134   1.211   3.091 -0.3087 -0.8609 -1.0747
18857TIP3    H278063   0.229   1.329   3.087 -1.1296 -0.1137  0.6486
18858TIP3   OH278064   6.546   2.731   4.356 -0.3056 -0.0057  0.1071
18858TIP3    H178065   6.486   2.659   4.375  1.3495 -1.4131  0.2432
18858TIP3    H278066   6.592   2.703   4.276  2.6772 -0.7472  1.9152
18859TIP3   OH278067   6.753   4.266  11.499  0.1908 -0.5379 -0.0091
18859TIP3    H178068   6.810   4.268  11.576 -0.4312 -0.4472  0.4557
18859TIP3    H278069   6.715   4.178  11.501 -1.1389  0.0258  0.7709
18860TIP3   OH278070   0.724   4.341   4.745  0.2045  0.0666 -0.6977
18860TIP3    H178071   0.816   4.348   4.768 -0.1918  0.6965  0.8885
18860TIP3    H278072   0.694   4.432   4.739 -0.3781 -0.1295 -0.8769
18861TIP3   OH278073   4.168   4.996   0.325 -0.2047  0.1147  0.0260
18861TIP3    H178074   4.149   5.040   0.407  0.2740 -0.7833  0.6338
18861TIP3    H278075   4.248   5.036   0.293 -1.0845  1.3672 -0.6832
18862TIP3   OH278076   2.434   5.092  16.402 -0.2201 -0.1083 -0.7085
18862TIP3    H178077   2.362   5.131  16.353 -2.3024 -1.8635  0.7770
18862TIP3    H278078   2.463   5.160  16.462 -1.4248  0.2645 -0.5364
18863TIP3   OH278079   5.789   2.405  16.640 -0.2917 -0.1257 -0.1831
18863TIP3    H178080   5.806   2.377  16.730  1.9723  1.1986 -0.1334
18863TIP3    H278081   5.772   2.323  16.593  0.6584 -1.0702  1.0265
18864TIP3   OH278082   6.580   3.989   4.849  0.1770 -0.8607 -0.2914
18864TIP3    H178083   6.491   4.024   4.859  0.1129 -0.8624 -0.7997
18864TIP3    H278084   6.592   3.984   4.754  1.1067  0.1043 -0.2381
18865TIP3   OH278085   3.080   4.139   0.295  0.2629 -0.3555  0.3271
18865TIP3    H178086   3.125   4.206   0.243  0.9539 -0.2700  1.0136
18865TIP3    H278087   3.135   4.061   0.287 -0.8957 -1.0640 -1.0227
18866TIP3   OH278088   3.918   1.635  16.673 -0.0976  0.1243 -0.2475
18866TIP3    H178089   3.904   1.672  16.586  1.4945 -0.4436 -0.7818
18866TIP3    H278090   3.891   1.704  16.733 -1.7614  0.3219 -1.1491
18867TIP3   OH278091   4.516   3.170  13.808  0.2856  0.3957 -0.0079
18867TIP3    H178092   4.547   3.105  13.745 -2.2255 -0.3414 -0.5855
18867TIP3    H278093   4.485   3.243  13.754  1.9668  1.6383  0.5992
18868TIP3   OH278094   3.952   2.549  15.338  0.3224 -1.0012  0.0110
18868TIP3    H178095   4.047   2.539  15.349  0.2373 -1.9152  0.0043
18868TIP3    H278096   3.937   2.643  15.344  1.2644 -0.8198 -0.2544
18869TIP3   OH278097   3.219   4.851  15.618 -0.0836  0.1165  0.4541
18869TIP3    H178098   3.301   4.833  15.665 -0.5918 -1.0912  0.9169
18869TIP3    H278099   3.151   4.836  15.683 -0.6755  1.5310  0.1945
18870TIP3   OH278100   2.631   1.178  14.360 -0.1803  0.6178  0.2189
18870TIP3    H178101   2.589   1.154  14.277 -0.9382 -0.0630  0.7902
18870TIP3    H278102   2.722   1.152  14.349 -0.0904  1.2615 -0.6924
18871TIP3   OH278103   3.967   1.137   6.636 -0.4407 -0.6260  0.0274
18871TIP3    H178104   3.900   1.157   6.701  0.9100  2.8336  0.5769
18871TIP3    H278105   3.967   1.212   6.578  1.6606 -1.4259 -1.1114
18872TIP3   OH278106   1.025   0.314   1.963  0.0909  0.1934  0.4215
18872TIP3    H178107   1.022   0.262   2.043  0.8028 -0.7298 -0.1309
18872TIP3    H278108   1.118   0.333   1.950  0.0076  0.1497 -0.2905
18873TIP3   OH278109   6.084   2.365  11.699 -0.1742 -0.7495  0.4217
18873TIP3    H178110   6.113   2.456  11.703 -1.8365 -0.1362 -0.0933
18873TIP3    H278111   6.113   2.334  11.613 -1.2252 -0.0611 -0.2022
18874TIP3   OH278112   4.974   0.210  15.269 -0.0179 -0.3172 -0.1077
18874TIP3    H178113   4.980   0.128  15.220 -0.0767  0.5395 -1.6003
18874TIP3    H278114   5.049   0.207  15.329  1.0849 -0.6507 -1.4480
18875TIP3   OH278115   5.717   2.367  16.104 -0.6333 -0.9766  0.5684
18875TIP3    H178116   5.738   2.349  16.195  0.0005 -1.7468  0.2852
18875TIP3    H278117   5.698   2.281  16.066  2.3692 -1.1666 -0.8234
18876TIP3   OH278118   6.183   5.090  11.986 -0.1938 -0.1156  0.1038
18876TIP3    H178119   6.126   5.129  12.052 -0.0108  0.3191  0.0040
18876TIP3    H278120   6.227   5.018  12.032  0.7250  0.8369  0.7629
18877TIP3   OH278121   6.568   3.075   0.762 -0.5544 -0.1470 -0.2284
18877TIP3    H178122   6.647   3.061   0.813 -0.5997 -1.7530 -0.5494
18877TIP3    H278123   6.516   2.995   0.775 -0.6462 -0.5551 -2.6210
18878TIP3   OH278124   6.034   3.224   5.272 -0.4789 -0.2487  0.4761
18878TIP3    H178125   6.110   3.223   5.331 -0.5434  1.2796  0.6430
18878TIP3    H278126   5.967   3.272   5.320 -1.2335 -0.7426 -0.0569
18879TIP3   OH278127   2.498   1.739  11.598  0.3251 -0.1348  0.5068
18879TIP3    H178128   2.499   1.795  11.676 -0.5605 -0.4766  0.7770
18879TIP3    H278129   2.567   1.675  11.614  1.0115  0.5621  0.4205
18880TIP3   OH278130   3.069   2.146  11.063  0.8770  0.0436  0.0955
18880TIP3    H178131   3.101   2.104  10.983  1.3134  0.1676  0.2071
18880TIP3    H278132   3.062   2.074  11.126  0.9525  0.0206  0.0777
18881TIP3   OH278133   6.638   3.049   2.283  0.2309 -0.1217  0.2791
18881TIP3    H178134   6.619   3.138   2.254  0.1928 -1.0425 -2.8533
18881TIP3    H278135   6.567   3.028   2.344 -2.6100  0.4048 -2.5855
18882TIP3   OH278136   1.857   4.491  13.080  0.1059  0.1543  0.0163
18882TIP3    H178137   1.903   4.510  13.162  0.3429 -0.1245 -0.0515
18882TIP3    H278138   1.893   4.555  13.018 -2.6513  2.8898  0.9630
18883TIP3   OH278139   5.862   5.522  11.065  0.2836  0.0749  0.2975
18883TIP3    H178140   5.908   5.480  11.137 -0.6611 -0.7866  0.4304
18883TIP3    H278141   5.805   5.587  11.106 -1.9536 -1.9524  0.6275
18884TIP3   OH278142   5.685   2.372   4.420  0.6973 -0.0427  0.1808
18884TIP3    H178143   5.681   2.312   4.495  1.4041  1.1240  1.1919
18884TIP3    H278144   5.610   2.430   4.432  0.9231  0.2675  0.0911
18885TIP3   OH278145   0.174   2.802  15.380 -0.2876 -0.1612  0.1733
18885TIP3    H178146   0.096   2.807  15.435 -0.4929  1.6493 -0.2049
18885TIP3    H278147   0.159   2.867  15.311  2.2875  1.5819  1.1071
18886TIP3   OH278148   4.749   1.407   4.675 -0.2618 -0.8151 -0.9957
18886TIP3    H178149   4.736   1.501   4.660 -1.6403 -0.8604 -0.2750
18886TIP3    H278150   4.761   1.400   4.770 -1.5912 -1.4866 -0.8512
18887TIP3   OH278151   6.273   5.056  11.382  0.5121 -0.6541 -0.5595
18887TIP3    H178152   6.206   5.019  11.324 -0.4943  0.4567 -0.1450
18887TIP3    H278153   6.254   5.150  11.384  1.7596 -0.3977 -0.0010
18888TIP3   OH278154   6.365   3.697   5.026 -0.2644  0.0995  0.6079
18888TIP3    H178155   6.388   3.655   4.943  0.9326  1.1159  0.3828
18888TIP3    H278156   6.450   3.722   5.064 -0.8425  4.0881 -0.2482
18889TIP3   OH278157   2.921   5.637   1.611  0.2216 -0.1479  0.2056
18889TIP3    H178158   2.931   5.598   1.698 -0.6937 -0.2159  0.2996
18889TIP3    H278159   2.928   5.731   1.626 -2.9436  0.1045  0.9236
18890TIP3   OH278160   2.865   6.833   3.877  0.5425 -0.0911  0.0353
18890TIP3    H178161   2.843   6.893   3.948  0.9549 -0.1019  0.1775
18890TIP3    H278162   2.912   6.887   3.813 -0.8973  0.1957 -0.8178
18891TIP3   OH278163   1.112   2.726   4.748  0.3259 -0.0852  0.0493
18891TIP3    H178164   1.109   2.806   4.696 -0.6941 -0.0381  0.1406
18891TIP3    H278165   1.163   2.750   4.826 -0.2090  0.5809  0.2132
18892TIP3   OH278166   6.452   1.156  13.081  0.1539  0.5597  0.0500
18892TIP3    H178167   6.431   1.143  12.988 -0.4610  0.4778  0.1982
18892TIP3    H278168   6.536   1.203  13.080  0.6616 -0.3317 -0.5320
18893TIP3   OH278169   6.736   1.980  16.427  0.5732 -0.0074  0.8933
18893TIP3    H178170   6.766   2.065  16.395 -0.5688  0.7486  1.7726
18893TIP3    H278171   6.709   1.996  16.518  0.9818 -1.4579  1.2947
18894TIP3   OH278172   2.104   3.236   2.168  0.2124  0.0767 -0.7041
18894TIP3    H178173   2.060   3.242   2.083 -0.7655 -1.0648 -0.3086
18894TIP3    H278174   2.033   3.221   2.230  1.1303 -1.4632  0.0043
18895TIP3   OH278175   1.609   5.565   6.022 -0.4945 -0.3668 -0.0132
18895TIP3    H178176   1.536   5.622   5.997 -1.0784 -0.5804  1.1421
18895TIP3    H278177   1.665   5.562   5.944 -1.7292 -0.2275 -0.9371
18896TIP3   OH278178   4.829   1.343  12.533 -0.1254  0.0927  0.0605
18896TIP3    H178179   4.865   1.362  12.446 -0.7122  1.0359  0.0106
18896TIP3    H278180   4.890   1.280  12.571  2.0977  2.2860  0.3252
18897TIP3   OH278181   5.204   5.348  13.247  0.1654  0.1101 -0.8441
18897TIP3    H178182   5.298   5.339  13.233  0.6640  0.0435  1.9813
18897TIP3    H278183   5.165   5.274  13.201  1.8959 -2.1415  1.0870
18898TIP3   OH278184   3.020   1.937   6.006 -0.6610  0.4587  0.7633
18898TIP3    H178185   3.009   1.921   6.100 -2.2083 -0.2530  0.4930
18898TIP3    H278186   3.058   2.025   6.001  0.5198  0.0692  2.0699
18899TIP3   OH278187   0.961   3.763   4.058 -0.6813  0.5032  0.1131
18899TIP3    H178188   0.888   3.704   4.075 -2.2883  2.4825  0.5522
18899TIP3    H278189   0.920   3.848   4.044  1.6458  2.0740  2.0420
18900TIP3   OH278190   6.491   5.510   3.917  0.3705 -0.0231 -0.0346
18900TIP3    H178191   6.576   5.530   3.877 -0.3362  2.1185 -0.6090
18900TIP3    H278192   6.509   5.500   4.010  1.0200  2.5187  0.1798
18901TIP3   OH278193   1.227   0.637  12.901  0.1171 -0.5230  0.3553
18901TIP3    H178194   1.206   0.723  12.937  0.8532  0.3732 -1.2616
18901TIP3    H278195   1.143   0.590  12.902 -0.6870  0.8217 -0.3144
18902TIP3   OH278196   1.994   5.380  15.547  0.2814 -0.4894  0.1402
18902TIP3    H178197   1.983   5.418  15.460  1.1134 -1.0000 -0.1944
18902TIP3    H278198   1.995   5.455  15.606  0.6610 -0.0716 -0.3917
18903TIP3   OH278199   0.915   1.307   2.577  0.1474 -0.0071  0.1303
18903TIP3    H178200   0.953   1.310   2.489  0.2143  3.2715  0.1305
18903TIP3    H278201   0.958   1.379   2.623 -0.9784 -0.7062  2.4042
18904TIP3   OH278202   2.903   0.456  15.084  0.4489  0.0906  0.0762
18904TIP3    H178203   2.892   0.465  14.989  0.7588 -0.1053  0.0227
18904TIP3    H278204   2.821   0.490  15.120  0.1998 -0.1271 -0.2729
18905TIP3   OH278205   0.798   6.568   0.316  0.3279 -0.6621 -0.0749
18905TIP3    H178206   0.708   6.599   0.325  1.2432  2.4908 -0.5971
18905TIP3    H278207   0.833   6.573   0.405  0.7562  1.0545 -0.2893
18906TIP3   OH278208   3.440   4.273  13.242  0.0361  0.4935  0.0201
18906TIP3    H178209   3.368   4.210  13.248 -0.7939  1.0091 -2.7935
18906TIP3    H278210   3.511   4.224  13.201  0.7207  0.4421  1.2366
18907TIP3   OH278211   3.553   5.456   3.184 -0.2379  0.3675 -0.3183
18907TIP3    H178212   3.640   5.459   3.144 -1.0851  0.8095 -2.2140
18907TIP3    H278213   3.523   5.366   3.170  0.2915 -0.1127  1.3090
18908TIP3   OH278214   3.375   3.875   1.132  0.0746 -0.5293  0.1011
18908TIP3    H178215   3.437   3.942   1.161 -0.3156  0.0554 -0.3748
18908TIP3    H278216   3.325   3.853   1.210 -0.1102  0.0872  0.1616
18909TIP3   OH278217   5.879   1.706   3.728  0.4596 -0.0342 -0.1754
18909TIP3    H178218   5.806   1.732   3.784 -0.3256 -1.1225 -0.6671
18909TIP3    H278219   5.917   1.630   3.772  1.1693  0.3840 -0.0434
18910TIP3   OH278220   6.771   5.266   2.466 -0.5992  0.2012 -0.0694
18910TIP3    H178221   6.855   5.289   2.505  0.2184 -2.1286 -0.3327
18910TIP3    H278222   6.765   5.321   2.387 -0.1026  1.5192  0.7786
18911TIP3   OH278223   6.413   4.822   3.766  0.5567 -0.1180  0.1611
18911TIP3    H178224   6.357   4.852   3.694  1.3983  1.1731  0.0082
18911TIP3    H278225   6.358   4.762   3.816 -0.3298 -0.3765 -1.0674
18912TIP3   OH278226   1.010   3.673  12.485  0.6606  0.0552 -0.1193
18912TIP3    H178227   1.035   3.608  12.419  0.1085 -0.4348  0.1405
18912TIP3    H278228   1.037   3.634  12.568  0.4433  0.2148  0.0287
18913TIP3   OH278229   2.453   3.193   6.568 -0.6239  0.0367 -0.0425
18913TIP3    H178230   2.395   3.159   6.636 -0.4527  0.3116  0.2460
18913TIP3    H278231   2.531   3.138   6.573  0.3933  1.5118  1.6123
18914TIP3   OH278232   5.756   3.478  16.636  0.6034 -0.0529 -0.3376
18914TIP3    H178233   5.740   3.542  16.706 -1.7176 -0.7066 -0.1619
18914TIP3    H278234   5.716   3.517  16.558 -1.1984 -1.3401 -0.1440
18915TIP3   OH278235   5.371   1.620   1.495 -0.0013  0.2921 -0.1510
18915TIP3    H178236   5.416   1.690   1.448  0.8662  0.9571  1.5800
18915TIP3    H278237   5.436   1.587   1.557 -2.1318  2.2594  3.4722
18916TIP3   OH278238   5.101   0.261   4.309  0.1903 -0.5296 -0.5306
18916TIP3    H178239   5.124   0.274   4.217 -0.4794 -1.6218 -0.8700
18916TIP3    H278240   5.006   0.249   4.308  0.3155 -1.6841  0.1579
18917TIP3   OH278241   1.060   3.783   3.451  0.6134  0.0488 -0.6740
18917TIP3    H178242   1.107   3.762   3.371  2.6361 -2.6586  1.0389
18917TIP3    H278243   0.980   3.730   3.446 -0.4321  1.6400 -1.8217
18918TIP3   OH278244   5.789   4.822  14.702 -0.4689  0.1502  0.0646
18918TIP3    H178245   5.805   4.733  14.733  0.4939  0.7941  1.5362
18918TIP3    H278246   5.875   4.864  14.705 -0.5951  0.6654 -2.2516
18919TIP3   OH278247   3.994   2.202  14.027  0.5729  0.1644  0.2250
18919TIP3    H178248   3.958   2.125  14.071  0.8671  0.2443  0.6048
18919TIP3    H278249   4.011   2.265  14.098 -0.8083  1.0511 -0.1896
18920TIP3   OH278250   2.392   2.609   5.914 -0.4076 -0.3387  0.3646
18920TIP3    H178251   2.417   2.621   6.005  1.1955 -1.5753  0.1214
18920TIP3    H278252   2.386   2.698   5.879  2.0943  0.1221  0.8965
18921TIP3   OH278253   1.564   1.291  12.237  0.1243  0.4604  0.1359
18921TIP3    H178254   1.485   1.246  12.267  0.5329  0.1161  0.6988
18921TIP3    H278255   1.537   1.382  12.228  0.2873  0.8554  2.8042
18922TIP3   OH278256   2.489   0.857   0.960  0.1657  0.6056 -0.0281
18922TIP3    H178257   2.536   0.867   1.043  0.6558 -0.0237 -0.2203
18922TIP3    H278258   2.547   0.802   0.906 -1.5457 -1.7126  0.3556
18923TIP3   OH278259   4.200   1.596  14.771 -0.1958 -0.0804 -0.2527
18923TIP3    H178260   4.268   1.651  14.811  0.1841  0.0532 -1.0524
18923TIP3    H278261   4.142   1.573  14.843 -0.9126  2.1482 -0.0147
18924TIP3   OH278262   2.764   5.431  15.346 -0.1313  0.6215  0.0431
18924TIP3    H178263   2.669   5.439  15.346 -0.0534  2.1575 -1.7694
18924TIP3    H278264   2.790   5.458  15.434 -1.4167 -0.9671  0.9505
18925TIP3   OH278265   6.484   0.595   1.258 -0.5198 -0.3201  0.2390
18925TIP3    H178266   6.538   0.645   1.320  1.1318 -0.5827 -0.9464
18925TIP3    H278267   6.461   0.515   1.306  0.9393 -0.6352  0.4645
18926TIP3   OH278268   2.989   5.470  11.680  0.1415  0.0922 -0.1075
18926TIP3    H178269   3.073   5.442  11.643  0.5610  0.4213  0.5642
18926TIP3    H278270   2.941   5.389  11.696  0.6165 -0.1423  0.1522
18927TIP3   OH278271   3.053   6.277   5.495 -0.1548 -0.3803 -0.2631
18927TIP3    H178272   2.964   6.241   5.495  0.6370 -2.4948 -0.3659
18927TIP3    H278273   3.090   6.250   5.412  0.8754 -0.2856  0.1541
18928TIP3   OH278274   3.569   0.323   3.221 -0.0376 -0.6987 -0.2963
18928TIP3    H178275   3.576   0.395   3.157 -0.9960 -2.0965 -2.0688
18928TIP3    H278276   3.597   0.245   3.173 -1.5018 -1.9238  0.7387
18929TIP3   OH278277   5.430   6.057  14.956  0.0148 -0.7326 -0.4830
18929TIP3    H178278   5.336   6.037  14.949  0.4849 -2.8425 -1.6321
18929TIP3    H278279   5.454   6.090  14.869  0.4956 -1.0171 -0.4634
18930TIP3   OH278280   6.510   6.785  12.795 -0.4215 -0.3751  0.9992
18930TIP3    H178281   6.576   6.806  12.727 -1.8996 -0.9807 -0.6951
18930TIP3    H278282   6.491   6.870  12.835  0.0502  0.1131  0.2385
18931TIP3   OH278283   2.874   4.318  13.276  0.4392 -0.1999 -0.2048
18931TIP3    H178284   2.963   4.344  13.299 -0.0913  1.5251  0.0366
18931TIP3    H278285   2.847   4.382  13.210 -2.0739  2.0288  2.7225
18932TIP3   OH278286   2.129   1.972  14.747 -0.0508  0.1675 -0.4371
18932TIP3    H178287   2.093   2.049  14.791 -1.0814  0.5472 -1.8722
18932TIP3    H278288   2.094   1.898  14.796 -1.9412  0.5585 -1.1203
18933TIP3   OH278289   5.730   6.346   4.163 -0.0306  0.0517 -0.3330
18933TIP3    H178290   5.754   6.413   4.098  1.8369 -3.4971 -3.7630
18933TIP3    H278291   5.813   6.305   4.186 -1.2437 -2.4514 -0.1337
18934TIP3   OH278292   1.833   0.302  16.088 -0.1583 -0.5485 -0.1299
18934TIP3    H178293   1.907   0.273  16.142  0.7049  0.8934 -0.5035
18934TIP3    H278294   1.842   0.251  16.007  2.1618  1.6003 -1.3449
18935TIP3   OH278295   0.645   3.332  16.734 -0.4523  0.0429 -0.5257
18935TIP3    H178296   0.572   3.381  16.772 -0.1307 -0.3988  0.6870
18935TIP3    H278297   0.603   3.258  16.691 -0.7352 -0.0843 -0.0364
18936TIP3   OH278298   0.200   0.178   1.920 -0.8219  0.3201 -0.4043
18936TIP3    H178299   0.206   0.103   1.979 -0.2221 -1.0747 -2.1510
18936TIP3    H278300   0.244   0.249   1.968  2.0694 -1.4400 -0.1610
18937TIP3   OH278301   6.599   6.488   4.558  0.4201  0.4637  0.4077
18937TIP3    H178302   6.682   6.480   4.511  0.6515 -0.2472  0.9178
18937TIP3    H278303   6.551   6.408   4.533  0.5879  0.0213  1.4444
18938TIP3   OH278304   6.171   0.244  14.429  0.1422  0.7002  0.0334
18938TIP3    H178305   6.187   0.234  14.335 -1.5920  1.8287 -0.4236
18938TIP3    H278306   6.098   0.307  14.434  0.6110  1.1290  2.1538
18939TIP3   OH278307   1.986   0.261  15.182  0.4265  0.2531 -0.0776
18939TIP3    H178308   2.069   0.250  15.227  0.5600  1.5635  0.0225
18939TIP3    H278309   1.939   0.179  15.199 -0.0391  1.1109  3.5295
18940TIP3   OH278310   3.658   2.048   3.873 -0.5438 -0.4336  0.0706
18940TIP3    H178311   3.570   2.024   3.905 -1.0535  1.1688 -0.0309
18940TIP3    H278312   3.648   2.137   3.840  0.5897 -1.0722 -2.1836
18941TIP3   OH278313   3.911   5.642  12.981 -0.2077 -0.0397 -0.0962
18941TIP3    H178314   3.915   5.730  13.017 -0.1633  0.2519 -0.7896
18941TIP3    H278315   3.856   5.651  12.903 -1.9691 -1.0216  0.9604
18942TIP3   OH278316   6.863   6.181  13.800  0.1275 -0.2667  0.4910
18942TIP3    H178317   6.920   6.121  13.847  0.8222  1.2047  1.6015
18942TIP3    H278318   6.892   6.176  13.709  2.6995  1.0845  1.1356
18943TIP3   OH278319   0.164   2.274  12.917 -0.3562  0.3930 -0.0107
18943TIP3    H178320   0.132   2.196  12.963  1.1083  0.3678  1.0502
18943TIP3    H278321   0.096   2.295  12.854 -1.7146 -0.5530  1.0829
18944TIP3   OH278322   6.303   3.516   0.735  0.1364 -0.3661 -0.0394
18944TIP3    H178323   6.246   3.568   0.791 -1.6270 -1.7613 -0.4795
18944TIP3    H278324   6.314   3.433   0.782  0.9637 -0.5020 -0.4533
18945TIP3   OH278325   6.000   3.444   1.329 -0.2218  0.1251 -0.2862
18945TIP3    H178326   6.082   3.486   1.303 -0.8838  1.8946  0.3398
18945TIP3    H278327   6.025   3.354   1.352  1.0951 -0.2176 -2.6856
18946TIP3   OH278328   2.322   3.049  11.170  0.4994  0.4054 -0.5212
18946TIP3    H178329   2.326   3.108  11.095  2.9798  0.9892 -0.0337
18946TIP3    H278330   2.332   3.106  11.246  1.4038 -0.4621  0.0346
18947TIP3   OH278331   4.559   4.783   6.077  0.3834  0.0230 -0.1444
18947TIP3    H178332   4.472   4.746   6.093 -0.5230  1.1493 -2.1424
18947TIP3    H278333   4.564   4.858   6.136 -0.1426  0.1577 -0.2661
18948TIP3   OH278334   4.039   1.599   3.938 -0.4528  0.5593 -0.7725
18948TIP3    H178335   3.985   1.544   3.881 -0.0353 -1.4644  0.6841
18948TIP3    H278336   4.095   1.648   3.878 -0.4343 -1.0486 -2.1303
18949TIP3   OH278337   1.404   5.945   0.138 -0.3210  0.6190  0.5209
18949TIP3    H178338   1.469   6.014   0.150 -0.1067  0.3039  1.2193
18949TIP3    H278339   1.332   5.970   0.196 -0.5400  0.6146  0.2529
18950TIP3   OH278340   3.823   2.803  15.375  0.8282 -0.2158  0.2462
18950TIP3    H178341   3.809   2.896  15.396 -2.1752 -0.7987  1.2524
18950TIP3    H278342   3.783   2.756  15.448  1.5495 -2.3335 -0.6569
18951TIP3   OH278343   6.497   0.822   4.555 -0.1735  0.1367  0.4860
18951TIP3    H178344   6.428   0.869   4.508  1.2581  0.6672 -1.2563
18951TIP3    H278345   6.466   0.732   4.562 -1.5544  0.6314  0.8670
18952TIP3   OH278346   0.866   1.679  11.485  0.0242 -0.4372 -0.2794
18952TIP3    H178347   0.897   1.602  11.436  0.5170 -0.3688 -0.0710
18952TIP3    H278348   0.820   1.641  11.560  0.2477 -0.5322 -0.1881
18953TIP3   OH278349   0.019   3.034   2.210  0.1553 -0.4215  0.3803
18953TIP3    H178350  -0.069   3.048   2.244  0.8186  0.5188  1.8044
18953TIP3    H278351   0.066   2.987   2.279  0.8535 -0.6454 -0.2271
18954TIP3   OH278352   3.097   4.913  14.915 -0.5784  0.7308 -0.3231
18954TIP3    H178353   3.157   4.984  14.891 -2.6575  1.7153 -3.1767
18954TIP3    H278354   3.130   4.837  14.867  0.5424  0.2079  1.2099
18955TIP3   OH278355   4.945   6.699   2.329  0.0169  0.4913  0.3672
18955TIP3    H178356   4.853   6.680   2.310 -0.1471  1.8813 -0.3130
18955TIP3    H278357   4.994   6.633   2.279 -0.5508  1.2711 -1.2768
18956TIP3   OH278358   0.402   4.231   0.803  0.9144  0.6365  0.7321
18956TIP3    H178359   0.399   4.162   0.737 -0.4736  0.0621  1.3491
18956TIP3    H278360   0.456   4.300   0.764 -0.0379  0.4093 -1.0794
18957TIP3   OH278361   0.117   2.528   3.068 -0.3293 -0.2770  0.1836
18957TIP3    H178362   0.174   2.587   3.018 -0.2147 -0.6022 -0.0743
18957TIP3    H278363   0.170   2.450   3.083 -0.0775  0.1191  1.5168
18958TIP3   OH278364   1.670   6.461   1.472 -0.0910  0.1815 -0.2865
18958TIP3    H178365   1.724   6.485   1.397 -1.1470  1.5476 -0.6503
18958TIP3    H278366   1.719   6.391   1.515  2.8005  2.4085  0.3671
18959TIP3   OH278367   3.817   5.115   4.106  0.2408  0.9453  0.3306
18959TIP3    H178368   3.859   5.086   4.187  1.5560  2.2410  0.1623
18959TIP3    H278369   3.778   5.200   4.128  0.8524  1.4486 -0.4273
18960TIP3   OH278370   3.468   2.933   5.728 -0.4528 -0.0380 -0.4294
18960TIP3    H178371   3.506   2.994   5.665 -0.4821  1.1623  0.6883
18960TIP3    H278372   3.535   2.865   5.739 -0.6322 -0.5225 -2.0620
18961TIP3   OH278373   1.847   6.838  10.814 -0.5367 -0.2526 -0.1454
18961TIP3    H178374   1.880   6.908  10.756 -3.1934  2.2304  1.0641
18961TIP3    H278375   1.795   6.782  10.756 -0.2538  0.0966 -0.7530
18962TIP3   OH278376   1.403   3.126   0.614 -0.0353 -0.1413  0.2885
18962TIP3    H178377   1.471   3.064   0.587 -0.7821 -0.5456 -0.6804
18962TIP3    H278378   1.432   3.155   0.701 -0.3953 -2.9585  1.4749
18963TIP3   OH278379   6.076   0.148   0.975  0.2115  0.6628  0.7008
18963TIP3    H178380   6.158   0.164   0.930  0.3018 -1.9570 -0.2436
18963TIP3    H278381   6.101   0.097   1.053 -0.4146  0.8462  1.0314
18964TIP3   OH278382   3.470   4.182   1.788 -0.2083 -0.1189 -0.1455
18964TIP3    H178383   3.485   4.100   1.742 -0.4376  0.5032 -1.4024
18964TIP3    H278384   3.417   4.159   1.864 -0.5865 -1.0824 -0.6865
18965TIP3   OH278385   0.750   5.266   3.538  0.1791  0.0949 -0.1809
18965TIP3    H178386   0.832   5.246   3.582 -0.0682 -0.2440  0.1273
18965TIP3    H278387   0.682   5.224   3.591 -0.2589  0.9110 -0.0707
18966TIP3   OH278388   3.207   5.995   2.485  0.1166 -0.0757  0.2732
18966TIP3    H178389   3.260   5.923   2.517 -0.2677 -0.0443  0.9983
18966TIP3    H278390   3.171   5.963   2.402  1.6099  0.0756 -0.4685
18967TIP3   OH278391   3.584   5.990   4.580 -0.0749  0.4441  0.4392
18967TIP3    H178392   3.571   5.896   4.568  1.2613  0.3029 -0.0616
18967TIP3    H278393   3.646   5.996   4.653 -1.5374  1.0260  1.7088
18968TIP3   OH278394   1.346   0.185  10.479  0.6781 -0.6197 -0.4394
18968TIP3    H178395   1.370   0.098  10.447  1.5394 -1.3254  1.8659
18968TIP3    H278396   1.409   0.202  10.549 -2.0291 -0.0137  2.0345
18969TIP3   OH278397   2.048   1.008  14.698  0.6215  0.4472 -0.4240
18969TIP3    H178398   2.075   0.978  14.784  1.1254 -0.8140 -1.0058
18969TIP3    H278399   2.102   1.086  14.682  0.7354  0.5174  0.2533
18970TIP3   OH278400   6.346   0.952  13.428  0.4565  0.4400  0.0037
18970TIP3    H178401   6.431   0.923  13.395  0.8280 -0.8468  1.9393
18970TIP3    H278402   6.294   0.968  13.350  2.3335  0.8669 -1.2274
18971TIP3   OH278403   0.074   2.463   1.992 -0.1106  0.3726  0.2930
18971TIP3    H178404   0.059   2.481   1.899  0.3558 -1.5587 -0.1925
18971TIP3    H278405  -0.014   2.456   2.029 -0.3082  0.4061 -0.1615
18972TIP3   OH278406   4.686   0.763  14.460  0.5264  0.2068 -0.0996
18972TIP3    H178407   4.638   0.846  14.455 -0.0182  0.0866  2.0656
18972TIP3    H278408   4.640   0.704  14.400  1.1225  1.5162 -1.9277
18973TIP3   OH278409   2.958   0.993  16.447  0.6282  0.3843  0.0758
18973TIP3    H178410   2.896   0.973  16.517 -1.0415  0.7025 -1.2500
18973TIP3    H278411   2.976   1.087  16.457 -0.1870  0.5986 -0.3206
18974TIP3   OH278412   5.727   5.138   0.526  0.2750 -0.8646 -0.4338
18974TIP3    H178413   5.782   5.150   0.449 -0.0386  2.7563 -0.2381
18974TIP3    H278414   5.773   5.182   0.596 -1.3165 -0.6318  0.5109
18975TIP3   OH278415   3.984   1.198   5.797  0.0304 -0.6137  0.0175
18975TIP3    H178416   3.937   1.197   5.880  1.1758  0.8658  0.7387
18975TIP3    H278417   3.940   1.265   5.745 -0.4435 -1.2649 -0.4315
18976TIP3   OH278418   1.941   3.629   5.595 -0.9342  0.3508 -0.0916
18976TIP3    H178419   1.990   3.601   5.673  2.7900 -0.5571 -2.5154
18976TIP3    H278420   1.955   3.724   5.592  1.6261  0.0127 -1.1879
18977TIP3   OH278421   2.716   1.950   3.141 -0.2495  0.1227  0.1862
18977TIP3    H178422   2.643   2.008   3.120 -0.5032  0.2302  1.2990
18977TIP3    H278423   2.778   2.005   3.189 -1.6351 -0.9978  3.5723
18978TIP3   OH278424   6.318   5.164  15.905  0.2920 -0.0115 -0.0530
18978TIP3    H178425   6.344   5.112  15.981  2.7928  1.5471  0.2547
18978TIP3    H278426   6.231   5.130  15.882  0.9797 -2.9876  1.2393
18979TIP3   OH278427   1.206   3.924   5.190 -0.4007 -0.1055 -0.1747
18979TIP3    H178428   1.121   3.964   5.170 -0.1785 -0.3431 -1.6490
18979TIP3    H278429   1.233   3.966   5.272 -0.8986  1.6048 -0.8495
18980TIP3   OH278430   1.079   5.919   2.071  0.8033  0.0136 -0.2291
18980TIP3    H178431   1.165   5.904   2.030 -0.2002 -1.0971 -2.1016
18980TIP3    H278432   1.032   5.974   2.008  0.3868  1.3377  1.1772
18981TIP3   OH278433   4.779   1.487   2.183  0.2636  0.5969 -0.1056
18981TIP3    H178434   4.762   1.572   2.224 -0.8956 -0.3048  1.3751
18981TIP3    H278435   4.699   1.437   2.199  1.1979 -1.0059 -0.3111
18982TIP3   OH278436   0.890   3.236  16.841 -0.1091  0.0807 -0.1173
18982TIP3    H178437   0.897   3.166  16.777  0.1520  0.3246 -0.3627
18982TIP3    H278438   0.818   3.291  16.810 -0.3291 -0.0926  0.0854
18983TIP3   OH278439   4.770   0.065   5.658 -0.0758 -0.4023 -0.4637
18983TIP3    H178440   4.808   0.150   5.635 -0.9021 -0.0468 -0.5588
18983TIP3    H278441   4.779   0.013   5.578  0.2452 -0.3412 -0.4698
18984TIP3   OH278442   2.277   3.224  15.749 -0.4225  0.1801 -0.3170
18984TIP3    H178443   2.196   3.252  15.708 -1.0865 -0.5910  0.4416
18984TIP3    H278444   2.262   3.133  15.774  0.6409  0.0496 -0.0737
18985TIP3   OH278445   2.188   5.189  16.166  0.4118 -0.2823  0.7860
18985TIP3    H178446   2.136   5.120  16.124  0.0615  0.1204  0.5502
18985TIP3    H278447   2.160   5.186  16.258  0.2617 -0.3291  0.7393
18986TIP3   OH278448   2.142   4.633   3.102 -0.2012  0.1147 -0.0023
18986TIP3    H178449   2.070   4.570   3.094  1.3456 -1.6807 -0.6876
18986TIP3    H278450   2.177   4.618   3.190 -0.0394  0.2601 -0.0413
18987TIP3   OH278451   3.745   6.147  10.762 -0.2091  0.2159  0.2165
18987TIP3    H178452   3.659   6.190  10.769 -0.2554  0.0485  0.7233
18987TIP3    H278453   3.797   6.206  10.708 -0.5642  0.4550  0.1337
18988TIP3   OH278454   2.356   4.350  15.659 -0.1127 -0.1226 -0.4183
18988TIP3    H178455   2.421   4.293  15.618  0.9265  1.4001 -0.9723
18988TIP3    H278456   2.291   4.366  15.590  0.3102  0.4224 -0.7004
18989TIP3   OH278457   1.047   3.449  10.802  0.3481 -0.2104  0.4355
18989TIP3    H178458   1.003   3.381  10.751  0.3539 -0.5726  0.9110
18989TIP3    H278459   1.038   3.421  10.893 -0.2683  0.7808  0.6938
18990TIP3   OH278460   0.775   0.004   4.033  0.0125 -0.1238 -0.0238
18990TIP3    H178461   0.788  -0.011   3.939 -0.0492  2.4546 -0.5074
18990TIP3    H278462   0.691  -0.036   4.052 -0.0702 -0.4999 -1.1006
18991TIP3   OH278463   6.460   1.962  13.381 -0.5848 -0.3165  0.3563
18991TIP3    H178464   6.382   1.957  13.326 -0.7500 -0.2510  0.5793
18991TIP3    H278465   6.487   2.054  13.375 -2.0067  0.2982  2.2607
18992TIP3   OH278466   3.555   3.852  13.371 -0.8325 -0.1288 -0.5478
18992TIP3    H178467   3.480   3.882  13.422  1.6512  0.1136  3.3369
18992TIP3    H278468   3.549   3.757  13.372  0.3234 -0.2635  2.4098
18993TIP3   OH278469   5.101   4.847   0.913  0.8187 -0.4653  0.1568
18993TIP3    H178470   5.128   4.816   0.999  1.1691 -2.0007 -0.4733
18993TIP3    H278471   5.071   4.768   0.867  1.1589  0.2184 -1.3163
18994TIP3   OH278472   4.527   1.282   5.726  0.3927  0.5359  0.2101
18994TIP3    H178473   4.471   1.335   5.783 -0.0808  0.3334 -0.0652
18994TIP3    H278474   4.490   1.292   5.639 -0.3177 -1.0228  0.2939
18995TIP3   OH278475   3.695   2.533   6.060  1.1058 -0.2168  0.0847
18995TIP3    H178476   3.711   2.439   6.046  0.9584 -0.3673  0.8493
18995TIP3    H278477   3.665   2.538   6.151 -0.3698  0.3865 -0.4044
18996TIP3   OH278478   0.099   3.250  14.519  0.2872  0.3068 -0.7015
18996TIP3    H178479   0.135   3.163  14.536 -1.9380 -0.7570 -0.9844
18996TIP3    H278480   0.079   3.250  14.425 -2.3657 -0.0562 -0.2270
18997TIP3   OH278481   3.104   3.967  11.170 -0.4239 -0.7102  0.4403
18997TIP3    H178482   3.034   4.009  11.220 -1.6580 -1.4326 -0.6115
18997TIP3    H278483   3.132   3.894  11.226  0.0762  0.0604  1.2229
18998TIP3   OH278484   3.857   6.192   5.729  0.4586  0.1099  0.0178
18998TIP3    H178485   3.948   6.162   5.726  1.2249  2.3086 -1.1401
18998TIP3    H278486   3.850   6.241   5.812 -0.2389 -1.5318  0.9783
18999TIP3   OH278487   1.401   4.807   4.586  0.0914 -0.2133 -0.8137
18999TIP3    H178488   1.353   4.881   4.548  0.6988  1.0283  0.7219
18999TIP3    H278489   1.344   4.731   4.571 -1.1562  0.7835 -1.2845
19000TIP3   OH278490   5.360   4.764  13.780 -1.0055  0.2149  0.0647
19000TIP3    H178491   5.306   4.813  13.842 -1.0244  0.8684 -0.4530
19000TIP3    H278492   5.435   4.822  13.762  0.6452 -1.2444  1.8619
19001TIP3   OH278493   5.805   1.346   1.550 -0.0463  0.3628  0.3402
19001TIP3    H178494   5.855   1.352   1.468 -0.3073 -0.6642  0.0986
19001TIP3    H278495   5.830   1.425   1.598  0.4885  0.7369 -0.5135
19002TIP3   OH278496   5.544   0.083   1.077 -0.5892  0.3309  0.3672
19002TIP3    H178497   5.542   0.119   0.989  0.0633  2.3500  1.1123
19002TIP3    H278498   5.632   0.103   1.109 -0.6756 -0.7370  1.3507
19003TIP3   OH278499   6.804   5.831   0.607 -0.0640 -0.1039 -0.6479
19003TIP3    H178500   6.887   5.808   0.648  0.2012  1.3967 -0.2888
19003TIP3    H278501   6.765   5.896   0.665  0.2683  2.0066 -2.6307
19004TIP3   OH278502   5.304   5.857  11.134 -0.2743 -0.4616  0.3055
19004TIP3    H178503   5.251   5.928  11.096  1.8478  1.6745  1.0362
19004TIP3    H278504   5.333   5.805  11.059 -1.2613 -0.0979 -0.3421
19005TIP3   OH278505   0.364   3.525  14.787 -0.0444  0.4102  0.3068
19005TIP3    H178506   0.452   3.550  14.760 -0.0498  2.2276  1.8010
19005TIP3    H278507   0.317   3.511  14.704  1.6998 -1.0195 -0.5258
19006TIP3   OH278508   1.662   5.082   1.813 -0.6309 -0.3738 -0.3752
19006TIP3    H178509   1.630   5.164   1.851  0.9731  0.1282 -0.0496
19006TIP3    H278510   1.705   5.108   1.732  1.3736 -0.6358  0.5541
19007TIP3   OH278511   6.524   0.554  14.078  0.2106  0.1171 -0.2641
19007TIP3    H178512   6.499   0.645  14.091  1.8238  0.3519  2.0247
19007TIP3    H278513   6.620   0.555  14.080  0.2795 -1.5397 -0.9409
19008TIP3   OH278514   5.214   5.509  15.092 -0.2789 -0.4476 -0.4917
19008TIP3    H178515   5.207   5.602  15.114  0.9358 -0.5817  0.5637
19008TIP3    H278516   5.291   5.479  15.140 -0.5372 -1.9600 -0.9857
19009TIP3   OH278517   0.720   1.117  10.828 -0.2598 -0.2735  0.7815
19009TIP3    H178518   0.631   1.122  10.794  0.0609 -1.5486 -0.3272
19009TIP3    H278519   0.735   1.024  10.845  1.0041 -0.1393  0.5287
19010TIP3   OH278520   6.553   4.377   0.859 -0.6752 -0.1895 -0.2594
19010TIP3    H178521   6.545   4.315   0.932 -0.4433  0.8493  0.6952
19010TIP3    H278522   6.615   4.443   0.891 -0.3168  0.1148 -1.5415
19011TIP3   OH278523   4.352   2.093  15.565  0.5525  0.2806 -1.0506
19011TIP3    H178524   4.447   2.103  15.565  0.6650 -0.7124 -1.1064
19011TIP3    H278525   4.333   2.046  15.647  0.5490 -3.1412 -2.8450
19012TIP3   OH278526   2.526   3.600   2.010 -1.0017 -0.0745  0.2108
19012TIP3    H178527   2.592   3.548   2.056 -0.9081  1.6170  2.0886
19012TIP3    H278528   2.551   3.593   1.917  2.4512  1.2600  0.9015
19013TIP3   OH278529   1.702   2.551   1.766 -0.1071 -1.0566  0.4445
19013TIP3    H178530   1.756   2.499   1.826 -0.4811 -0.5517  1.2517
19013TIP3    H278531   1.646   2.487   1.722  0.8144 -1.5323 -0.0569
19014TIP3   OH278532   0.709   2.765   5.641  0.7027 -0.1017  0.4515
19014TIP3    H178533   0.706   2.714   5.722 -0.5050 -1.5597 -0.4517
19014TIP3    H278534   0.636   2.826   5.647  2.0370  1.4698  1.4515
19015TIP3   OH278535   2.846   1.987  11.449  0.1727  0.1435 -0.8212
19015TIP3    H178536   2.805   2.059  11.400 -0.1186  1.5774  1.3801
19015TIP3    H278537   2.933   2.019  11.471 -0.0515 -0.0441  0.4017
19016TIP3   OH278538   6.093   4.479  14.792 -0.3320 -0.0190 -0.9489
19016TIP3    H178539   6.025   4.534  14.831 -0.3990 -0.8186  0.0946
19016TIP3    H278540   6.106   4.515  14.704 -0.7454  1.3212 -0.4745
19017TIP3   OH278541   1.130   0.618   0.429 -0.3424  0.1789  0.3706
19017TIP3    H178542   1.139   0.593   0.520 -0.6255  3.1205  1.3132
19017TIP3    H278543   1.208   0.671   0.410 -1.3515  1.5022 -0.3283
19018TIP3   OH278544   3.305   3.115   3.252  0.3392 -0.4404 -0.0410
19018TIP3    H178545   3.250   3.179   3.207 -0.0769  0.8541  2.1678
19018TIP3    H278546   3.257   3.032   3.245 -0.8546  0.2264  0.0356
19019TIP3   OH278547   6.586   2.580   0.115 -0.3588 -0.0139 -0.3260
19019TIP3    H178548   6.626   2.627   0.188  2.6816  1.1719 -2.5324
19019TIP3    H278549   6.653   2.517   0.088 -2.3626 -2.1547 -0.6410
19020TIP3   OH278550   4.705   2.946  16.650  0.4225  0.0894 -0.1052
19020TIP3    H178551   4.644   2.996  16.596  0.8036  0.4595 -0.1954
19020TIP3    H278552   4.780   2.929  16.593 -0.3715 -2.0280 -0.6296
19021TIP3   OH278553   1.315   3.593  10.733  0.2929  0.1308  0.3200
19021TIP3    H178554   1.242   3.561  10.786  2.3067 -1.3450  2.4325
19021TIP3    H278555   1.336   3.520  10.675 -0.1836  0.7288 -0.6212
19022TIP3   OH278556   6.014   3.988  14.990 -0.4194 -0.2923 -0.1374
19022TIP3    H178557   5.929   4.024  15.015 -0.2860 -1.2192  1.7749
19022TIP3    H278558   6.062   4.064  14.956 -1.2257  0.6971  0.8541
19023TIP3   OH278559   3.380   1.878  15.368 -0.5593  0.4466 -0.6936
19023TIP3    H178560   3.404   1.958  15.415  0.5684  0.1645 -0.7754
19023TIP3    H278561   3.418   1.888  15.281 -0.5983 -0.0902 -0.7753
19024TIP3   OH278562   0.177   2.088  11.407 -0.0645  0.4092 -0.4269
19024TIP3    H178563   0.180   1.993  11.404 -2.0156  0.3295 -2.1588
19024TIP3    H278564   0.268   2.116  11.401  0.4785 -1.3337 -0.5705
19025TIP3   OH278565   2.767   6.500  16.399  0.5897  0.4293 -0.3624
19025TIP3    H178566   2.809   6.583  16.377 -0.4333  0.3093 -3.2738
19025TIP3    H278567   2.830   6.433  16.372 -0.5351  0.2814 -2.9240
19026TIP3   OH278568   3.714   0.719  10.247  0.1058  0.4618 -0.2085
19026TIP3    H178569   3.798   0.750  10.213  0.5106  0.7333  0.9879
19026TIP3    H278570   3.657   0.796  10.245  0.2589  0.5845  0.1298
19027TIP3   OH278571   0.074   0.000   0.948  0.5029  0.4370  0.3114
19027TIP3    H178572   0.051  -0.088   0.977 -0.0641  0.4179 -0.1762
19027TIP3    H278573  -0.009   0.048   0.950  0.6039  0.6515 -0.5132
19028TIP3   OH278574   0.231   5.939  15.322 -0.4061  0.0738 -0.6914
19028TIP3    H178575   0.290   5.881  15.274 -1.3398 -0.7035 -0.9543
19028TIP3    H278576   0.145   5.898  15.312 -0.9257  0.9545  0.0151
19029TIP3   OH278577   6.716   1.187   1.222  0.0794 -0.3167  0.0369
19029TIP3    H178578   6.624   1.210   1.235  0.2531  0.5415 -0.1453
19029TIP3    H278579   6.761   1.272   1.219  0.8092 -0.7083 -0.3571
19030TIP3   OH278580   4.384   2.832   5.104 -0.0476 -0.1187  0.4697
19030TIP3    H178581   4.418   2.749   5.138  1.3848  0.5935  0.8334
19030TIP3    H278582   4.312   2.854   5.163  1.0011 -0.0055  1.7688
19031TIP3   OH278583   4.088   1.490   0.995 -0.1860  0.1742 -0.4523
19031TIP3    H178584   4.004   1.488   1.040 -0.3773 -2.0730 -0.7980
19031TIP3    H278585   4.152   1.505   1.064 -0.4881 -3.0193  0.6973
19032TIP3   OH278586   1.735   0.610   4.089 -0.4156  0.2963 -0.1108
19032TIP3    H178587   1.738   0.574   4.000  0.7397 -2.0780  0.7894
19032TIP3    H278588   1.810   0.670   4.093  0.0482 -0.2443 -0.5010
19033TIP3   OH278589   0.394   5.304  16.653  0.2623 -0.5125  0.0845
19033TIP3    H178590   0.309   5.339  16.625  0.8912 -0.3736 -1.8499
19033TIP3    H278591   0.376   5.213  16.675 -0.1692 -0.9643 -1.8975
19034TIP3   OH278592   4.077   2.655   0.453 -0.5189 -0.2532  0.3116
19034TIP3    H178593   4.084   2.721   0.384 -0.1098 -0.1902  0.4111
19034TIP3    H278594   3.985   2.660   0.481 -0.6922 -0.2885 -0.2330
19035TIP3   OH278595   1.212   6.466  13.518 -0.0695  0.5119  0.2510
19035TIP3    H178596   1.299   6.458  13.558  0.6831 -0.5222 -1.4545
19035TIP3    H278597   1.215   6.406  13.443 -1.7225  1.6389 -0.7769
19036TIP3   OH278598   4.382   0.477   4.313 -0.5279 -0.3920 -0.1442
19036TIP3    H178599   4.343   0.469   4.400  0.7495  1.2935  0.6617
19036TIP3    H278600   4.349   0.561   4.280 -0.0356 -0.4344 -0.7617
19037TIP3   OH278601   5.315   0.797  11.968 -0.0921  0.1731 -0.0132
19037TIP3    H178602   5.367   0.816  11.889 -0.1148  1.7975  0.3149
19037TIP3    H278603   5.249   0.867  11.969 -0.9735 -0.6496  0.7025
19038TIP3   OH278604   6.617   4.170   0.517 -0.0242 -0.1072  0.5637
19038TIP3    H178605   6.580   4.120   0.589  0.1540 -0.7965  0.1783
19038TIP3    H278606   6.543   4.188   0.459  0.3588 -2.3296 -0.7092
19039TIP3   OH278607   2.045   1.611  12.955 -0.0989 -0.2927 -0.2611
19039TIP3    H178608   2.131   1.596  12.917  1.8029  2.2967  2.5737
19039TIP3    H278609   2.004   1.524  12.958  3.2718 -2.0086  0.1874
19040TIP3   OH278610   4.614   2.562  12.985  0.2955  0.2042  0.1569
19040TIP3    H178611   4.697   2.576  13.031  0.2313  0.4732  0.1939
19040TIP3    H278612   4.619   2.619  12.908  0.2951 -0.0507 -0.0315
19041TIP3   OH278613   5.011   0.268   2.297  0.3383 -0.4974 -0.1380
19041TIP3    H178614   5.028   0.279   2.203 -1.3389 -0.9977 -0.5309
19041TIP3    H278615   4.962   0.345   2.322  0.5686 -0.4851  0.2755
19042TIP3   OH278616   6.172   2.901   3.327 -0.4142  0.0244 -0.3168
19042TIP3    H178617   6.170   2.946   3.242 -1.4343  0.9609  0.1818
19042TIP3    H278618   6.215   2.963   3.386 -0.9888 -0.0343  0.1692
19043TIP3   OH278619   5.202   3.360  15.457  0.1984  0.1771  0.5505
19043TIP3    H178620   5.281   3.409  15.436  0.3188  0.0225  0.6345
19043TIP3    H278621   5.229   3.268  15.455  0.0947  0.1367  0.8739
19044TIP3   OH278622   2.752   1.128   5.696  0.2120  0.1481  0.1962
19044TIP3    H178623   2.801   1.208   5.679  0.0468  0.4816  1.2460
19044TIP3    H278624   2.787   1.095   5.778 -0.5139 -0.2400  0.3619
19045TIP3   OH278625   0.949   5.024  13.097 -0.0451  0.8173 -0.4095
19045TIP3    H178626   0.855   5.020  13.113  0.0543 -1.1093  0.0394
19045TIP3    H278627   0.981   5.089  13.160 -0.9303  0.5902  0.3059
19046TIP3   OH278628   1.911   5.827   2.189  0.2942 -0.1655  0.1103
19046TIP3    H178629   2.004   5.828   2.168  0.0382  0.6342 -1.1351
19046TIP3    H278630   1.890   5.734   2.201  1.3308 -0.3187  0.9033
19047TIP3   OH278631   2.705   5.815  14.031 -0.3964  0.8362  0.7297
19047TIP3    H178632   2.743   5.746  13.976 -2.7178  1.0474 -1.3171
19047TIP3    H278633   2.736   5.796  14.119  1.6146 -0.9204 -0.2697
19048TIP3   OH278634   5.802   3.220   2.105 -0.3210 -0.0389 -0.2316
19048TIP3    H178635   5.896   3.231   2.116  0.7201 -4.3111 -2.5506
19048TIP3    H278636   5.767   3.219   2.195  1.7279  1.8637  0.6681
19049TIP3   OH278637   4.858   2.050   6.430  0.6403 -0.2756 -0.2750
19049TIP3    H178638   4.945   2.089   6.438 -0.3859  2.0736  0.2503
19049TIP3    H278639   4.811   2.108   6.370 -0.3616 -1.9301 -1.1658
19050TIP3   OH278640   3.873   3.617  11.872 -0.4388 -0.4792  0.5975
19050TIP3    H178641   3.928   3.538  11.871 -0.8525 -0.9399  3.6695
19050TIP3    H278642   3.928   3.685  11.833  1.1655 -1.6077  0.7738
19051TIP3   OH278643   3.860   1.699   0.986  0.4338 -0.5768 -0.3861
19051TIP3    H178644   3.834   1.623   1.037 -1.7147 -0.0893 -0.6765
19051TIP3    H278645   3.947   1.677   0.954  0.1112 -2.6588  0.0072
19052TIP3   OH278646   4.034   3.790   5.952 -0.5227 -0.5070 -0.6394
19052TIP3    H178647   3.967   3.784   6.021 -0.8314  0.6915 -0.8150
19052TIP3    H278648   4.073   3.876   5.965  1.3362 -1.3523 -0.2524
19053TIP3   OH278649   6.737   0.428   2.458  0.2074 -0.4157 -0.2732
19053TIP3    H178650   6.830   0.408   2.461  0.5232  1.0011  0.3301
19053TIP3    H278651   6.723   0.469   2.373  0.8898  2.4948  0.8892
19054TIP3   OH278652   1.974   3.464   0.533 -0.1462  0.0637 -0.0743
19054TIP3    H178653   1.979   3.557   0.555  0.7572 -0.1878  0.8953
19054TIP3    H278654   2.048   3.449   0.475 -0.6180  0.0476 -0.6871
19055TIP3   OH278655   1.240   3.158  16.752  0.1058  0.0098  0.0306
19055TIP3    H178656   1.188   3.126  16.826  2.1072 -2.8046  0.4286
19055TIP3    H278657   1.177   3.200  16.694 -1.8146  0.7688  2.5018
19056TIP3   OH278658   2.971   2.020   4.264 -0.1623  0.6197 -0.2172
19056TIP3    H178659   2.910   1.977   4.204  0.9471 -0.9212 -0.3123
19056TIP3    H278660   2.930   2.103   4.285 -2.1986 -0.2720 -0.4259
19057TIP3   OH278661   1.000   5.095   3.151 -0.6254  0.6317  0.2171
19057TIP3    H178662   1.089   5.081   3.184 -0.3856  1.7188  0.0916
19057TIP3    H278663   0.946   5.033   3.201 -0.1205  1.4950  1.9406
19058TIP3   OH278664   4.920   2.290  12.661  0.4303  0.3899 -0.1504
19058TIP3    H178665   4.848   2.305  12.722 -0.1784 -2.8475  0.1341
19058TIP3    H278666   4.895   2.339  12.582 -3.3486 -2.1676 -0.8471
19059TIP3   OH278667   0.277   0.704   3.253  0.5503 -0.1825  0.4300
19059TIP3    H178668   0.301   0.784   3.208  0.0417 -0.3526 -0.1691
19059TIP3    H278669   0.330   0.636   3.212 -0.1960 -0.3994 -0.2011
19060TIP3   OH278670   2.716   6.235   0.372 -0.1967  0.6432  0.2853
19060TIP3    H178671   2.683   6.176   0.304  0.3794 -0.6745  1.1092
19060TIP3    H278672   2.709   6.184   0.453  1.5464  1.1999  0.8340
19061TIP3   OH278673   1.039   5.143   2.417 -0.6997 -0.3599 -0.5082
19061TIP3    H178674   0.988   5.220   2.391 -0.8673 -0.1387  0.4335
19061TIP3    H278675   0.988   5.068   2.386 -0.2301 -0.0964 -1.9891
19062TIP3   OH278676   5.868   3.264  16.763  0.5609  0.4371  0.2771
19062TIP3    H178677   5.829   3.339  16.719 -0.5200 -0.3945 -0.2345
19062TIP3    H278678   5.882   3.199  16.694  0.0490 -0.4063  0.9393
19063TIP3   OH278679   5.258   5.622   4.808  0.1933  0.9284 -0.1376
19063TIP3    H178680   5.245   5.712   4.839 -1.1561 -0.0701  2.4095
19063TIP3    H278681   5.239   5.627   4.714 -0.9867  3.1034  0.1416
19064TIP3   OH278682   5.569   6.027  10.959 -0.6595 -0.7635  0.1781
19064TIP3    H178683   5.562   5.992  10.870 -0.7809 -2.2566  0.7314
19064TIP3    H278684   5.479   6.036  10.989 -0.8279  2.9721 -0.9409
19065TIP3   OH278685   0.822   5.154  16.008  0.9587 -0.3671 -0.0822
19065TIP3    H178686   0.858   5.078  15.962  0.0780 -0.1480 -1.1776
19065TIP3    H278687   0.743   5.177  15.958  0.3326  0.2868  1.1702
19066TIP3   OH278688   0.521   5.828  11.897  0.0833  0.2600  0.1770
19066TIP3    H178689   0.538   5.910  11.944  0.6658  0.3655 -0.2123
19066TIP3    H278690   0.594   5.771  11.923  0.2484  0.2210 -0.3611
19067TIP3   OH278691   2.326   2.657   3.201  0.0389  0.1632  0.0689
19067TIP3    H178692   2.409   2.615   3.179 -0.7442 -0.7365 -1.3112
19067TIP3    H278693   2.290   2.685   3.117 -2.0739 -1.4644  0.3490
19068TIP3   OH278694   6.689   5.489   2.840  0.3307 -0.8851 -0.1940
19068TIP3    H178695   6.647   5.404   2.822 -1.1874 -0.1079 -0.5435
19068TIP3    H278696   6.663   5.510   2.929 -0.0308 -0.3978 -0.4091
19069TIP3   OH278697   5.108   4.392  13.191  0.1999  0.6990 -0.3681
19069TIP3    H178698   5.190   4.346  13.209 -0.4334 -0.7291 -0.9646
19069TIP3    H278699   5.074   4.350  13.112 -2.4451 -0.6713  1.3323
19070TIP3   OH278700   3.624   0.320   5.007  0.6274  0.1787  0.3330
19070TIP3    H178701   3.597   0.366   4.928 -0.1811 -1.2579 -0.2724
19070TIP3    H278702   3.543   0.303   5.054  0.8860 -0.7442  0.4669
19071TIP3   OH278703   3.296   2.119   0.914 -0.3617  0.7958  0.3114
19071TIP3    H178704   3.324   2.211   0.916  0.6571  0.4914  2.1403
19071TIP3    H278705   3.354   2.075   0.976 -0.9240 -1.0753 -0.4302
19072TIP3   OH278706   4.884   1.137   4.666  0.0710 -0.2643  0.5967
19072TIP3    H178707   4.962   1.164   4.715 -0.8558 -0.2123  2.1202
19072TIP3    H278708   4.826   1.213   4.669  0.7838  0.5465 -2.5002
19073TIP3   OH278709   6.526   3.787  12.325  0.4038  0.2138 -0.4430
19073TIP3    H178710   6.590   3.716  12.330  0.3305  0.0972 -1.0247
19073TIP3    H278711   6.489   3.780  12.237 -1.1585 -0.3779  0.2089
19074TIP3   OH278712   5.940   6.553   3.311 -0.9807 -0.2656  0.2551
19074TIP3    H178713   5.944   6.462   3.282 -0.9224 -0.4223  0.7547
19074TIP3    H278714   5.965   6.550   3.403  0.4299  0.4253 -0.0785
19075TIP3   OH278715   4.062   4.330  14.775  0.1879 -0.1150 -0.4961
19075TIP3    H178716   4.026   4.415  14.798  0.9715  0.5161 -1.5252
19075TIP3    H278717   4.122   4.347  14.703  0.0895 -1.5912 -0.9777
19076TIP3   OH278718   1.017   3.936  16.959  0.5988  0.7460  0.0811
19076TIP3    H178719   0.989   3.914  17.048 -0.9400 -1.5784 -0.8888
19076TIP3    H278720   1.112   3.928  16.961  0.6625  1.5460  1.6865
19077TIP3   OH278721   6.270   2.008  16.716 -0.1533  0.4324 -0.2054
19077TIP3    H178722   6.314   1.936  16.669 -1.0302 -0.2109 -0.0720
19077TIP3    H278723   6.276   1.983  16.808 -1.1721  0.1064 -0.2159
19078TIP3   OH278724   2.431   3.411   3.038 -0.2116 -0.0252 -0.4115
19078TIP3    H178725   2.464   3.492   3.000 -1.8372  0.9001  0.0129
19078TIP3    H278726   2.395   3.363   2.964  1.2965 -0.6742 -0.7542
19079TIP3   OH278727   4.636   4.473   3.640  0.2016  0.3521  0.0156
19079TIP3    H178728   4.719   4.501   3.678 -0.0799  0.6875  0.3925
19079TIP3    H278729   4.623   4.530   3.564  2.1495 -2.1168 -2.3899
19080TIP3   OH278730   5.506   1.532  14.412 -0.1642 -0.1442  0.4675
19080TIP3    H178731   5.536   1.477  14.485 -1.7869  2.3600  3.2315
19080TIP3    H278732   5.558   1.612  14.418 -0.9599  0.4794 -0.5589
19081TIP3   OH278733   6.364   6.725  13.203  0.0521  0.4736 -0.4638
19081TIP3    H178734   6.388   6.818  13.207  0.7622  0.2728  0.1199
19081TIP3    H278735   6.439   6.679  13.241  0.0569 -0.4083 -1.4704
19082TIP3   OH278736   5.331   4.210  13.144  0.4151  0.2396  0.4943
19082TIP3    H178737   5.259   4.195  13.084 -0.5878  3.0994  0.8128
19082TIP3    H278738   5.409   4.180  13.097 -0.6827 -0.5287 -0.9032
19083TIP3   OH278739   3.720   2.114   4.258 -0.3155  0.0750 -0.2303
19083TIP3    H178740   3.713   2.079   4.346 -1.7403  1.6527  0.3441
19083TIP3    H278741   3.629   2.117   4.226  0.1657 -0.4571 -1.7628
19084TIP3   OH278742   5.240   3.086   3.138 -0.1996 -0.1808  0.6985
19084TIP3    H178743   5.296   3.039   3.076  0.1928 -0.4858  1.2729
19084TIP3    H278744   5.175   3.021   3.165  0.0506 -0.2633  1.1242
19085TIP3   OH278745   3.705   0.523   1.196 -0.2076  0.3300 -0.4672
19085TIP3    H178746   3.767   0.551   1.129 -1.4368 -0.6419 -2.0911
19085TIP3    H278747   3.666   0.443   1.161 -2.5211  1.0105  0.3457
19086TIP3   OH278748   3.722   2.066   5.641  0.3719 -0.3152  0.5631
19086TIP3    H178749   3.686   2.130   5.702 -0.4760 -0.4868  0.2552
19086TIP3    H278750   3.810   2.048   5.674  0.5200  0.8039  0.7965
19087TIP3   OH278751   6.606   2.641  16.038 -0.2941 -0.2559 -0.3156
19087TIP3    H178752   6.615   2.594  15.955 -1.0229 -0.0016 -0.5465
19087TIP3    H278753   6.695   2.651  16.069  0.1475  1.1597 -1.9057
19088TIP3   OH278754   4.698   3.391  13.206 -0.1311 -0.2851 -0.3387
19088TIP3    H178755   4.737   3.413  13.291  2.1213 -0.2310 -1.3062
19088TIP3    H278756   4.656   3.307  13.221 -1.2506  0.4994  1.2284
19089TIP3   OH278757   6.131   0.138   1.775 -0.0786 -0.3790  0.1318
19089TIP3    H178758   6.178   0.219   1.791  1.3866 -1.1670 -0.0017
19089TIP3    H278759   6.140   0.124   1.681  0.0103 -0.8969  0.2165
19090TIP3   OH278760   3.558   0.148   0.310  0.1715 -0.0568  0.1750
19090TIP3    H178761   3.561   0.224   0.368 -0.8100 -0.2396  0.4982
19090TIP3    H278762   3.613   0.171   0.236 -2.2070  2.1525 -1.0770
19091TIP3   OH278763   6.209   6.484  11.592 -0.3719  0.2832  0.0695
19091TIP3    H178764   6.116   6.480  11.611 -0.4534  0.1382 -0.3377
19091TIP3    H278765   6.237   6.392  11.591 -0.0361  0.3650  1.0702
19092TIP3   OH278766   1.156   5.873   1.600 -0.4960 -0.3266  0.8560
19092TIP3    H178767   1.219   5.814   1.560  1.0410  1.0079  1.1890
19092TIP3    H278768   1.118   5.823   1.672 -1.4848 -1.9034 -0.6783
19093TIP3   OH278769   1.965   6.313   5.991  0.6087  0.4919  0.4876
19093TIP3    H178770   2.055   6.339   6.008  0.9727 -0.4230  0.0466
19093TIP3    H278771   1.938   6.365   5.915  0.9450  0.4055  0.3066
19094TIP3   OH278772   4.834   0.963   0.233 -0.1049  0.3208  0.1393
19094TIP3    H178773   4.927   0.964   0.257 -0.4216 -1.8745  1.7229
19094TIP3    H278774   4.793   1.026   0.293  0.2126  0.6021  0.0647
19095TIP3   OH278775   2.322   2.387  14.807  0.3045  0.0131 -0.1093
19095TIP3    H178776   2.392   2.325  14.826  1.9358  1.1656 -1.9986
19095TIP3    H278777   2.367   2.466  14.778 -1.7364  1.6220  0.8106
19096TIP3   OH278778   1.957   3.648   4.141  0.5245  0.6119 -0.0640
19096TIP3    H178779   2.033   3.683   4.187  2.2699 -1.5683 -1.0208
19096TIP3    H278780   1.980   3.657   4.048 -0.8002  0.6954 -0.4008
19097TIP3   OH278781   2.729   0.169  14.192  0.0999  0.6958 -0.8605
19097TIP3    H178782   2.651   0.193  14.243 -1.1306 -2.8244 -0.8083
19097TIP3    H278783   2.698   0.102  14.131  2.8193  0.2595 -1.9162
19098TIP3   OH278784   3.254   0.850  13.426 -0.7352  0.4035 -0.5663
19098TIP3    H178785   3.212   0.936  13.421  2.7716  2.3189  0.1569
19098TIP3    H278786   3.260   0.832  13.520 -1.1785 -0.5730 -0.7033
19099TIP3   OH278787   3.957   0.359  14.653  0.5043  0.5116 -0.2173
19099TIP3    H178788   3.978   0.312  14.734  2.2321  1.4688 -0.0402
19099TIP3    H278789   3.910   0.296  14.599  0.1039 -0.4250  1.1835
19100TIP3   OH278790   3.310   1.404  13.682  0.5944 -0.2924 -0.1951
19100TIP3    H178791   3.287   1.412  13.589 -0.5306  0.8846  0.1505
19100TIP3    H278792   3.402   1.380  13.682  0.3292 -1.4654 -1.6316
19101TIP3   OH278793   4.183   1.971   3.569  0.1518 -0.1195  0.5215
19101TIP3    H178794   4.191   2.030   3.644 -2.1945  0.8629  0.0745
19101TIP3    H278795   4.233   2.013   3.499  0.6297  0.0218  0.9499
19102TIP3   OH278796   1.520   2.314  15.501 -0.3063  0.3914  0.5221
19102TIP3    H178797   1.505   2.407  15.486  0.1618  0.4724  0.5469
19102TIP3    H278798   1.480   2.271  15.425 -0.2581  0.6330  0.3587
19103TIP3   OH278799   3.348   0.231  13.649  0.3203 -0.3425  0.9937
19103TIP3    H178800   3.271   0.244  13.594  0.3496 -1.6226  0.6137
19103TIP3    H278801   3.313   0.226  13.738 -0.0083 -0.6220  0.8540
19104TIP3   OH278802   3.429   0.525  16.376 -0.4978 -0.4617 -0.2967
19104TIP3    H178803   3.451   0.449  16.322 -1.3023  0.6624 -2.2810
19104TIP3    H278804   3.513   0.557  16.408 -0.1971 -3.0541  1.9690
19105TIP3   OH278805   4.314   2.253   5.688 -0.0682  0.1120  0.0336
19105TIP3    H178806   4.237   2.305   5.714  0.5043  0.3372  1.3784
19105TIP3    H278807   4.365   2.246   5.768  0.3952 -1.6462 -0.3821
19106TIP3   OH278808   3.006   4.111  12.074  0.0461  0.4504 -0.0069
19106TIP3    H178809   3.073   4.044  12.084 -1.2504 -1.1668 -1.5531
19106TIP3    H278810   3.031   4.159  11.995  0.5229  1.2884  0.6353
19107TIP3   OH278811   4.680   5.408   2.128 -0.1281 -0.3791 -0.2011
19107TIP3    H178812   4.610   5.417   2.193  0.0703 -0.2118 -0.0119
19107TIP3    H278813   4.741   5.346   2.167 -1.5951 -2.9075 -1.5789
19108TIP3   OH278814   0.560   5.419   3.014  0.0265  0.4020 -0.2298
19108TIP3    H178815   0.492   5.368   2.971  1.1548 -0.6704 -0.8316
19108TIP3    H278816   0.520   5.452   3.094 -0.7831 -1.3911  0.1480
19109TIP3   OH278817   1.150   3.952  10.599  0.5805  0.0605 -0.6539
19109TIP3    H178818   1.133   4.035  10.644  0.5138  0.4762 -1.4280
19109TIP3    H278819   1.110   3.885  10.656  1.8371  0.3960  0.6790
19110TIP3   OH278820   3.129   6.167  11.382 -0.0151 -0.3757  0.8799
19110TIP3    H178821   3.089   6.242  11.427 -1.2661 -1.4974  1.7205
19110TIP3    H278822   3.215   6.159  11.422 -0.6586 -0.6278  2.3069
19111TIP3   OH278823   0.676   0.783  13.543 -0.5103 -0.0394 -0.1296
19111TIP3    H178824   0.623   0.767  13.465 -2.3701  0.0713  1.0497
19111TIP3    H278825   0.763   0.803  13.509 -1.1212 -0.5609 -2.1379
19112TIP3   OH278826   3.120   1.758  11.459  0.1331 -0.5174 -0.3982
19112TIP3    H178827   3.214   1.764  11.442  0.1017 -2.1883 -1.3531
19112TIP3    H278828   3.109   1.799  11.545  2.1610 -2.6619  1.0144
19113TIP3   OH278829   4.840   3.323  12.640 -0.1761  0.6742 -0.3510
19113TIP3    H178830   4.885   3.266  12.577  1.2206 -0.8563  1.9123
19113TIP3    H278831   4.748   3.301  12.630  0.1204 -0.3010 -1.1495
19114TIP3   OH278832   3.096   1.440   2.095 -0.3528  0.8055  0.1898
19114TIP3    H178833   3.100   1.524   2.141 -1.3239  0.7970  0.3063
19114TIP3    H278834   3.125   1.376   2.161  0.0497  1.0027  0.2075
19115TIP3   OH278835   6.602   3.571  16.535  0.3266 -0.4341 -0.2397
19115TIP3    H178836   6.683   3.621  16.527 -0.3748  0.7640 -0.0497
19115TIP3    H278837   6.628   3.481  16.517  1.8789 -0.2154  0.7214
19116TIP3   OH278838   1.752   0.793   2.475 -0.0767  0.4454 -0.2070
19116TIP3    H178839   1.831   0.846   2.486 -0.5420  0.8937  1.2008
19116TIP3    H278840   1.778   0.705   2.504  0.0543  0.4682 -0.2556
19117TIP3   OH278841   2.242   6.776   1.259 -0.0003  0.4452 -0.5946
19117TIP3    H178842   2.311   6.739   1.315 -0.3325  1.8460  0.8278
19117TIP3    H278843   2.288   6.837   1.201  0.2938 -0.7301 -1.6462
19118TIP3   OH278844   6.349   4.542   4.996 -0.4994 -0.0816 -0.4604
19118TIP3    H178845   6.263   4.501   5.011  0.4702 -1.9712  0.2282
19118TIP3    H278846   6.360   4.601   5.071 -1.5048  0.8007 -0.9709
19119TIP3   OH278847   3.363   1.566  11.774  0.3632  0.7752  0.5660
19119TIP3    H178848   3.335   1.657  11.781  0.8880  0.8560  2.0423
19119TIP3    H278849   3.288   1.520  11.735  0.3787  1.9427 -0.9169
19120TIP3   OH278850   4.791   3.670   5.055 -0.1674  0.1146  0.3120
19120TIP3    H178851   4.796   3.647   5.148  0.2130  0.2870  0.3321
19120TIP3    H278852   4.870   3.633   5.017  0.3944  1.2841  0.3175
19121TIP3   OH278853   2.338   4.941   6.542 -0.3694  0.0045  0.0046
19121TIP3    H178854   2.360   5.028   6.575 -0.3733 -0.0983  0.2822
19121TIP3    H278855   2.416   4.888   6.559 -0.7931 -0.3482  0.9468
19122TIP3   OH278856   1.205   6.163  14.034  0.6944  0.4974  0.1386
19122TIP3    H178857   1.163   6.145  13.950 -1.9603  1.4732  1.1801
19122TIP3    H278858   1.296   6.135  14.021  0.2343  0.0478 -2.8334
19123TIP3   OH278859   1.523   2.417   4.141  0.2761 -0.3222 -0.0167
19123TIP3    H178860   1.458   2.445   4.076 -1.2814 -2.5714  0.4628
19123TIP3    H278861   1.483   2.341   4.183  1.1075  1.1331  3.7714
19124TIP3   OH278862   0.728   6.808   1.987  0.5739 -0.1440  0.4633
19124TIP3    H178863   0.716   6.779   2.078 -1.0363  1.4228  0.8024
19124TIP3    H278864   0.640   6.807   1.950  1.0722  0.2502 -0.7573
19125TIP3   OH278865   5.318   4.690   1.599 -0.2263 -0.0182  0.3593
19125TIP3    H178866   5.390   4.742   1.635  0.5658 -0.3303 -0.7279
19125TIP3    H278867   5.326   4.604   1.640 -0.5912  0.2407  0.9844
19126TIP3   OH278868   1.580   4.641  16.923  0.2811  0.1712  0.1604
19126TIP3    H178869   1.494   4.681  16.907  1.0194  1.8589  0.2238
19126TIP3    H278870   1.612   4.617  16.836  0.5557  1.3135 -0.0638
19127TIP3   OH278871   1.677   5.529  16.959 -0.2502 -0.5714 -0.6564
19127TIP3    H178872   1.622   5.604  16.980 -2.5688 -2.5746  0.9311
19127TIP3    H278873   1.704   5.494  17.044 -0.2764 -2.2691 -1.3034
19128TIP3   OH278874   3.744   0.885   0.550  0.4467 -0.7938  0.5767
19128TIP3    H178875   3.711   0.797   0.531 -2.3680  0.2874 -0.0459
19128TIP3    H278876   3.768   0.921   0.465 -1.3729  0.0811  0.3967
19129TIP3   OH278877   6.688   3.190  11.639 -0.4197  0.7239  0.6290
19129TIP3    H178878   6.623   3.260  11.641 -0.2304  0.8780  2.1227
19129TIP3    H278879   6.637   3.111  11.657 -0.2826  0.7903  1.3485
19130TIP3   OH278880   2.525   2.808  16.830  0.5859  0.2437  0.1155
19130TIP3    H178881   2.470   2.783  16.904  2.1527 -1.2050  0.8559
19130TIP3    H278882   2.472   2.789  16.753  0.9541 -3.8726  0.6808
19131TIP3   OH278883   5.529   2.923   5.932 -0.5332 -0.2960 -0.0589
19131TIP3    H178884   5.553   2.851   5.873 -1.8512 -1.0704  0.2948
19131TIP3    H278885   5.452   2.890   5.979 -0.2641  0.7880  1.1911
19132TIP3   OH278886   5.729   5.679   1.442 -0.2291  0.5070  0.3220
19132TIP3    H178887   5.786   5.745   1.403  2.5797 -1.6333  0.4776
19132TIP3    H278888   5.756   5.675   1.534 -1.4321  0.2021  0.6801
19133TIP3   OH278889   5.127   4.374   5.129  0.0584  0.2480  0.2461
19133TIP3    H178890   5.108   4.448   5.188  0.0976 -0.9936  1.8842
19133TIP3    H278891   5.065   4.306   5.154 -0.3888 -0.1098 -1.6607
19134TIP3   OH278892   4.494   6.524   4.293 -0.2853  0.1683 -0.2519
19134TIP3    H178893   4.454   6.609   4.312  2.6859  1.1491  2.6882
19134TIP3    H278894   4.553   6.541   4.219  1.7289  1.3063  1.5174
19135TIP3   OH278895   0.717   0.280   1.619  0.3568 -0.2303 -0.0333
19135TIP3    H178896   0.719   0.244   1.531  0.8989 -2.4128  0.8016
19135TIP3    H278897   0.624   0.298   1.636  0.1639 -0.5144 -0.7777
19136TIP3   OH278898   2.105   0.112  14.341  0.0171  0.1107  0.3720
19136TIP3    H178899   2.036   0.084  14.401 -0.3384  0.0519 -0.0610
19136TIP3    H278900   2.182   0.062  14.368 -0.3659 -0.5751  0.2150
19137TIP3   OH278901   5.917   3.840  15.548 -0.0618  0.3885  0.3732
19137TIP3    H178902   5.983   3.825  15.616 -0.9434 -0.4892  1.0698
19137TIP3    H278903   5.958   3.900  15.487  1.6252 -0.6231  0.4512
19138TIP3   OH278904   2.092   4.729   0.462 -0.2348  0.1786 -0.5826
19138TIP3    H178905   2.130   4.755   0.546 -0.9060 -1.5800  0.3070
19138TIP3    H278906   2.157   4.756   0.397 -0.5246  3.3158  0.2615
19139TIP3   OH278907   4.594   1.026   4.672 -0.1078 -0.6505  0.2979
19139TIP3    H178908   4.575   0.979   4.754 -1.0115 -2.2193 -0.7544
19139TIP3    H278909   4.549   1.109   4.681  0.0429 -0.6760  1.5002
19140TIP3   OH278910   2.517   0.588   5.221 -0.3347 -0.5681  0.2398
19140TIP3    H178911   2.429   0.569   5.252 -0.1338 -1.2054  0.4232
19140TIP3    H278912   2.573   0.571   5.296  0.0321 -0.9692 -0.1187
19141TIP3   OH278913   1.169   0.957  12.110  0.1889  0.0915 -0.1275
19141TIP3    H178914   1.166   1.049  12.082  0.8514  0.5383  1.1785
19141TIP3    H278915   1.232   0.916  12.050 -1.1816  0.1132 -1.6512
19142TIP3   OH278916   5.423   2.436  11.997  0.1703  0.0416  0.5986
19142TIP3    H178917   5.444   2.343  11.996 -0.7544 -0.1855 -0.7813
19142TIP3    H278918   5.469   2.470  12.073  1.5217 -1.3011  0.4299
19143TIP3   OH278919   5.344   5.703  12.098 -0.2800 -0.7233 -0.2626
19143TIP3    H178920   5.401   5.639  12.054 -1.3752 -0.6115 -1.9468
19143TIP3    H278921   5.256   5.670  12.084 -0.7043 -0.4043  1.5094
19144TIP3   OH278922   3.618   5.951  16.808 -0.3038  0.0698 -0.4098
19144TIP3    H178923   3.536   5.946  16.859  0.2481 -2.1956  0.3630
19144TIP3    H278924   3.665   6.025  16.847 -2.1534  1.7883 -1.2289
19145TIP3   OH278925   2.059   2.681   4.328  0.2879  0.6659  0.1859
19145TIP3    H178926   2.089   2.606   4.278  1.0154  0.7712  0.4504
19145TIP3    H278927   1.979   2.651   4.371  0.6394 -0.0017  0.3928
19146TIP3   OH278928   5.299   2.305   4.275 -0.4134 -0.2993  0.0127
19146TIP3    H178929   5.242   2.315   4.351 -3.8209  2.7399 -2.5393
19146TIP3    H278930   5.366   2.374   4.286 -0.1885 -0.6270  0.7406
19147TIP3   OH278931   0.528   5.093   5.239  0.1386 -0.6434 -0.3071
19147TIP3    H178932   0.556   5.085   5.330  0.2612 -0.1355 -0.2983
19147TIP3    H278933   0.435   5.115   5.244  0.8135  2.6638 -0.1914
19148TIP3   OH278934   0.482   1.828   4.233  0.3335 -0.2134 -0.2281
19148TIP3    H178935   0.431   1.757   4.192  2.1971 -1.4753 -0.4711
19148TIP3    H278936   0.475   1.901   4.172 -0.9758 -0.4221 -0.3567
19149TIP3   OH278937   1.036   1.105   4.957  0.1842  0.0106 -0.3705
19149TIP3    H178938   1.013   1.106   4.865  1.1237  1.5820 -0.6229
19149TIP3    H278939   1.027   1.196   4.985  1.3968 -0.1659  0.6907
19150TIP3   OH278940   6.495   3.936   2.503 -0.1912  0.5193 -0.3236
19150TIP3    H178941   6.556   3.891   2.562 -1.7171 -1.0107  0.1849
19150TIP3    H278942   6.534   4.022   2.488  1.1916  0.2375  1.3853
19151TIP3   OH278943   0.509   6.032  12.065  0.5441  0.1065  0.1037
19151TIP3    H178944   0.556   6.104  12.106  1.4555 -0.5527  0.2473
19151TIP3    H278945   0.418   6.061  12.062  0.5847  0.5196  1.8318
19152TIP3   OH278946   5.691   6.497  14.828  0.3096 -0.6005  0.1694
19152TIP3    H178947   5.702   6.587  14.857 -1.2379 -0.0155 -0.8903
19152TIP3    H278948   5.753   6.447  14.880  1.5573  1.1351  0.4406
19153TIP3   OH278949   4.404   0.966  11.184 -0.1737  0.7066  0.3488
19153TIP3    H178950   4.315   0.997  11.200 -0.0910  1.2174 -0.1494
19153TIP3    H278951   4.424   0.910  11.259 -0.4521  1.5845  1.0981
19154TIP3   OH278952   4.528   4.546  12.474 -0.0820  0.8133 -0.2427
19154TIP3    H178953   4.446   4.509  12.442  0.3850  0.0437 -0.5718
19154TIP3    H278954   4.573   4.472  12.515 -0.7973  1.8037  2.5243
19155TIP3   OH278955   0.601   5.487  14.058 -0.6434 -0.6585  0.3263
19155TIP3    H178956   0.653   5.435  14.120  0.1761  0.7385  0.8450
19155TIP3    H278957   0.510   5.465  14.078 -0.3145 -2.4435  0.0248
19156TIP3   OH278958   1.835   2.335   1.339 -0.3469  0.2061  0.0276
19156TIP3    H178959   1.813   2.409   1.396  1.0883  0.6175  0.0834
19156TIP3    H278960   1.765   2.334   1.274 -0.2282  1.8360 -0.1681
19157TIP3   OH278961   6.269   5.792  11.315 -0.0303 -0.1418 -0.5503
19157TIP3    H178962   6.363   5.785  11.302  0.2331 -0.0189  1.0579
19157TIP3    H278963   6.231   5.737  11.247  1.1562  0.4640 -1.7446
19158TIP3   OH278964   5.080   6.788   3.175  0.0972  0.3447  0.1697
19158TIP3    H178965   4.998   6.832   3.195 -0.1090  1.4455 -2.5686
19158TIP3    H278966   5.135   6.802   3.252 -1.6122  1.3017  1.2621
19159TIP3   OH278967   4.877   1.642   1.216  0.4134  0.0034  0.2834
19159TIP3    H178968   4.829   1.723   1.234  0.8271 -0.0848  1.8945
19159TIP3    H278969   4.959   1.672   1.178  0.8166  0.3877  1.4304
19160TIP3   OH278970   3.159   1.331   1.416 -0.4409 -0.4857 -0.6689
19160TIP3    H178971   3.128   1.260   1.473  0.0141  0.9244  1.4767
19160TIP3    H278972   3.174   1.289   1.331 -0.7151 -2.8198  0.3480
19161TIP3   OH278973   3.637   1.807   4.256 -0.2289 -0.7123 -0.2360
19161TIP3    H178974   3.583   1.733   4.279  1.0771 -1.4268  0.6438
19161TIP3    H278975   3.697   1.774   4.189  0.3566 -0.4594  0.1514
19162TIP3   OH278976   4.421   5.115   3.432  1.1463  0.3597 -0.4907
19162TIP3    H178977   4.437   5.207   3.411  0.0786  0.2572 -1.8608
19162TIP3    H278978   4.341   5.116   3.484  0.7326  0.1601 -1.1123
19163TIP3   OH278979   4.805   2.602   1.701 -0.3535 -0.5621  0.1018
19163TIP3    H178980   4.788   2.510   1.720  1.2802 -0.9987 -0.3484
19163TIP3    H278981   4.880   2.624   1.758  0.4515 -0.0586 -1.1129
19164TIP3   OH278982   0.767   2.174   2.929 -0.4060  0.0054 -0.0827
19164TIP3    H178983   0.740   2.209   2.843 -1.5481  2.7249  1.2386
19164TIP3    H278984   0.684   2.150   2.971  0.1506 -1.3513  0.2776
19165TIP3   OH278985   3.069   1.723  13.517  0.0251 -0.1777 -0.1550
19165TIP3    H178986   3.074   1.665  13.592 -1.0869  1.6546  1.4360
19165TIP3    H278987   2.980   1.710  13.482 -0.0648  0.2061 -0.0773
19166TIP3   OH278988   3.599   1.969   4.463  0.0601  0.2992 -0.2349
19166TIP3    H178989   3.511   1.966   4.501  0.2391  3.2657  0.7085
19166TIP3    H278990   3.598   1.905   4.392 -1.2396 -3.4568  2.8041
19167TIP3   OH278991   6.778   1.148   1.876 -0.2347  0.0400 -0.5526
19167TIP3    H178992   6.825   1.201   1.812  1.4218 -1.3746 -0.5747
19167TIP3    H278993   6.756   1.067   1.829  0.4720 -0.7689  0.4490
19168TIP3   OH278994   2.899   0.149   1.364 -0.0286  0.1538 -0.1370
19168TIP3    H178995   2.901   0.141   1.459  1.5643 -1.2646 -0.2322
19168TIP3    H278996   2.983   0.188   1.341 -0.8216  1.4644 -0.9223
19169TIP3   OH278997   3.430   3.326   0.268  0.5173 -0.0182  0.0164
19169TIP3    H178998   3.348   3.346   0.222  2.1634  1.9025 -2.3481
19169TIP3    H278999   3.425   3.377   0.349 -0.4665  0.3978 -0.2942
19170TIP3   OH279000   4.015   5.583  10.230 -0.6092 -0.3101  0.0697
19170TIP3    H179001   3.930   5.540  10.239 -0.9358  0.1989 -0.4822
19170TIP3    H279002   4.076   5.526  10.277 -1.2261 -0.7625  0.3384
19171TIP3   OH279003   6.140   0.588  11.482 -0.6940 -0.5541  0.1163
19171TIP3    H179004   6.203   0.653  11.513 -1.2503 -0.5646  1.3525
19171TIP3    H279005   6.060   0.639  11.466 -0.8599 -0.7900  0.1915
19172TIP3   OH279006   2.277   6.800  11.903 -0.8936 -0.5527 -0.1398
19172TIP3    H179007   2.288   6.789  11.808 -1.8923 -1.4940 -0.1704
19172TIP3    H279008   2.350   6.856  11.929 -0.1133 -0.9655 -1.3286
19173TIP3   OH279009   0.963   1.528  16.720  0.2945 -0.1927 -0.2671
19173TIP3    H179010   1.001   1.616  16.730  0.3849  0.0353 -2.2699
19173TIP3    H279011   0.888   1.528  16.780  0.7803  0.9469  0.3817
19174TIP3   OH279012   1.011   3.252   1.704  0.1306  0.0555 -1.1079
19174TIP3    H179013   0.949   3.284   1.638 -1.3092 -1.5611 -0.6098
19174TIP3    H279014   1.008   3.157   1.695  1.1101 -0.1318  0.2401
19175TIP3   OH279015   4.158   4.115  13.447  0.0585  0.2748 -0.3266
19175TIP3    H179016   4.121   4.075  13.369 -0.3989  0.4568 -0.2049
19175TIP3    H279017   4.082   4.139  13.500  0.3683  0.0467  0.2265
19176TIP3   OH279018   3.661   5.801  15.996 -0.2021 -0.5565  0.5255
19176TIP3    H179019   3.606   5.868  15.956  0.1219  0.2468  1.3831
19176TIP3    H279020   3.723   5.850  16.050  0.5511 -1.5087  0.5582
19177TIP3   OH279021   6.603   2.354   1.146 -0.0403 -0.3070 -0.6933
19177TIP3    H179022   6.692   2.387   1.133  0.6361 -2.2323 -1.1574
19177TIP3    H279023   6.548   2.431   1.131  1.4441  0.5910 -1.9194
19178TIP3   OH279024   5.499   1.990  16.804  0.0839  0.2907 -0.5754
19178TIP3    H179025   5.531   1.900  16.800 -0.4953 -0.1069  1.7933
19178TIP3    H279026   5.444   2.000  16.727  1.2218 -0.9231 -1.5868
19179TIP3   OH279027   1.500   2.267  12.164  0.1522  0.2832 -0.0346
19179TIP3    H179028   1.491   2.196  12.099 -0.3953  1.2003 -1.0039
19179TIP3    H279029   1.413   2.308  12.166  0.5326  1.0983  0.2985
19180TIP3   OH279030   0.016   6.335   0.983  0.0744 -0.1455  0.1684
19180TIP3    H179031  -0.050   6.350   1.050  1.5396 -1.2423  1.9771
19180TIP3    H279032   0.029   6.240   0.983  0.7178 -0.0807 -1.0673
19181TIP3   OH279033   3.315   5.006   1.398  0.5997 -0.3013  0.5251
19181TIP3    H179034   3.236   5.032   1.352  0.8554  0.8131  0.6980
19181TIP3    H279035   3.290   5.008   1.491  1.0906  1.0437  0.6480
19182TIP3   OH279036   1.972   4.909  13.906  0.2702  0.2168 -0.4400
19182TIP3    H179037   2.066   4.891  13.917  0.1817  0.0071 -0.0180
19182TIP3    H279038   1.947   4.857  13.829  0.4280  0.0080 -0.3524
19183TIP3   OH279039   5.809   0.143   2.899  0.1533 -0.0716 -0.1775
19183TIP3    H179040   5.790   0.166   2.808 -1.7661  1.1015  0.4585
19183TIP3    H279041   5.842   0.223   2.938  0.2802 -0.3761  0.3493
19184TIP3   OH279042   3.374   4.514  14.433 -0.0909  0.3386 -0.3612
19184TIP3    H179043   3.307   4.499  14.500 -1.7859 -2.8162 -2.5275
19184TIP3    H279044   3.457   4.495  14.476 -1.1850 -2.2952  0.7435
19185TIP3   OH279045   3.166   1.179  11.090  0.2939  0.1318  0.5097
19185TIP3    H179046   3.223   1.191  11.166 -0.7327 -0.6658  1.4569
19185TIP3    H279047   3.198   1.100  11.048  0.7888  0.5050  0.1819
19186TIP3   OH279048   6.545   2.670  12.244  0.2781 -0.3959  0.3395
19186TIP3    H179049   6.453   2.696  12.246  0.5192  0.6294 -0.9597
19186TIP3    H279050   6.587   2.732  12.186  1.8706 -0.6849  1.1148
19187TIP3   OH279051   4.127   2.077  13.825 -0.2339  0.0251  0.1596
19187TIP3    H179052   4.094   2.084  13.914  0.3584  0.1472  0.3785
19187TIP3    H279053   4.167   2.162  13.807  0.2609 -0.2286  0.0355
19188TIP3   OH279054   0.736   0.006  11.510 -0.4116 -0.0623  0.4108
19188TIP3    H179055   0.658   0.060  11.521 -0.4564  0.2873 -1.3347
19188TIP3    H279056   0.704  -0.074  11.469 -0.0531 -0.5595  1.0808
19189TIP3   OH279057   4.379   5.358  11.397  1.2597  0.2745  0.2843
19189TIP3    H179058   4.422   5.443  11.397  1.5001  0.2145 -1.8504
19189TIP3    H279059   4.309   5.367  11.331 -0.5405 -0.3507  1.9977
19190TIP3   OH279060   3.977   5.945   3.393  0.0903  0.2300 -0.2467
19190TIP3    H179061   4.014   6.028   3.365  0.3971  0.7366  1.5740
19190TIP3    H279062   3.882   5.955   3.381  0.1402  0.7908 -0.1553
19191TIP3   OH279063   1.157   5.457   2.226  0.2904  0.3793 -0.8434
19191TIP3    H179064   1.225   5.391   2.241  0.7140  1.0661  0.3951
19191TIP3    H279065   1.120   5.474   2.312  0.3062  1.8695 -1.0899
19192TIP3   OH279066   0.470   0.205   3.729 -0.2197 -0.3674 -0.9227
19192TIP3    H179067   0.433   0.244   3.809 -1.0666 -1.8599 -0.5606
19192TIP3    H279068   0.413   0.235   3.659 -1.0521 -1.1531 -0.6045
19193TIP3   OH279069   5.138   4.120   4.916  0.0516  0.7299  0.8581
19193TIP3    H179070   5.066   4.158   4.965  0.4194 -0.5648  2.5109
19193TIP3    H279071   5.138   4.027   4.941  0.8646  0.2121 -0.8815
19194TIP3   OH279072   3.330   0.343   2.925 -0.5232 -0.0410  0.1791
19194TIP3    H179073   3.289   0.357   3.010  0.0574 -0.8725  0.6066
19194TIP3    H279074   3.280   0.400   2.865 -0.4040  1.1991  1.2054
19195TIP3   OH279075   3.340   6.364  15.885  0.0368  0.3300 -0.0078
19195TIP3    H179076   3.263   6.421  15.882  1.0115  1.7701  0.5574
19195TIP3    H279077   3.316   6.294  15.945 -0.8965  0.6573  0.0187
19196TIP3   OH279078   2.307   6.499  10.979 -0.0444 -0.4273 -0.3727
19196TIP3    H179079   2.212   6.504  10.984  0.0030 -0.1161  0.4690
19196TIP3    H279080   2.326   6.489  10.886 -0.8103  1.4522 -0.7733
19197TIP3   OH279081   5.784   2.179   5.066 -0.4728  0.0239  0.6997
19197TIP3    H179082   5.760   2.232   4.990  2.9926 -0.1039 -0.6460
19197TIP3    H279083   5.770   2.237   5.141 -2.4709  0.6827 -0.0951
19198TIP3   OH279084   6.814   2.282   1.669  0.2655  0.0715  0.1229
19198TIP3    H179085   6.762   2.280   1.589 -0.4995  1.4772  0.5435
19198TIP3    H279086   6.854   2.370   1.670 -0.7091  0.5431  1.8458
19199TIP3   OH279087   0.575   1.593  15.575 -0.2717 -0.4321  0.2716
19199TIP3    H179088   0.517   1.568  15.647  0.8989 -0.7335  1.1388
19199TIP3    H279089   0.655   1.542  15.590  1.5005  2.3235  0.9932
19200TIP3   OH279090   2.407   5.789   1.930 -0.6370  0.4977 -0.3281
19200TIP3    H179091   2.362   5.728   1.871 -0.6350 -0.0660  0.2523
19200TIP3    H279092   2.483   5.741   1.962 -0.8322  0.6772  0.4169
19201TIP3   OH279093   3.839   3.038   5.879  0.0651  0.3667 -0.2380
19201TIP3    H179094   3.889   3.056   5.959 -1.5345  0.0845  0.8580
19201TIP3    H279095   3.799   2.953   5.894 -0.9687  0.7074 -0.9703
19202TIP3   OH279096   1.476   4.164   0.878 -0.2308 -0.0959  0.0856
19202TIP3    H179097   1.451   4.232   0.940 -0.6820  0.3989 -0.6256
19202TIP3    H279098   1.448   4.197   0.792 -0.0386 -0.9648 -0.3317
19203TIP3   OH279099   0.575   3.820  11.710  0.3075 -0.4415 -0.3074
19203TIP3    H179100   0.497   3.870  11.683 -0.7412 -1.8655 -0.0498
19203TIP3    H279101   0.611   3.870  11.783  1.2238  1.6505 -2.0762
19204TIP3   OH279102   3.048   4.407   5.464  0.0073 -0.7290  0.1187
19204TIP3    H179103   3.092   4.489   5.442  0.9797 -0.6807  2.0255
19204TIP3    H279104   2.972   4.404   5.406 -0.3618  1.7766  0.3646
19205TIP3   OH279105   4.428   0.809  10.701  1.0660  0.6431  0.1244
19205TIP3    H179106   4.484   0.733  10.718 -0.3428 -0.3867  0.3372
19205TIP3    H279107   4.435   0.824  10.607 -2.5712 -3.1284 -1.0806
19206TIP3   OH279108   2.959   0.669   5.572  0.2755  0.3438 -0.3334
19206TIP3    H179109   2.912   0.666   5.656 -0.1068 -0.0642 -0.5550
19206TIP3    H279110   2.976   0.762   5.557  0.7970  0.3779  0.4413
19207TIP3   OH279111   4.011   6.391  14.336  0.2909 -0.3289 -0.6786
19207TIP3    H179112   4.059   6.458  14.384 -1.2388  0.8976 -0.7929
19207TIP3    H279113   3.925   6.389  14.377  0.4203 -2.5732 -0.3856
19208TIP3   OH279114   4.090   5.444   4.574  0.1140  0.2720 -0.0498
19208TIP3    H179115   4.013   5.388   4.575 -0.4474  1.0224  1.9108
19208TIP3    H279116   4.111   5.459   4.666  1.6144  1.4470 -0.5360
19209TIP3   OH279117   5.653   6.851   3.774 -0.4100  0.4949 -0.9711
19209TIP3    H179118   5.706   6.904   3.834 -1.1679 -0.4142  0.5877
19209TIP3    H279119   5.578   6.907   3.753 -1.4802 -0.0270  1.0935
19210TIP3   OH279120   0.684   2.031   4.300 -0.1938  0.0029 -0.8899
19210TIP3    H179121   0.688   1.936   4.286  0.0192  0.0851 -1.3882
19210TIP3    H279122   0.754   2.067   4.246  0.2440  0.3858 -0.0855
19211TIP3   OH279123   4.125   0.137   0.959 -0.3290 -0.1834  0.7451
19211TIP3    H179124   4.206   0.181   0.934 -1.4844  1.1910 -0.8149
19211TIP3    H279125   4.125   0.057   0.907 -1.0656  0.9895 -1.1611
19212TIP3   OH279126   6.005   5.913  15.448  0.3673 -0.5918 -0.3473
19212TIP3    H179127   5.951   5.912  15.527  0.1112  1.1176 -0.4552
19212TIP3    H279128   6.090   5.880  15.477  0.2071 -0.2112  0.6104
19213TIP3   OH279129   3.493   4.866  11.737  0.0460 -0.3884  0.2169
19213TIP3    H179130   3.471   4.773  11.728 -1.4457 -0.0503  0.1637
19213TIP3    H279131   3.465   4.889  11.825 -0.1276  0.1571  0.0208
19214TIP3   OH279132   0.078   0.683   6.825  0.7901  0.6621  0.2372
19214TIP3    H179133   0.080   0.698   6.730  0.2096  0.3729  0.1746
19214TIP3    H279134   0.070   0.588   6.834  1.6376  0.6236  0.5906
19215TIP3   OH279135   5.916   5.933  10.785 -0.0771  0.0216  0.2783
19215TIP3    H179136   5.856   5.859  10.776 -0.9283  0.6950  0.2319
19215TIP3    H279137   5.859   6.010  10.781  0.8558  0.6989 -0.2648
19216TIP3   OH279138   4.302   4.987  14.256 -0.0547 -0.1491  0.3590
19216TIP3    H179139   4.239   4.915  14.247  0.5446 -0.5991 -0.4008
19216TIP3    H279140   4.329   4.985  14.348 -4.3479  2.8304  1.9921
19217TIP3   OH279141   5.599   5.615   0.231 -0.4748  0.4173  0.3316
19217TIP3    H179142   5.547   5.681   0.186  1.2177  3.2832  2.2844
19217TIP3    H279143   5.663   5.586   0.167 -0.9771  0.9602 -0.4336
19218TIP3   OH279144   0.076   3.180   2.643 -0.1687 -0.3357 -0.2405
19218TIP3    H179145  -0.012   3.213   2.622 -0.4974 -0.0256  1.5027
19218TIP3    H279146   0.105   3.234   2.716  0.6427 -1.7650  0.5292
19219TIP3   OH279147   3.246   4.656   5.401 -0.1102  0.5382  0.8858
19219TIP3    H179148   3.218   4.706   5.478 -0.2785  0.8152  0.6472
19219TIP3    H279149   3.321   4.706   5.367 -0.1674  0.5330  0.7505
19220TIP3   OH279150   0.786   3.869   1.597  0.4200  0.3110 -0.2025
19220TIP3    H179151   0.820   3.918   1.522 -0.8709 -1.8723 -2.3397
19220TIP3    H279152   0.693   3.892   1.600  0.6478  1.1745  1.4508
19221TIP3   OH279153   5.814   2.725   3.619  0.7957 -0.3996 -0.3445
19221TIP3    H179154   5.854   2.696   3.701  0.0751 -3.3255 -0.9124
19221TIP3    H279155   5.868   2.687   3.550  1.0574  1.5405 -1.2683
19222TIP3   OH279156   0.996   6.512  16.078  0.3648 -0.4677 -0.4914
19222TIP3    H179157   0.942   6.575  16.126  0.5397  1.5037 -2.7306
19222TIP3    H279158   1.073   6.500  16.134  0.5290  1.6653 -0.1638
19223TIP3   OH279159   6.013   4.970  14.568 -0.2297 -0.6804 -0.2968
19223TIP3    H179160   5.984   5.059  14.553 -2.7727 -1.5207 -0.8199
19223TIP3    H279161   5.981   4.920  14.493  2.1725 -1.8801 -0.6323
19224TIP3   OH279162   3.592   6.353   1.116  0.3800 -0.1650  0.0973
19224TIP3    H179163   3.610   6.438   1.076  0.3665 -0.5627 -0.7923
19224TIP3    H279164   3.676   6.327   1.155  0.2654  0.4495  0.7759
19225TIP3   OH279165   5.477   2.329   0.481 -0.4947  1.1855  0.2492
19225TIP3    H179166   5.465   2.247   0.434  0.6512  1.1418  0.0244
19225TIP3    H279167   5.406   2.385   0.448  0.3618  1.2135 -1.6709
19226TIP3   OH279168   2.135   6.124   4.786 -0.2292 -0.2014 -0.4897
19226TIP3    H179169   2.051   6.081   4.772  0.2274 -0.4818 -2.8089
19226TIP3    H279170   2.112   6.214   4.809 -1.1545 -0.3071 -0.9562
19227TIP3   OH279171   5.847   6.668   1.276 -0.6064  0.0409 -0.6570
19227TIP3    H179172   5.818   6.586   1.238 -0.2377 -0.3907 -0.0320
19227TIP3    H279173   5.935   6.682   1.241  0.6210 -1.4556  1.6079
19228TIP3   OH279174   6.248   2.037   1.890  0.4970 -0.5591  0.2450
19228TIP3    H179175   6.335   1.998   1.897 -0.0463 -1.9137 -0.2333
19228TIP3    H279176   6.213   2.034   1.979  0.9708  0.1105  0.4646
19229TIP3   OH279177   4.832   0.231  14.292 -0.2419  0.2509  0.6276
19229TIP3    H179178   4.822   0.267  14.380  1.1335  1.4339  0.3278
19229TIP3    H279179   4.852   0.138  14.307 -0.0258  0.4344  1.5523
19230TIP3   OH279180   6.730   0.755  11.783 -0.2445  0.7714  0.2719
19230TIP3    H179181   6.814   0.708  11.785 -1.2827 -1.1971 -0.2815
19230TIP3    H279182   6.745   0.828  11.723  1.6972  1.7998  1.8801
19231TIP3   OH279183   6.168   1.624   1.659  0.3144 -0.1470 -0.1851
19231TIP3    H179184   6.184   1.663   1.745  0.2726  2.7355 -1.3583
19231TIP3    H279185   6.255   1.595   1.630  0.9850  1.9653 -0.4805
19232TIP3   OH279186   6.089   1.101  12.694  0.3149 -0.3082  0.3905
19232TIP3    H179187   6.101   1.147  12.777  1.5517 -1.5818  0.9540
19232TIP3    H279188   6.105   1.167  12.627 -0.5183  0.6954  1.1486
19233TIP3   OH279189   3.662   2.175  13.150  0.4899 -0.5366 -0.4355
19233TIP3    H179190   3.621   2.179  13.236 -0.2369  0.6617 -0.8068
19233TIP3    H279191   3.596   2.134  13.094  0.7414 -0.8032 -0.5346
19234TIP3   OH279192   0.566   4.368  13.172  0.0048  0.1579 -0.3028
19234TIP3    H179193   0.546   4.428  13.100 -1.5408  0.2037  0.1283
19234TIP3    H279194   0.524   4.285  13.146  2.3826 -0.9109 -1.0490
19235TIP3   OH279195   2.103   4.093  10.729 -0.2113  0.1980 -0.1329
19235TIP3    H179196   2.150   4.120  10.650 -0.8170 -2.4303 -1.5183
19235TIP3    H279197   2.011   4.107  10.708 -0.4503 -1.5304 -0.4049
19236TIP3   OH279198   2.239   4.677   5.619 -0.5038 -0.4829 -0.0930
19236TIP3    H179199   2.193   4.761   5.619 -0.5064 -0.4494 -1.8603
19236TIP3    H279200   2.321   4.695   5.572  0.8580 -0.7993  2.0338
19237TIP3   OH279201   4.113   5.511  12.798  0.6066 -0.4044 -0.3438
19237TIP3    H179202   4.059   5.452  12.744  1.1673  1.1459 -2.7610
19237TIP3    H279203   4.050   5.573  12.835  0.3750 -0.5385 -0.5033
19238TIP3   OH279204   0.822   6.666  13.635 -0.0909 -0.0634  0.0439
19238TIP3    H179205   0.912   6.691  13.613  0.2474 -0.0904  1.3221
19238TIP3    H279206   0.831   6.584  13.682 -0.6746  0.4916  1.1547
19239TIP3   OH279207   1.528   2.081  13.501  0.2324 -0.3452 -0.1362
19239TIP3    H179208   1.561   2.111  13.417 -1.3728 -0.7957 -0.9796
19239TIP3    H279209   1.599   2.098  13.563  0.9284  1.2826 -1.3228
19240TIP3   OH279210   1.875   5.020   5.207 -0.5055  0.2957 -0.2394
19240TIP3    H179211   1.924   4.953   5.254 -0.8190 -1.1326 -1.8588
19240TIP3    H279212   1.907   5.103   5.244  1.3299 -0.6603  0.4450
19241TIP3   OH279213   2.534   1.848  11.258  0.4600  0.2441  0.0961
19241TIP3    H179214   2.547   1.851  11.163  0.7388  0.6698  0.1423
19241TIP3    H279215   2.554   1.938  11.287  2.3388 -0.3436  0.7934
19242TIP3   OH279216   1.847   6.650   0.379 -0.2624 -0.2101  0.7205
19242TIP3    H179217   1.784   6.673   0.448 -1.2497  0.4405 -0.3704
19242TIP3    H279218   1.924   6.703   0.398 -0.9692  0.8583  0.6570
19243TIP3   OH279219   0.851   4.522   1.192  0.6730 -0.7451  0.1717
19243TIP3    H179220   0.900   4.440   1.202 -1.2564 -2.0694 -0.6732
19243TIP3    H279221   0.817   4.519   1.103  1.4902  1.5676 -0.2938
19244TIP3   OH279222   3.764   1.750  14.673 -0.2451 -0.7032 -0.1908
19244TIP3    H179223   3.707   1.813  14.718 -0.7497 -1.9622  0.9998
19244TIP3    H279224   3.843   1.801  14.652 -1.3347  0.7764 -0.8763
19245TIP3   OH279225   5.312   0.779   6.043  0.2789  0.1394  0.2644
19245TIP3    H179226   5.289   0.694   6.081  0.8713  0.8021  2.2087
19245TIP3    H279227   5.378   0.759   5.976  1.9646 -0.7722  2.1197
19246TIP3   OH279228   5.518   0.414   2.582  0.5099 -0.2271 -0.0079
19246TIP3    H179229   5.433   0.411   2.538 -0.1451 -1.7861  1.2411
19246TIP3    H279230   5.497   0.405   2.675  2.0431 -0.5233  0.3385
19247TIP3   OH279231   0.606   5.042  15.770  0.2112  0.4491  0.1011
19247TIP3    H179232   0.523   4.996  15.779  0.9995 -0.7764  1.5237
19247TIP3    H279233   0.593   5.099  15.694 -1.8847  0.2459  0.2388
19248TIP3   OH279234   5.167   5.603  14.841  0.6345 -0.2240 -0.1528
19248TIP3    H179235   5.087   5.656  14.847  0.2592 -0.8418  0.3634
19248TIP3    H279236   5.169   5.552  14.921  2.1006  0.5230  0.3248
19249TIP3   OH279237   5.852   4.152  13.185 -0.0558 -0.3974 -0.2818
19249TIP3    H179238   5.865   4.061  13.157  0.0371 -0.1360 -1.1346
19249TIP3    H279239   5.787   4.186  13.124 -0.5538 -0.0631  0.4270
19250TIP3   OH279240   2.112   3.553   3.004  0.4528 -0.1621  0.1309
19250TIP3    H179241   2.033   3.606   3.002  1.0672  0.7734 -0.2046
19250TIP3    H279242   2.099   3.487   2.936 -0.0455 -0.0469  0.1121
19251TIP3   OH279243   1.275   2.059   0.470  0.3453  0.0598  0.0157
19251TIP3    H179244   1.327   2.059   0.550 -1.0202  1.6293  0.9618
19251TIP3    H279245   1.273   1.967   0.443  0.6993 -0.5299  1.8641
19252TIP3   OH279246   1.396   1.324   2.191 -0.3141  0.4750 -0.0232
19252TIP3    H179247   1.358   1.404   2.228 -0.9642  0.2653 -0.2353
19252TIP3    H279248   1.438   1.281   2.266 -0.8683  0.4887  0.2999
19253TIP3   OH279249   4.524   5.916   1.881  0.3973 -0.0472  0.4057
19253TIP3    H179250   4.483   5.896   1.797  1.0858  0.1366  0.0263
19253TIP3    H279251   4.457   5.967   1.929 -0.9456 -2.1687  0.9331
19254TIP3   OH279252   3.250   0.615  12.252 -0.6329 -0.2597 -0.4186
19254TIP3    H179253   3.309   0.571  12.314  0.4699  1.9426  0.1815
19254TIP3    H279254   3.307   0.674  12.203 -2.0463  0.5039 -1.2025
19255TIP3   OH279255   4.164   6.076   2.852  0.1382  0.2147  0.4797
19255TIP3    H179256   4.250   6.037   2.836  0.0789  0.0511  0.5636
19255TIP3    H279257   4.121   6.016   2.912 -0.9704 -0.9999 -1.4279
19256TIP3   OH279258   5.287   0.616  10.682 -0.0121 -0.2714 -0.3758
19256TIP3    H179259   5.327   0.699  10.706 -0.7484 -0.3727  1.3264
19256TIP3    H279260   5.358   0.552  10.689  0.0242 -0.1371  0.6083
19257TIP3   OH279261   4.842   3.186  10.955 -0.3820  0.2227 -0.3584
19257TIP3    H179262   4.822   3.124  10.884  0.6487 -1.4659  0.7557
19257TIP3    H279263   4.936   3.203  10.946 -0.3706  0.4914  0.2266
19258TIP3   OH279264   3.502   1.270   1.320 -0.1398 -0.1535  0.0310
19258TIP3    H179265   3.588   1.263   1.360  0.0874 -0.2750 -0.4683
19258TIP3    H279266   3.484   1.364   1.318  1.0752  0.0909 -2.0930
19259TIP3   OH279267   5.146   6.331   6.316 -0.2306  0.4206  0.5060
19259TIP3    H179268   5.161   6.413   6.363  1.4422  1.0940 -1.0862
19259TIP3    H279269   5.190   6.265   6.368  1.1286  1.0679  0.2182
19260TIP3   OH279270   1.521   0.833   5.809  0.3824  0.3231 -0.0157
19260TIP3    H179271   1.563   0.894   5.870  1.2278  1.2262 -1.4363
19260TIP3    H279272   1.522   0.749   5.855  2.3960  0.6456  0.6269
19261TIP3   OH279273   1.909   4.451  12.203  0.7013 -0.5251 -0.6492
19261TIP3    H179274   1.858   4.529  12.182  0.1742 -0.3026  1.2443
19261TIP3    H279275   1.876   4.423  12.289  1.5611 -2.2587 -0.8349
19262TIP3   OH279276   6.219   1.248   3.311 -0.5844  0.0584  0.0661
19262TIP3    H179277   6.148   1.193   3.277 -1.2781  0.1901  1.2553
19262TIP3    H279278   6.176   1.330   3.336  0.0503  0.2836  0.4299
19263TIP3   OH279279   4.641   6.504  13.726 -1.0550 -0.4829 -0.5032
19263TIP3    H179280   4.571   6.496  13.661 -0.3430 -0.0680 -1.3494
19263TIP3    H279281   4.703   6.434  13.704 -0.3392  0.2561 -0.8885
19264TIP3   OH279282   0.752   4.175   0.821  0.0912  0.4928  0.4370
19264TIP3    H179283   0.739   4.106   0.886  2.0250  0.6617  1.0656
19264TIP3    H279284   0.678   4.233   0.833 -1.1107 -0.9955  0.4955
19265TIP3   OH279285   4.841   2.834   0.109 -0.1148 -0.4427  0.3640
19265TIP3    H179286   4.779   2.766   0.138  2.3422 -2.9364  0.2410
19265TIP3    H279287   4.921   2.814   0.158  0.4098  3.2589  1.2708
19266TIP3   OH279288   0.381   1.063  16.999 -0.7386 -0.0117  0.5843
19266TIP3    H179289   0.358   1.119  16.925 -1.3966  0.1922  0.9343
19266TIP3    H279290   0.470   1.033  16.980 -0.4672  0.9560  0.2668
19267TIP3   OH279291   5.090   0.696   2.080  0.4196  0.1472  0.2195
19267TIP3    H179292   5.153   0.740   2.022  1.0903  0.2142  0.9756
19267TIP3    H279293   5.046   0.632   2.024 -0.9660  2.1087 -1.0590
19268TIP3   OH279294   4.130   6.507  12.003 -0.1315  0.1857 -0.0148
19268TIP3    H179295   4.156   6.559  12.079 -0.5022 -0.9775  0.9373
19268TIP3    H279296   4.035   6.505  12.007 -0.1586  0.2379 -0.6029
19269TIP3   OH279297   0.749   5.584   4.418 -0.5760  0.5808 -0.0528
19269TIP3    H179298   0.676   5.562   4.476  0.5129 -0.1456  1.0897
19269TIP3    H279299   0.792   5.501   4.399  0.8611  1.1388  0.5622
19270TIP3   OH279300   3.712   4.359   3.360 -0.0242 -0.0124  0.1642
19270TIP3    H179301   3.772   4.291   3.389 -1.0285 -0.0033  2.4656
19270TIP3    H279302   3.698   4.341   3.267  0.1798 -2.6307  0.5670
19271TIP3   OH279303   5.207   6.258  13.238  0.2648  0.3399 -0.1154
19271TIP3    H179304   5.146   6.283  13.168 -0.6650  0.6224  0.7849
19271TIP3    H279305   5.228   6.341  13.282  0.2311  0.0637  0.4254
19272TIP3   OH279306   5.631   4.666  13.527  0.3708  0.4273 -0.6966
19272TIP3    H179307   5.632   4.727  13.600  1.3088 -1.2056  0.7270
19272TIP3    H279308   5.679   4.711  13.457 -0.4725  1.9752 -0.3161
19273TIP3   OH279309   2.909   3.659  16.834  0.2518 -0.1042 -0.3601
19273TIP3    H179310   2.997   3.642  16.866 -0.0407 -0.1178  0.4546
19273TIP3    H279311   2.907   3.618  16.747  0.6653 -1.1782  0.1180
19274TIP3   OH279312   0.264   1.388  12.141  0.0917  0.9053  0.0117
19274TIP3    H179313   0.180   1.343  12.131  0.4065  0.4169 -0.5401
19274TIP3    H279314   0.319   1.326  12.190  1.0455 -0.0789 -2.1259
19275TIP3   OH279315   4.182   3.468  16.649 -0.2021 -0.1547  0.3681
19275TIP3    H179316   4.180   3.461  16.744  0.1697  0.7601  0.4581
19275TIP3    H279317   4.275   3.470  16.626 -0.2365  1.7836  0.2048
19276TIP3   OH279318   1.810   0.697   2.911  0.1239  0.0729 -0.4459
19276TIP3    H179319   1.833   0.616   2.955 -0.8894 -0.1122 -0.2357
19276TIP3    H279320   1.714   0.700   2.914  0.1689  1.9370  0.7408
19277TIP3   OH279321   4.976   0.310  15.899  0.5461  0.0871  0.5831
19277TIP3    H179322   4.928   0.241  15.854 -1.4233  1.7361  0.0185
19277TIP3    H279323   5.025   0.355  15.830  0.3807  0.3792  0.6532
19278TIP3   OH279324   1.855   0.026   1.707  0.2486  0.1753 -0.5031
19278TIP3    H179325   1.846   0.013   1.613 -1.8027  0.6008 -0.4086
19278TIP3    H279326   1.884  -0.059   1.740 -0.8021 -0.5205 -1.3147
19279TIP3   OH279327   3.405   6.803   1.598 -0.3132 -0.3546 -0.2149
19279TIP3    H179328   3.490   6.820   1.558 -1.0245  1.4146 -1.0961
19279TIP3    H279329   3.344   6.856   1.547 -1.8685 -1.1638  0.7413
19280TIP3   OH279330   5.701   2.579  10.621  1.1220 -0.0480  0.3427
19280TIP3    H179331   5.689   2.517  10.692  1.0779 -0.1868  0.2139
19280TIP3    H279332   5.613   2.615  10.606  1.4144  1.2226  1.4845
19281TIP3   OH279333   4.621   4.429   4.520  0.6055 -0.1164  0.4154
19281TIP3    H179334   4.596   4.519   4.499  0.3612 -0.0671  0.8858
19281TIP3    H279335   4.599   4.379   4.442 -0.3186  0.0516  0.5503
19282TIP3   OH279336   4.259   1.122   0.797 -0.2128 -0.0439 -0.4866
19282TIP3    H179337   4.286   1.179   0.725  0.1842 -0.0048 -0.3092
19282TIP3    H279338   4.165   1.137   0.806  0.1325  1.6676  0.5024
19283TIP3   OH279339   1.559   2.482  11.994  0.0068 -0.0340  0.0489
19283TIP3    H179340   1.485   2.427  12.022 -1.1294  0.8796 -1.0217
19283TIP3    H279341   1.530   2.572  12.013  1.6980  0.2557  1.4828
19284TIP3   OH279342   0.471   3.830  15.045  0.7176  0.0315  0.3113
19284TIP3    H179343   0.476   3.826  15.141 -1.6054  0.8113  0.5216
19284TIP3    H279344   0.561   3.814  15.016  2.0212  2.2210  2.6980
19285TIP3   OH279345   4.822   2.620   3.841  0.0760 -0.6002  0.3112
19285TIP3    H179346   4.755   2.676   3.880 -0.7442  0.1773 -2.0217
19285TIP3    H279347   4.897   2.677   3.826 -0.4708 -0.2309 -1.3170
19286TIP3   OH279348   5.166   6.348  14.275 -0.3258  0.3434 -0.0961
19286TIP3    H179349   5.187   6.368  14.367  0.7344  2.6849 -0.7738
19286TIP3    H279350   5.243   6.303  14.242 -1.0296 -1.2420  0.3176
19287TIP3   OH279351   4.152   4.720   6.386  0.2646  0.0364 -0.3202
19287TIP3    H179352   4.124   4.774   6.460  1.4508  1.3873 -0.7975
19287TIP3    H279353   4.177   4.636   6.425  0.8179  0.7059  0.8065
19288TIP3   OH279354   0.574   0.131   0.417 -0.1503  0.2763  0.2011
19288TIP3    H179355   0.602   0.059   0.474  1.0637 -0.5161 -1.3493
19288TIP3    H279356   0.593   0.210   0.468  3.1859 -0.2857  0.0387
19289TIP3   OH279357   0.777   2.732  14.484  0.3030  0.0936 -0.7776
19289TIP3    H179358   0.734   2.796  14.429 -1.8025  0.2355  0.8774
19289TIP3    H279359   0.815   2.783  14.555  2.1748 -0.1654 -1.5486
19290TIP3   OH279360   3.597   2.815  13.315  0.7478 -0.6449 -0.8041
19290TIP3    H179361   3.610   2.826  13.409 -1.9660 -0.4658 -0.3691
19290TIP3    H279362   3.618   2.900  13.277 -0.0353 -0.1178 -0.0866
19291TIP3   OH279363   1.203   1.190  16.520  0.0781  0.3822 -0.3527
19291TIP3    H179364   1.184   1.265  16.465 -3.0506  0.1934  0.3237
19291TIP3    H279365   1.187   1.220  16.609  3.0186  0.0706  0.3931
19292TIP3   OH279366   0.270   5.587   3.545 -0.0156 -0.5539 -0.4709
19292TIP3    H179367   0.270   5.535   3.625  0.8606  1.6471  1.0720
19292TIP3    H279368   0.295   5.675   3.574 -1.2255  0.7016 -2.9510
19293TIP3   OH279369   0.572   5.375  13.553  0.2353  0.2807 -0.6558
19293TIP3    H179370   0.477   5.373  13.563  0.1291  1.3613 -1.2774
19293TIP3    H279371   0.605   5.395  13.641 -0.2218  1.4844 -0.7307
19294TIP3   OH279372   2.104   0.896  12.394  0.5445  0.2265 -0.2611
19294TIP3    H179373   2.124   0.810  12.356  1.9105 -0.2796  1.4641
19294TIP3    H279374   2.011   0.892  12.416  0.4600 -0.5898 -0.7392
19295TIP3   OH279375   3.343   0.583   3.392 -0.1738  0.0622 -0.2004
19295TIP3    H179376   3.439   0.581   3.390 -0.0798  1.9145  0.2338
19295TIP3    H279377   3.321   0.674   3.368 -1.7903 -0.1779  0.2850
19296TIP3   OH279378   3.489   2.872  11.663  0.0443 -0.3556 -0.2280
19296TIP3    H179379   3.531   2.827  11.736 -0.7920 -0.6140  0.1031
19296TIP3    H279380   3.405   2.902  11.698 -0.2184 -0.1750 -0.9870
19297TIP3   OH279381   5.373   6.256   0.611  0.2912  0.4684 -0.3700
19297TIP3    H179382   5.285   6.287   0.589 -0.5907  0.1733  2.3631
19297TIP3    H279383   5.361   6.203   0.690  2.8739  0.0016 -0.2026
19298TIP3   OH279384   2.073   0.623  13.451 -0.2186  0.6846 -0.1784
19298TIP3    H179385   2.156   0.665  13.475 -1.9086  3.5553  1.2295
19298TIP3    H279386   2.060   0.646  13.359  1.5099 -1.7428 -1.1341
19299TIP3   OH279387   4.707   6.552  11.047 -0.2152  0.7503  0.1650
19299TIP3    H179388   4.685   6.644  11.033 -0.0665  0.7999  0.2627
19299TIP3    H279389   4.775   6.534  10.982 -1.7335  0.1307 -1.3573
19300TIP3   OH279390   3.183   2.824  15.532 -0.8208  0.2652 -0.1664
19300TIP3    H179391   3.172   2.748  15.476 -1.7500  1.1484 -1.2323
19300TIP3    H279392   3.171   2.899  15.474  0.0970  1.2383  0.8404
19301TIP3   OH279393   0.216   2.929  13.585 -0.2056  0.4973 -0.1622
19301TIP3    H179394   0.256   2.997  13.640  1.9633  0.6076 -1.7491
19301TIP3    H279395   0.249   2.947  13.497  1.2278 -3.1090 -0.5226
19302TIP3   OH279396   4.028   1.982  14.395 -0.4242 -0.1911 -0.0744
19302TIP3    H179397   3.941   2.023  14.392 -0.4051 -0.1248  0.2300
19302TIP3    H279398   4.037   1.953  14.486  0.2097  0.5344  0.1027
19303TIP3   OH279399   3.743   5.465   4.727 -0.4157 -0.1553 -0.1719
19303TIP3    H179400   3.776   5.388   4.680  0.6657  0.2530 -0.1157
19303TIP3    H279401   3.820   5.520   4.738 -1.5016  1.8587 -1.9284
19304TIP3   OH279402   5.527   6.826  14.068 -0.2307 -0.3947 -0.2059
19304TIP3    H179403   5.454   6.768  14.049  0.3771 -1.0859 -0.4916
19304TIP3    H279404   5.571   6.786  14.143 -1.0992  0.9188  1.0384
19305TIP3   OH279405   0.420   4.119  13.130  0.1218 -0.1438 -0.3768
19305TIP3    H179406   0.388   4.076  13.210  0.1813  1.1660  0.3814
19305TIP3    H279407   0.341   4.152  13.087  0.2036  0.5285 -0.0258
19306TIP3   OH279408   5.586   5.882   5.241  0.3651 -0.6232  0.2993
19306TIP3    H179409   5.630   5.806   5.277 -0.3727 -0.3711  1.8014
19306TIP3    H279410   5.657   5.936   5.206  0.7690 -3.4139 -3.9926
19307TIP3   OH279411   0.574   6.234  16.243 -0.0154 -0.0204 -0.1296
19307TIP3    H179412   0.596   6.319  16.205  0.0704  0.1280  0.2497
19307TIP3    H279413   0.482   6.220  16.221 -1.0610  1.7317  2.6837
19308TIP3   OH279414   2.835   0.139   4.082  0.4554 -0.0812  0.5803
19308TIP3    H179415   2.841   0.220   4.032  2.4576 -0.6898 -0.2549
19308TIP3    H279416   2.753   0.148   4.132 -0.4727  1.4920 -1.1003
19309TIP3   OH279417   0.078   0.629  13.499 -0.0251 -0.8810 -0.0477
19309TIP3    H179418   0.132   0.706  13.482 -1.0885  0.6475  2.8233
19309TIP3    H279419   0.114   0.591  13.579 -1.1806 -1.7482  0.1007
19310TIP3   OH279420   2.113   4.221  12.490 -0.2940  1.0919 -0.0446
19310TIP3    H179421   2.153   4.289  12.544  0.7980  0.6118 -0.2380
19310TIP3    H279422   2.125   4.251  12.400 -1.3588  1.4761 -0.0737
19311TIP3   OH279423   0.967   6.510   3.267  0.1426 -0.3228  0.2777
19311TIP3    H179424   0.908   6.464   3.327 -0.3079 -0.5215 -0.3108
19311TIP3    H279425   0.985   6.594   3.311 -1.9060  0.4612 -0.2721
19312TIP3   OH279426   3.448   1.820   2.510 -0.2731  0.0346 -0.1504
19312TIP3    H179427   3.377   1.755   2.507  0.8346 -1.2492  0.5399
19312TIP3    H279428   3.520   1.778   2.462  0.6660  0.4826  0.8489
19313TIP3   OH279429   1.806   2.412  15.882 -0.1459 -0.0936 -0.1626
19313TIP3    H179430   1.802   2.406  15.977  0.7856 -0.5618 -0.1376
19313TIP3    H279431   1.860   2.337  15.856  1.7998  1.4414 -0.8473
19314TIP3   OH279432   3.369   6.408  11.323  0.2053  0.1025  0.0289
19314TIP3    H179433   3.351   6.501  11.333 -1.0903 -0.1492  0.2709
19314TIP3    H279434   3.436   6.389  11.389  0.4190  0.8459  0.0275
19315TIP3   OH279435   5.701   5.432  15.807  0.7356  0.1408 -0.7202
19315TIP3    H179436   5.615   5.468  15.783  0.5533  0.4072  0.2848
19315TIP3    H279437   5.699   5.427  15.902  1.4537 -0.8339 -0.7428
19316TIP3   OH279438   0.415   2.395  16.410 -0.2474 -0.3375  0.0104
19316TIP3    H179439   0.381   2.310  16.437 -0.3553  0.1899  1.6416
19316TIP3    H279440   0.475   2.421  16.481 -0.5081  1.1118 -0.2532
19317TIP3   OH279441   6.828   3.759  16.550 -0.0715  0.2079  0.7676
19317TIP3    H179442   6.791   3.754  16.638 -1.5824  0.1313  0.1560
19317TIP3    H279443   6.841   3.852  16.533 -1.5909  0.3616  0.3675
19318TIP3   OH279444   1.364   5.590  10.796  0.9521  0.4983 -0.3519
19318TIP3    H179445   1.433   5.657  10.800  2.7095 -1.1563 -0.9244
19318TIP3    H279446   1.336   5.591  10.704  1.3786  0.1159 -0.4941
19319TIP3   OH279447   4.960   1.720  14.709  0.2826 -0.4216  0.1278
19319TIP3    H179448   5.035   1.668  14.737 -0.2045 -1.1116  0.1658
19319TIP3    H279449   4.997   1.784  14.647  0.7218 -1.5244 -0.7888
19320TIP3   OH279450   1.949   6.577  10.654 -0.0140  0.6701 -0.0083
19320TIP3    H179451   1.911   6.639  10.591 -0.4343 -1.8768 -2.4698
19320TIP3    H279452   2.043   6.592  10.647  0.0191 -0.0914 -1.9805
19321TIP3   OH279453   4.362   6.033  14.200  0.0175 -0.3388  0.8891
19321TIP3    H179454   4.293   6.097  14.183 -1.2581 -1.5668  1.2107
19321TIP3    H279455   4.441   6.086  14.213 -0.7961  1.0981  0.2642
19322TIP3   OH279456   6.476   1.431  12.592 -0.7976  0.1433 -0.7583
19322TIP3    H179457   6.400   1.483  12.617 -1.0123  0.6308 -2.3115
19322TIP3    H279458   6.465   1.417  12.498  0.5411 -0.6006 -0.8235
19323TIP3   OH279459   1.747   4.838  14.288  0.2727 -0.2102  0.1718
19323TIP3    H179460   1.743   4.800  14.200 -0.1395 -2.2181  1.0022
19323TIP3    H279461   1.771   4.929  14.273 -1.3457 -0.0531 -2.1317
19324TIP3   OH279462   1.319   2.075   5.078 -0.2912  0.0344  0.6639
19324TIP3    H179463   1.225   2.058   5.078 -0.3432  0.2689 -0.2203
19324TIP3    H279464   1.327   2.170   5.071 -0.0179 -0.1048 -1.7640
19325TIP3   OH279465   5.889   4.222  14.449  0.2393  0.1228 -0.1546
19325TIP3    H179466   5.931   4.226  14.536 -0.2676  0.7834  0.0677
19325TIP3    H279467   5.906   4.309  14.411 -3.5907  1.6577  1.2100
19326TIP3   OH279468   5.517   5.080  14.593  0.8220  0.2941 -0.2611
19326TIP3    H179469   5.485   5.003  14.639 -0.4344  0.9974  0.0775
19326TIP3    H279470   5.563   5.131  14.661  1.9682 -0.3006 -0.5620
19327TIP3   OH279471   2.212   6.191  16.353 -0.1423 -0.7301 -0.5928
19327TIP3    H179472   2.143   6.256  16.357  0.3626 -0.0995 -1.6220
19327TIP3    H279473   2.271   6.223  16.285  2.5061  0.0767  1.8775
19328TIP3   OH279474   0.206   0.336  10.195 -0.0583 -0.4761  0.2007
19328TIP3    H179475   0.209   0.386  10.113  1.8467 -1.2233 -0.2374
19328TIP3    H279476   0.232   0.399  10.262  0.8459 -0.4672 -0.1389
19329TIP3   OH279477   6.172   0.792  16.550 -0.1536  0.2838  0.3170
19329TIP3    H179478   6.189   0.739  16.628  1.6293 -1.0271 -0.9047
19329TIP3    H279479   6.236   0.863  16.554  2.8659 -2.0579 -1.9062
19330TIP3   OH279480   4.615   1.327  12.775  0.1729 -0.3068 -0.3931
19330TIP3    H179481   4.650   1.413  12.799 -0.1556 -0.4275  0.5617
19330TIP3    H279482   4.675   1.294  12.709  1.0692  0.0882  0.2102
19331TIP3   OH279483   6.650   6.828  12.205  0.4840 -0.1880  0.2099
19331TIP3    H179484   6.703   6.791  12.134 -2.0687 -1.2610 -1.2769
19331TIP3    H279485   6.574   6.866  12.161 -1.3492 -1.1373  2.3713
19332TIP3   OH279486   2.755   2.367  16.058 -0.4718  0.8622  0.2959
19332TIP3    H179487   2.689   2.302  16.033 -0.7375  1.2519 -0.0321
19332TIP3    H279488   2.838   2.330  16.027 -0.6258  0.7010  0.0685
19333TIP3   OH279489   4.917   3.922  12.355 -0.6124 -0.6492  0.4521
19333TIP3    H179490   4.893   3.939  12.446 -1.1229  0.3738  0.1348
19333TIP3    H279491   5.009   3.949  12.349 -0.7908 -0.0198  0.4865
19334TIP3   OH279492   6.418   2.099   5.144 -0.3098 -0.2777  0.1763
19334TIP3    H179493   6.497   2.050   5.165  0.0854  0.8307  1.4633
19334TIP3    H279494   6.377   2.115   5.229  0.3314  2.8200  0.0103
19335TIP3   OH279495   5.718   3.714   2.091  0.1030  0.3737  0.1919
19335TIP3    H179496   5.791   3.759   2.049  1.0345 -1.6396 -0.4433
19335TIP3    H279497   5.755   3.674   2.169 -0.6826  0.6036  0.7013
19336TIP3   OH279498   2.748   0.098  11.328 -0.2709 -0.1835 -0.0663
19336TIP3    H179499   2.762   0.168  11.391 -0.6524  0.1424 -0.3415
19336TIP3    H279500   2.782   0.133  11.245 -2.6510  0.6312 -0.7625
19337TIP3   OH279501   0.740   4.216   2.417  0.5272  0.5122 -0.5168
19337TIP3    H179502   0.792   4.205   2.338  0.0547  0.5336 -0.8379
19337TIP3    H279503   0.649   4.219   2.386  0.2800 -0.2856  0.0993
19338TIP3   OH279504   5.846   3.612  14.198  0.7614 -0.1689  0.1413
19338TIP3    H179505   5.892   3.640  14.277  1.6806 -0.4664 -0.2708
19338TIP3    H279506   5.879   3.671  14.130  0.7650 -0.5841 -0.2164
19339TIP3   OH279507   6.875   5.721  13.076 -0.1540  0.5317  0.0425
19339TIP3    H179508   6.826   5.802  13.068 -2.0303 -0.4284  1.1933
19339TIP3    H279509   6.809   5.654  13.096  1.2312 -1.4203 -1.4515
19340TIP3   OH279510   3.527   2.878  12.721  0.1744  0.1919  0.5510
19340TIP3    H179511   3.433   2.895  12.710  0.4994  0.7442 -1.9566
19340TIP3    H279512   3.569   2.961  12.699  1.2576  0.4803  3.3443
19341TIP3   OH279513   3.457   2.960   1.708 -0.3266 -0.0741 -0.5365
19341TIP3    H179514   3.431   3.013   1.783 -2.6878 -1.7588 -0.0368
19341TIP3    H279515   3.431   3.011   1.631  0.0706  0.6925 -0.1712
19342TIP3   OH279516   6.825   5.273  11.648 -0.0469 -0.1271  0.8460
19342TIP3    H179517   6.740   5.259  11.690 -0.4281  1.6254  0.7128
19342TIP3    H279518   6.864   5.346  11.695  1.4261 -0.9166  0.9146
19343TIP3   OH279519   6.280   4.151   1.466  0.0098  0.3328  0.0768
19343TIP3    H179520   6.370   4.183   1.460 -0.5601  1.8556 -0.9649
19343TIP3    H279521   6.287   4.072   1.520  2.2997 -0.9992 -1.9253
19344TIP3   OH279522   2.338   3.287   1.409 -0.8355  0.3371  0.6382
19344TIP3    H179523   2.290   3.204   1.415  0.9506 -0.8195 -0.1367
19344TIP3    H279524   2.299   3.332   1.334 -0.7120 -0.5886  0.0035
19345TIP3   OH279525   1.352   1.321   5.049  0.1441  0.2787 -0.8602
19345TIP3    H179526   1.308   1.402   5.025 -0.1378  0.1564 -0.7615
19345TIP3    H279527   1.379   1.283   4.965  0.0230  0.3348 -0.9259
19346TIP3   OH279528   5.175   3.363  11.266 -0.2311  0.1913 -0.0833
19346TIP3    H179529   5.095   3.415  11.274 -0.2822 -0.0626  1.3082
19346TIP3    H279530   5.229   3.412  11.203 -0.0710  2.2389  1.5295
19347TIP3   OH279531   4.367   0.202   1.831  0.5558 -0.7357  0.1002
19347TIP3    H179532   4.318   0.247   1.762  0.2454 -0.4245  0.5147
19347TIP3    H279533   4.445   0.169   1.787  1.9972  2.2021  0.1689
19348TIP3   OH279534   2.498   2.179  14.823 -0.4934 -0.4804  0.1193
19348TIP3    H179535   2.497   2.124  14.901  0.9206 -1.1412 -0.2830
19348TIP3    H279536   2.472   2.121  14.752  1.5236 -0.8451 -0.3938
19349TIP3   OH279537   5.174   5.499   5.072  0.0560  0.2137  0.2126
19349TIP3    H179538   5.107   5.431   5.066 -1.1273  1.1645  1.6152
19349TIP3    H279539   5.187   5.529   4.982 -1.4321 -0.0051 -0.1071
19350TIP3   OH279540   1.172   3.448   4.557  0.4728 -0.0955  0.0642
19350TIP3    H179541   1.119   3.381   4.513  0.3095 -0.8831  1.4351
19350TIP3    H279542   1.132   3.458   4.643  1.6783  0.3788  0.5868
19351TIP3   OH279543   5.601   1.439  12.080 -0.4412 -0.4509  0.3123
19351TIP3    H179544   5.512   1.418  12.052 -0.1308  0.2607 -1.2620
19351TIP3    H279545   5.615   1.529  12.052 -0.2279  0.5264  3.1922
19352TIP3   OH279546   1.833   0.148   1.977  0.3138  0.0907 -0.4973
19352TIP3    H179547   1.863   0.124   1.889  1.4822  0.0055 -0.0863
19352TIP3    H279548   1.788   0.070   2.009  0.9194 -0.2946 -0.5677
19353TIP3   OH279549   4.173   1.693  12.114  0.1659  0.2413 -0.0026
19353TIP3    H179550   4.106   1.728  12.173  1.0483  0.3006  1.0116
19353TIP3    H279551   4.186   1.762  12.050 -0.2526  0.5167  0.1996
19354TIP3   OH279552   2.148   2.549  13.028 -0.3236  0.1434  0.1494
19354TIP3    H179553   2.133   2.485  12.958  1.1345 -0.0405 -0.0300
19354TIP3    H279554   2.113   2.631  12.994 -2.1889 -0.5112  0.3685
19355TIP3   OH279555   3.126   3.164  12.496 -0.3366  0.0332 -0.5658
19355TIP3    H179556   3.056   3.211  12.542  0.1748 -0.1637  0.4166
19355TIP3    H279557   3.169   3.232  12.443  0.0787  0.5934  0.4602
19356TIP3   OH279558   4.614   1.777   4.403 -0.0142 -0.2892 -0.0805
19356TIP3    H179559   4.642   1.742   4.319  0.8690 -0.3181  0.2209
19356TIP3    H279560   4.518   1.778   4.397  0.0429  0.3965 -1.3654
19357TIP3   OH279561   5.182   1.894   2.668 -0.1940  0.0593 -0.4037
19357TIP3    H179562   5.260   1.850   2.635 -0.1628  1.2200 -2.0240
19357TIP3    H279563   5.188   1.983   2.634 -0.7336  1.0874  1.9512
19358TIP3   OH279564   1.410   3.268   1.474  0.2832 -0.0659 -0.1013
19358TIP3    H179565   1.505   3.273   1.467  0.1784  1.1881 -1.0124
19358TIP3    H279566   1.381   3.360   1.471 -0.9903 -0.4632 -0.5249
19359TIP3   OH279567   3.142   5.452  15.187 -0.4564 -0.5991  0.2461
19359TIP3    H179568   3.176   5.363  15.199  1.8238 -0.4049 -3.3655
19359TIP3    H279569   3.205   5.508  15.232 -1.4897 -0.6728  1.8775
19360TIP3   OH279570   4.810   3.516  13.420 -0.1752 -0.3568 -0.5880
19360TIP3    H179571   4.848   3.603  13.406 -0.4461 -0.2279 -0.5245
19360TIP3    H279572   4.795   3.511  13.514 -2.4579  0.5015 -0.8427
19361TIP3   OH279573   2.988   0.311  14.037  0.2296 -0.5491 -0.0962
19361TIP3    H179574   2.896   0.316  14.009  0.6358  0.8211 -1.2613
19361TIP3    H279575   2.985   0.259  14.117 -1.4698 -1.2027 -0.5362
19362TIP3   OH279576   3.182   0.008  12.945 -0.1601  0.1542 -0.9386
19362TIP3    H179577   3.221   0.018  13.031 -0.3189 -1.5858 -0.6139
19362TIP3    H279578   3.142   0.092  12.926 -1.4827  0.1248  1.3952
19363TIP3   OH279579   5.561   4.204  15.784 -0.1172 -0.4150 -0.0765
19363TIP3    H179580   5.546   4.206  15.878  0.2623 -1.2134  0.0049
19363TIP3    H279581   5.478   4.234  15.746 -0.9741 -1.9694  0.4659
19364TIP3   OH279582   1.438   5.381  16.610  0.3731 -0.1970  0.4933
19364TIP3    H179583   1.462   5.463  16.653  0.4678 -0.0438  0.1457
19364TIP3    H279584   1.358   5.353  16.655  0.6839 -0.2352  1.0307
19365TIP3   OH279585   6.354   3.770  15.219  0.2453  0.1147  0.2998
19365TIP3    H179586   6.330   3.830  15.149  0.7756  0.5827  0.5135
19365TIP3    H279587   6.449   3.783  15.230  0.3669 -0.7627  0.3436
19366TIP3   OH279588   4.086   3.393   5.015  0.6357 -0.0540  0.1119
19366TIP3    H179589   4.021   3.356   4.955  2.2224 -0.0874 -1.6997
19366TIP3    H279590   4.110   3.320   5.072  1.4569 -1.0054 -1.3899
19367TIP3   OH279591   0.204   2.300   0.245 -0.1979  0.0855 -0.1888
19367TIP3    H179592   0.227   2.238   0.175  0.6076 -0.3720  0.4593
19367TIP3    H279593   0.128   2.347   0.212  0.2875  0.0080 -1.4538
19368TIP3   OH279594   3.439   6.459  12.871 -0.4623  0.6838  0.5746
19368TIP3    H179595   3.450   6.511  12.792 -1.4800 -1.2337 -0.9343
19368TIP3    H279596   3.345   6.457  12.886 -0.3280  0.4748  1.4508
19369TIP3   OH279597   0.904   5.106  14.603 -0.0003 -0.6461 -0.4499
19369TIP3    H179598   0.858   5.186  14.579 -1.2552 -0.4951  2.1451
19369TIP3    H279599   0.930   5.068  14.519 -1.1488  1.4188 -1.8445
19370TIP3   OH279600   5.600   3.513  14.304  0.3766 -0.4864  0.7134
19370TIP3    H179601   5.692   3.524  14.280  0.1434  1.2279  0.4994
19370TIP3    H279602   5.599   3.516  14.400  0.4112  0.8426  0.6852
19371TIP3   OH279603   3.329   6.100  11.590 -0.0201  0.7556 -0.0906
19371TIP3    H179604   3.401   6.070  11.645 -0.9178 -1.6909 -0.1270
19371TIP3    H279605   3.253   6.100  11.648 -0.2056  2.3181 -0.3008
19372TIP3   OH279606   0.236   4.044   0.152 -0.0280 -0.1451 -0.3373
19372TIP3    H179607   0.207   4.128   0.188  0.4778 -0.2770  0.3929
19372TIP3    H279608   0.331   4.047   0.155  0.0033 -0.5952 -0.6621
19373TIP3   OH279609   5.003   1.255   3.491  0.0988  0.1324 -0.2091
19373TIP3    H179610   5.027   1.216   3.575  1.6026 -1.1013 -1.1535
19373TIP3    H279611   4.975   1.344   3.513  1.6805  0.2718  1.4579
19374TIP3   OH279612   2.232   3.918   5.769  0.1241  0.0553  0.1198
19374TIP3    H179613   2.270   3.910   5.856  0.4257  0.8240  0.0710
19374TIP3    H279614   2.233   4.012   5.751 -0.3100 -0.0569 -0.5470
19375TIP3   OH279615   0.862   5.964  12.028  0.1315  0.2551  0.2176
19375TIP3    H179616   0.803   5.916  12.086 -0.5373 -0.2291 -0.8374
19375TIP3    H279617   0.855   6.055  12.058 -1.1389  0.2040  0.1401
19376TIP3   OH279618   6.170   3.929   4.450  0.1432 -0.0580 -0.9447
19376TIP3    H179619   6.143   3.916   4.359 -1.0142  0.3951 -0.6791
19376TIP3    H279620   6.151   3.846   4.493 -2.0400  0.6193 -0.4914
19377TIP3   OH279621   3.260   6.699  14.247 -0.4899 -0.3298  0.1728
19377TIP3    H179622   3.297   6.774  14.200  2.0556 -1.1056  0.7918
19377TIP3    H279623   3.166   6.704  14.229 -0.2995  2.4467 -0.5599
19378TIP3   OH279624   2.295   5.352   0.732  0.1234  0.3511 -0.2311
19378TIP3    H179625   2.217   5.403   0.754  0.7314  0.6646  1.3113
19378TIP3    H279626   2.333   5.329   0.816  1.6771  0.1592 -0.9531
19379TIP3   OH279627   4.648   1.634  16.319 -0.0471  0.2124 -0.2860
19379TIP3    H179628   4.619   1.675  16.237  1.1204 -0.4869 -1.0812
19379TIP3    H279629   4.646   1.705  16.383  1.0479  1.3332 -1.4212
19380TIP3   OH279630   2.316   4.956  14.255  0.3221  0.3551 -0.1748
19380TIP3    H179631   2.225   4.950  14.282  0.2055  0.9234 -0.4224
19380TIP3    H279632   2.316   5.019  14.183  0.9716  0.7011  0.1182
19381TIP3   OH279633   5.519   1.764  13.416  0.1650 -0.8943 -0.0202
19381TIP3    H179634   5.464   1.725  13.485 -1.6113  2.2135  0.5141
19381TIP3    H279635   5.577   1.825  13.463  2.0221 -1.8981 -0.9160
19382TIP3   OH279636   5.375   2.851   5.460  0.2159 -0.4842 -0.2412
19382TIP3    H179637   5.374   2.822   5.551 -2.0694  0.0883 -0.0389
19382TIP3    H279638   5.285   2.878   5.442  1.1044  1.5909 -1.9780
19383TIP3   OH279639   2.383   4.668   0.206  0.2383  0.0073  0.5689
19383TIP3    H179640   2.384   4.579   0.239 -1.7403 -0.1427  0.3379
19383TIP3    H279641   2.333   4.718   0.271  1.6475  1.0681  0.9015
19384TIP3   OH279642   1.283   0.329   2.198 -0.1148  0.8523  0.2756
19384TIP3    H179643   1.197   0.340   2.238 -0.0850  1.0028  0.2997
19384TIP3    H279644   1.315   0.418   2.184 -0.1271  0.8023 -0.0889
19385TIP3   OH279645   0.611   5.025   5.849 -0.4230  0.1514 -0.0419
19385TIP3    H179646   0.631   5.082   5.924  0.9753 -2.6420  1.9150
19385TIP3    H279647   0.696   5.009   5.808 -0.8014 -0.4084 -0.6251
19386TIP3   OH279648   1.788   6.243   1.574 -0.1896 -0.1258 -0.1277
19386TIP3    H179649   1.864   6.200   1.614  0.4708  1.5182  0.4534
19386TIP3    H279650   1.789   6.213   1.483  0.2374 -1.3175  0.2432
19387TIP3   OH279651   1.768   5.660   0.576  0.1251 -0.0562 -0.1920
19387TIP3    H179652   1.828   5.596   0.538 -0.6959 -0.3673 -1.0021
19387TIP3    H279653   1.824   5.734   0.601  0.6823  0.3175 -2.3556
19388TIP3   OH279654   1.433   1.562   0.390  0.0199  0.5806  0.8796
19388TIP3    H179655   1.393   1.488   0.344 -0.2327  1.2541 -0.0204
19388TIP3    H279656   1.526   1.540   0.397 -0.3128 -0.5446  2.0861
19389TIP3   OH279657   6.063   0.037  13.884  0.0900  0.0252  0.4088
19389TIP3    H179658   5.976   0.005  13.904  0.0827 -0.6116 -0.5896
19389TIP3    H279659   6.122  -0.027  13.924  0.0870 -0.3562 -0.1955
19390TIP3   OH279660   5.230   6.258   3.987  0.5640 -0.0459  0.4308
19390TIP3    H179661   5.304   6.207   4.019  1.0310  0.7739  0.6833
19390TIP3    H279662   5.169   6.261   4.061 -0.3418 -1.8244 -0.1909
19391TIP3   OH279663   6.214   1.688   3.015  0.2451 -0.2360  1.0222
19391TIP3    H179664   6.252   1.601   3.022 -1.6917 -1.2769 -0.4249
19391TIP3    H279665   6.289   1.747   3.016  1.6571 -1.9469  1.3026
19392TIP3   OH279666   2.084   0.233   3.765  0.4186 -0.0534 -0.0138
19392TIP3    H179667   2.042   0.318   3.746  2.7116  0.8871 -1.2385
19392TIP3    H279668   2.085   0.229   3.861  0.4769  1.4257  0.0823
19393TIP3   OH279669   3.966   3.745   5.674 -0.2170  0.0496  0.2011
19393TIP3    H179670   3.966   3.746   5.769  1.6690  1.4075  0.2388
19393TIP3    H279671   3.999   3.658   5.651  2.4624  0.7926  0.9059
19394TIP3   OH279672   5.715   1.161   4.538 -0.0230 -0.0640 -0.4147
19394TIP3    H179673   5.703   1.104   4.462  0.0529 -0.3886 -0.1869
19394TIP3    H279674   5.646   1.135   4.599  0.3398 -0.2811 -0.0922
19395TIP3   OH279675   6.509   3.055   4.412 -0.2635  0.2950 -0.3040
19395TIP3    H179676   6.414   3.059   4.428 -0.1268 -1.8000  1.5666
19395TIP3    H279677   6.518   3.000   4.335 -0.5739 -2.0613  1.2333
19396TIP3   OH279678   5.779   5.951   1.691 -0.3492 -0.1807  0.8950
19396TIP3    H179679   5.836   5.931   1.766  0.8420 -1.3926 -0.2882
19396TIP3    H279680   5.839   5.977   1.622 -1.4676  1.4057  0.4534
19397TIP3   OH279681   0.560   1.952   4.746 -0.2441 -0.0010  0.4827
19397TIP3    H179682   0.629   1.984   4.688 -0.3377  1.1069  0.9506
19397TIP3    H279683   0.495   1.914   4.687 -0.7165  1.8261 -0.2369
19398TIP3   OH279684   0.841   5.257   2.686 -0.4860  0.0590  0.5985
19398TIP3    H179685   0.850   5.303   2.769  0.8414  3.1930 -1.1137
19398TIP3    H279686   0.748   5.268   2.663 -1.3039 -2.3774  2.3648
19399TIP3   OH279687   2.264   0.513   1.785  0.1541  0.5642 -0.2698
19399TIP3    H179688   2.218   0.575   1.841 -1.2839 -1.3141  0.7497
19399TIP3    H279689   2.195   0.470   1.734  1.3244  1.4527 -2.7892
19400TIP3   OH279690   0.350   1.146  16.752 -0.4732 -0.1661 -0.5251
19400TIP3    H179691   0.380   1.223  16.704 -0.7477 -0.1873 -0.7287
19400TIP3    H279692   0.345   1.077  16.686 -1.1089 -0.1282 -0.5204
19401TIP3   OH279693   1.729   2.474  16.163 -0.0810  0.7185  0.2924
19401TIP3    H179694   1.634   2.463  16.165 -0.0533  0.3962  0.0368
19401TIP3    H279695   1.742   2.565  16.139 -0.3312  0.4707 -0.8651
19402TIP3   OH279696   4.370   1.060  11.766 -0.6874  0.0320  0.1002
19402TIP3    H179697   4.462   1.038  11.752 -1.0533 -1.5716 -0.0352
19402TIP3    H279698   4.361   1.067  11.861 -0.6828 -1.2099  0.2149
19403TIP3   OH279699   2.203   4.474   3.403  0.0061 -0.0742 -0.0846
19403TIP3    H179700   2.142   4.437   3.339 -0.3640  1.6720 -0.8081
19403TIP3    H279701   2.162   4.459   3.488 -0.2437 -1.0529 -0.3683
19404TIP3   OH279702   0.833   0.669   4.965  0.2153 -0.4981 -0.4624
19404TIP3    H179703   0.801   0.694   5.051 -0.7070  0.2027 -0.9879
19404TIP3    H279704   0.856   0.752   4.923 -0.5610 -0.7102 -1.3469
19405TIP3   OH279705   1.404   1.018  11.749  0.1109  0.4831 -0.2255
19405TIP3    H179706   1.437   1.105  11.772 -1.8732  1.2603 -0.1441
19405TIP3    H279707   1.397   1.020  11.653 -1.1279  0.8821 -0.1334
19406TIP3   OH279708   2.679   0.934   1.152  0.6864 -0.2121 -0.0939
19406TIP3    H179709   2.680   0.947   1.247 -1.1644 -0.9927  0.0783
19406TIP3    H279710   2.744   0.866   1.136  2.8579  1.6566  0.2503
19407TIP3   OH279711   2.616   2.499  11.744  0.0329 -0.3663  0.4378
19407TIP3    H179712   2.643   2.450  11.666 -0.9361  0.8888 -0.7441
19407TIP3    H279713   2.606   2.433  11.812  1.9863 -1.3598 -0.1835
19408TIP3   OH279714   4.995   5.134   1.263  0.0421  0.4522  0.1218
19408TIP3    H179715   5.045   5.139   1.181  1.2198  0.8921  0.8416
19408TIP3    H279716   4.910   5.099   1.237  0.6719 -0.1915 -1.1715
19409TIP3   OH279717   2.412   3.490  11.296 -1.0637 -0.1233  0.1025
19409TIP3    H179718   2.396   3.446  11.380 -0.1015 -0.8100 -0.0534
19409TIP3    H279719   2.462   3.426  11.245 -0.3941  0.8308 -0.4686
19410TIP3   OH279720   3.740   1.973   0.517  0.0800 -0.0705  0.5590
19410TIP3    H179721   3.710   1.998   0.604 -1.2042 -0.3554  0.2117
19410TIP3    H279722   3.662   1.940   0.472  1.3891 -3.6464  0.5951
19411TIP3   OH279723   2.425   3.362  14.482  0.0289 -0.1922  0.5753
19411TIP3    H179724   2.457   3.303  14.551  0.0130 -0.6648  0.1845
19411TIP3    H279725   2.393   3.303  14.414 -0.0531  0.2750  0.2104
19412TIP3   OH279726   4.669   0.696   1.502 -0.3396 -0.6259 -0.3564
19412TIP3    H179727   4.713   0.693   1.417 -1.4509 -1.2993 -0.9295
19412TIP3    H279728   4.578   0.719   1.481 -0.7571 -1.3620  0.6005
19413TIP3   OH279729   1.257   0.246  16.956  0.3211 -0.8813  0.1605
19413TIP3    H179730   1.211   0.273  17.035 -0.7365  0.0125 -0.7199
19413TIP3    H279731   1.300   0.163  16.979  0.4435 -0.3780  1.7919
19414TIP3   OH279732   0.108   6.275   1.769 -0.3473  0.8363 -0.2792
19414TIP3    H179733   0.157   6.230   1.701 -0.4511  2.6972 -1.6653
19414TIP3    H279734   0.017   6.272   1.739 -0.3259  2.1205 -0.5020
19415TIP3   OH279735   0.011   1.619  15.550  0.2513  0.0924  0.6649
19415TIP3    H179736   0.055   1.600  15.633  0.3775 -1.3150  0.2972
19415TIP3    H279737  -0.079   1.639  15.574  0.2903 -0.2965  1.1321
19416TIP3   OH279738   0.441   0.144   1.587  0.5833  0.5232 -0.2825
19416TIP3    H179739   0.417   0.083   1.517 -1.8594  0.3427  0.5920
19416TIP3    H279740   0.380   0.217   1.577  1.7158  1.5748  0.2890
19417TIP3   OH279741   2.429   4.004   4.272  0.1452 -0.2233 -0.7270
19417TIP3    H179742   2.340   3.983   4.244 -0.4499 -0.6928  1.3759
19417TIP3    H279743   2.485   3.958   4.209 -1.1244 -2.2882 -0.4552
19418TIP3   OH279744   0.636   0.166   2.250 -0.1491 -0.1776  0.1784
19418TIP3    H179745   0.552   0.204   2.278 -0.3163 -0.7540  0.4835
19418TIP3    H279746   0.645   0.087   2.303 -0.6578 -1.5300 -1.6492
19419TIP3   OH279747   0.906   6.498   2.805 -0.4339  0.0742 -0.2975
19419TIP3    H179748   0.844   6.483   2.876  0.4870  0.4034  0.5943
19419TIP3    H279749   0.940   6.412   2.783 -0.2585  0.0376  0.1022
19420TIP3   OH279750   4.203   0.542   3.765  0.6047 -0.5390  0.5360
19420TIP3    H179751   4.269   0.497   3.713 -0.2065  0.8356 -1.8693
19420TIP3    H279752   4.148   0.586   3.700 -2.6769 -1.5756  2.3841
19421TIP3   OH279753   4.388   1.056   0.291  0.3492 -0.6055  0.1247
19421TIP3    H179754   4.418   1.066   0.200  1.1737 -2.3541  0.1778
19421TIP3    H279755   4.422   1.134   0.335  0.1963  0.1220 -0.9815
19422TIP3   OH279756   5.228   3.200   2.418 -0.1203 -0.8030 -0.5239
19422TIP3    H179757   5.219   3.177   2.325 -0.2390 -0.1579 -0.6834
19422TIP3    H279758   5.246   3.294   2.417 -0.3293 -0.7503  0.1186
19423TIP3   OH279759   6.823   2.224   3.767  0.0079  0.2372 -0.1539
19423TIP3    H179760   6.844   2.316   3.780 -1.6125  1.1953 -3.3665
19423TIP3    H279761   6.731   2.217   3.794 -0.2508 -0.1159 -1.0999
19424TIP3   OH279762   4.653   4.070  15.121  0.0447  0.2324  0.0353
19424TIP3    H179763   4.594   4.073  15.196  0.8920  0.9413  0.6937
19424TIP3    H279764   4.626   4.144  15.066 -1.0275 -0.6953 -0.7402
19425TIP3   OH279765   6.309   2.345  15.833  0.7284 -0.1106  0.3854
19425TIP3    H179766   6.395   2.309  15.853  1.0799  0.9942  0.9597
19425TIP3    H279767   6.266   2.277  15.780  1.1206 -1.6024  1.8883
19426TIP3   OH279768   6.104   1.271  15.855  0.2785 -0.0117  0.0133
19426TIP3    H179769   6.124   1.197  15.796 -0.0717  1.3171 -1.8806
19426TIP3    H279770   6.039   1.237  15.916  1.5944 -1.8234  0.5035
19427TIP3   OH279771   3.641   2.894   4.332 -0.0330  0.7528  0.0774
19427TIP3    H179772   3.548   2.888   4.308 -0.1718 -1.8230  0.9364
19427TIP3    H279773   3.657   2.988   4.340 -2.3391  1.3139 -0.8874
19428TIP3   OH279774   2.256   4.295  11.511 -0.1203  0.7198  0.2551
19428TIP3    H179775   2.252   4.265  11.420  0.6642  2.1740 -0.3078
19428TIP3    H279776   2.333   4.352  11.513  0.5497 -0.1856  2.1272
19429TIP3   OH279777   0.133   0.926   3.908 -0.0516 -0.2396  0.8559
19429TIP3    H179778   0.040   0.928   3.885  0.0458 -0.2698  0.4502
19429TIP3    H279779   0.176   0.972   3.836  0.4533 -1.9879 -0.0115
19430TIP3   OH279780   4.557   3.579  13.039  0.2746  0.2162 -0.0765
19430TIP3    H179781   4.491   3.601  13.105  0.8530  0.6895  0.3458
19430TIP3    H279782   4.614   3.516  13.082  0.5763  0.4269 -0.1672
19431TIP3   OH279783   4.437   3.380  13.428 -0.1584  0.1442  0.3545
19431TIP3    H179784   4.371   3.436  13.470  0.0064  0.1788  0.5693
19431TIP3    H279785   4.474   3.434  13.359 -1.0098 -0.1920 -0.3793
19432TIP3   OH279786   0.830   3.026  12.967  0.0761 -0.4766  0.3174
19432TIP3    H179787   0.790   3.041  12.881  0.4756 -0.1377  0.1913
19432TIP3    H279788   0.852   3.113  12.999 -0.9161 -0.5155  1.1777
19433TIP3   OH279789   4.458   3.198  16.655  0.6496 -0.4473  0.6637
19433TIP3    H179790   4.489   3.152  16.733 -1.7112 -2.4095  0.5843
19433TIP3    H279791   4.423   3.128  16.599 -1.0329  1.2328 -0.5113
19434TIP3   OH279792   3.916   1.353  16.872 -0.3072  0.0906  0.4128
19434TIP3    H179793   3.905   1.447  16.859 -0.8892 -0.0781 -0.4004
19434TIP3    H279794   3.844   1.314  16.823  2.2524 -0.9636 -2.8384
19435TIP3   OH279795   3.571   1.666   3.633  0.5749  0.5412  0.1355
19435TIP3    H179796   3.644   1.665   3.572  0.4173  0.5910 -0.0533
19435TIP3    H279797   3.599   1.726   3.702  0.1541  1.6476 -0.6294
19436TIP3   OH279798   4.765   0.989  10.931  0.7539  0.2015 -0.1120
19436TIP3    H179799   4.783   0.958  10.842 -2.3349  1.7790 -1.4509
19436TIP3    H279800   4.670   0.981  10.939  0.8560  1.1199  2.6938
19437TIP3   OH279801   6.341   5.664  13.945 -0.0310 -0.0256 -0.1760
19437TIP3    H179802   6.359   5.603  13.873  2.1033  1.3583 -0.8896
19437TIP3    H279803   6.401   5.638  14.015  0.1316  0.5843 -0.0825
19438TIP3   OH279804   2.048   2.039   0.721 -0.0244 -0.3285  0.4055
19438TIP3    H179805   2.102   2.084   0.656 -0.9022  0.9459  0.5122
19438TIP3    H279806   2.061   1.946   0.704  0.8503 -0.0238 -0.6750
19439TIP3   OH279807   1.517   2.966  13.442  0.5916  0.5035  0.5455
19439TIP3    H179808   1.500   2.875  13.467  0.0746  0.8556  1.5044
19439TIP3    H279809   1.489   3.018  13.517  1.1724  1.4440  0.1340
19440TIP3   OH279810   4.720   0.986  12.620 -0.2602 -0.0400  0.0489
19440TIP3    H179811   4.731   0.892  12.605  0.2879  0.4288 -3.3616
19440TIP3    H279812   4.772   1.004  12.699  2.4868 -2.1182 -1.0987
19441TIP3   OH279813   1.403   6.741   5.423  0.4451  0.0355 -0.3348
19441TIP3    H179814   1.439   6.690   5.496 -0.1609 -0.8998 -0.6687
19441TIP3    H279815   1.327   6.786   5.460  0.9568  0.6808 -0.0489
19442TIP3   OH279816   1.123   0.750   6.637  0.5175  0.7922 -0.0492
19442TIP3    H179817   1.067   0.674   6.650  0.4017  1.1269  1.5663
19442TIP3    H279818   1.078   0.802   6.571  0.4010 -0.3365 -0.8887
19443TIP3   OH279819   3.804   0.584   2.051 -0.2200  0.1630 -0.4316
19443TIP3    H179820   3.843   0.504   2.087 -0.4328 -1.5625 -3.6134
19443TIP3    H279821   3.710   0.574   2.067 -0.1538  0.2293 -0.0056
19444TIP3   OH279822   1.681   3.724  16.706  0.5765 -0.0981  0.4038
19444TIP3    H179823   1.655   3.809  16.742  1.9712 -0.4167  2.2727
19444TIP3    H279824   1.609   3.665  16.730 -0.0373  0.3747 -0.2343
19445TIP3   OH279825   6.731   2.117  12.431  0.0202  0.2389 -0.0596
19445TIP3    H179826   6.785   2.105  12.509  1.3551 -0.9725 -1.1170
19445TIP3    H279827   6.794   2.114  12.358 -1.2420  0.8728 -1.2172
19446TIP3   OH279828   3.538   4.389   3.888  0.4740 -0.8784  0.6249
19446TIP3    H179829   3.562   4.476   3.921  0.3510 -0.6516  0.1119
19446TIP3    H279830   3.480   4.353   3.956 -0.7632  0.0710  0.1057
19447TIP3   OH279831   5.389   5.880   4.606  0.2724  1.0094  0.5793
19447TIP3    H179832   5.477   5.879   4.642  1.0802  2.2266 -1.2317
19447TIP3    H279833   5.360   5.971   4.614 -0.8746  0.6162  1.2102
19448TIP3   OH279834   2.104   5.038  13.170  0.4883  0.1703  1.1417
19448TIP3    H179835   2.189   5.004  13.200 -0.2951  0.3921  3.8987
19448TIP3    H279836   2.126   5.118  13.122  1.8626 -0.0424  1.3753
19449TIP3   OH279837   6.626   4.443  15.622 -0.4486  0.1827 -0.4410
19449TIP3    H179838   6.537   4.448  15.588 -0.0158  0.5592 -1.5579
19449TIP3    H279839   6.679   4.416  15.547  0.3507 -0.2320  0.2621
19450TIP3   OH279840   0.774   1.153   3.760 -0.1789 -0.2621  0.2888
19450TIP3    H179841   0.691   1.145   3.713 -0.6366 -0.3015  1.0854
19450TIP3    H279842   0.839   1.163   3.691 -0.8642 -0.0272 -0.3471
19451TIP3   OH279843   0.331   6.669  16.673  0.1032  0.1407 -0.3222
19451TIP3    H179844   0.369   6.745  16.630 -0.4888  0.2712 -0.6351
19451TIP3    H279845   0.396   6.600  16.662  0.8699  0.7370  0.4232
19452TIP3   OH279846   3.581   6.834  14.500 -0.0190  0.1809  0.0883
19452TIP3    H179847   3.577   6.789  14.416  0.6811  0.0100  0.1384
19452TIP3    H279848   3.617   6.921  14.479  1.9497 -0.5021  0.4303
19453TIP3   OH279849   0.398   1.108   4.015 -0.0856  0.7746 -0.1733
19453TIP3    H179850   0.421   1.112   4.108  1.6485 -1.7234 -0.3818
19453TIP3    H279851   0.304   1.086   4.014 -0.1138  0.7862  1.0009
19454TIP3   OH279852   0.568   5.385   5.902  0.0118  0.4761  0.2165
19454TIP3    H179853   0.508   5.340   5.842 -1.4705 -0.1976  2.1342
19454TIP3    H279854   0.532   5.473   5.910 -0.9024  0.0022  1.5504
19455TIP3   OH279855   1.084   4.413  13.347  0.2173  0.1106 -0.4045
19455TIP3    H179856   1.000   4.390  13.308 -1.1487  3.3156  0.2899
19455TIP3    H279857   1.131   4.461  13.279 -0.0430  1.3475  0.2540
19456TIP3   OH279858   5.671   4.424  11.809  0.4109 -0.0455 -0.5687
19456TIP3    H179859   5.598   4.478  11.780 -0.0791  0.2909  1.1981
19456TIP3    H279860   5.748   4.478  11.795  0.0397  0.6583  0.0473
19457TIP3   OH279861   2.885   2.051   6.242  0.1660  0.3473 -0.3383
19457TIP3    H179862   2.946   1.981   6.266 -0.3316 -0.4338 -1.3016
19457TIP3    H279863   2.932   2.132   6.265  0.3054 -0.2803  1.8178
19458TIP3   OH279864   0.357   6.418  13.472 -0.4285  0.1314 -0.0536
19458TIP3    H179865   0.428   6.460  13.520 -0.3888 -1.1585  1.0795
19458TIP3    H279866   0.319   6.488  13.419  1.3785  0.9515 -0.3453
19459TIP3   OH279867   1.786   3.315  13.563  0.4980 -0.1035 -0.2584
19459TIP3    H179868   1.713   3.292  13.506  0.1373 -0.2171  0.2381
19459TIP3    H279869   1.851   3.248  13.548  0.6497  0.1998 -0.9730
19460TIP3   OH279870   5.966   3.349   4.408  0.5488  0.6786  0.4736
19460TIP3    H179871   5.917   3.399   4.343 -1.8582 -1.6788  0.2774
19460TIP3    H279872   6.001   3.274   4.360  2.4388  1.0996  1.1163
19461TIP3   OH279873   0.752   6.686  11.926  0.1635  0.4658  0.2947
19461TIP3    H179874   0.801   6.614  11.887  1.2032  0.9682  0.6179
19461TIP3    H279875   0.790   6.765  11.887 -1.8243  0.8245 -1.0399
19462TIP3   OH279876   1.557   2.973  13.149  0.4669  0.2806 -0.0596
19462TIP3    H179877   1.649   2.950  13.152  0.3929 -0.2031 -1.1431
19462TIP3    H279878   1.540   3.017  13.233  2.1129  2.0280 -0.5724
19463TIP3   OH279879   5.883   5.488   0.432 -0.0988 -0.1540 -0.1502
19463TIP3    H179880   5.822   5.440   0.377 -0.9601 -0.6385  1.1740
19463TIP3    H279881   5.866   5.457   0.521  0.7833  1.0675  0.4911
19464TIP3   OH279882   2.275   3.998   5.341  0.4497 -0.4684  0.4650
19464TIP3    H179883   2.190   4.027   5.375 -0.3033  0.3572 -1.9390
19464TIP3    H279884   2.333   4.072   5.358  0.7978 -1.0853  2.2366
19465TIP3   OH279885   1.392   1.241  12.582 -0.4805 -0.3681 -0.4700
19465TIP3    H179886   1.349   1.182  12.520 -1.8351 -0.1139  0.1998
19465TIP3    H279887   1.404   1.187  12.661 -1.0977  0.0478 -0.0895
19466TIP3   OH279888   0.643   0.771   6.236 -0.2021 -0.0372  0.9243
19466TIP3    H179889   0.717   0.785   6.177 -1.1802  1.1107 -0.0720
19466TIP3    H279890   0.598   0.694   6.200 -0.4180  0.2595  0.5524
19467TIP3   OH279891   6.274   3.536   2.387  0.3498 -0.7087 -0.0751
19467TIP3    H179892   6.357   3.576   2.416  0.2008 -0.6565  0.2874
19467TIP3    H279893   6.249   3.586   2.309  0.1006  0.0005  0.4473
19468TIP3   OH279894   4.859   4.972   4.642  0.0921 -0.5852  0.2509
19468TIP3    H179895   4.890   4.897   4.693  0.9557 -0.6446 -0.3607
19468TIP3    H279896   4.811   5.025   4.706  0.8214 -0.8592  1.0433
19469TIP3   OH279897   4.656   4.368  14.662  0.1934 -0.2848 -0.2597
19469TIP3    H179898   4.722   4.407  14.605  0.9466 -0.4939  0.4430
19469TIP3    H279899   4.578   4.359  14.607  0.2162  1.5337 -0.6291
19470TIP3   OH279900   3.990   4.982  14.475 -0.1921  0.1943  0.7527
19470TIP3    H179901   3.953   4.895  14.462 -0.7129  0.5300 -0.1439
19470TIP3    H279902   4.042   4.975  14.554 -0.8235 -0.7447  1.0996
19471TIP3   OH279903   5.424   0.550  15.670 -0.4599 -0.6442  0.0234
19471TIP3    H179904   5.445   0.461  15.640  0.4687 -0.5892  0.4599
19471TIP3    H279905   5.356   0.580  15.610 -0.3223 -1.4107 -0.5378
19472TIP3   OH279906   4.568   0.334   0.471  0.1037 -0.4636 -1.0607
19472TIP3    H179907   4.546   0.249   0.508 -0.7083 -0.2897 -1.1210
19472TIP3    H279908   4.508   0.395   0.514 -0.0338 -0.0792 -1.7758
19473TIP3   OH279909   0.898   5.781  11.013  0.3987  0.2114 -0.2887
19473TIP3    H179910   0.827   5.825  10.965  0.3511  0.6354  0.1669
19473TIP3    H279911   0.890   5.689  10.989 -0.6703  0.1631  0.2084
19474TIP3   OH279912   4.990   0.644  10.004  0.5107  0.1680 -0.6283
19474TIP3    H179913   5.005   0.566   9.951 -0.1722 -0.1810 -0.3231
19474TIP3    H279914   4.909   0.682   9.970  0.8121  0.7264 -0.7450
19475TIP3   OH279915   2.455   6.592   2.424 -0.2181  0.1441  0.6403
19475TIP3    H179916   2.390   6.530   2.392  0.5172 -0.3088 -0.0032
19475TIP3    H279917   2.537   6.563   2.385  0.3562  0.7708  1.3516
19476TIP3   OH279918   1.388   6.026  16.489  0.1353  0.2422 -0.0119
19476TIP3    H179919   1.473   6.032  16.533  0.3377 -0.2142 -0.3274
19476TIP3    H279920   1.409   6.020  16.396 -0.2415  0.1787 -0.0957
19477TIP3   OH279921   2.032   4.329   4.837 -0.5588 -0.2969  0.1979
19477TIP3    H179922   2.124   4.346   4.857 -0.7740  0.0220  0.9732
19477TIP3    H279923   2.033   4.287   4.751  0.2657  0.2157 -0.0512
19478TIP3   OH279924   2.898   2.305  17.016 -0.1536 -0.1951 -0.1928
19478TIP3    H179925   2.976   2.251  17.004 -0.8076 -1.3001  0.3296
19478TIP3    H279926   2.928   2.394  17.000  1.1142 -0.6365 -0.4293
19479TIP3   OH279927   0.144   5.268   3.007  0.1686  0.0172  0.5862
19479TIP3    H179928   0.122   5.176   3.021  1.0043 -0.4387 -0.9253
19479TIP3    H279929   0.229   5.280   3.050  0.9143 -0.4042 -0.7175
19480TIP3   OH279930   1.492   1.806   3.393 -0.7116 -0.1439 -0.3014
19480TIP3    H179931   1.450   1.762   3.466 -0.9730  1.2713  0.4350
19480TIP3    H279932   1.535   1.883   3.431  0.0941  0.0256 -1.4661
19481TIP3   OH279933   3.731   5.249  16.903  0.0735  0.2508  0.2047
19481TIP3    H179934   3.781   5.325  16.934  0.8082  1.2272 -2.9341
19481TIP3    H279935   3.640   5.269  16.926  0.2320  2.1949 -0.5736
19482TIP3   OH279936   4.929   1.063  16.312  0.0218  0.0530  0.2706
19482TIP3    H179937   4.851   1.037  16.362  0.4073 -0.6350  0.5293
19482TIP3    H279938   4.977   1.121  16.371  0.0502 -0.0738  0.3714
19483TIP3   OH279939   4.215   2.814  14.794 -0.0952  0.7637  0.5311
19483TIP3    H179940   4.260   2.832  14.711 -1.8030 -1.2827 -0.9402
19483TIP3    H279941   4.194   2.900  14.829  1.7453  1.6986 -0.5161
19484TIP3   OH279942   0.327   2.462   1.087  0.1539  0.1152  0.3023
19484TIP3    H179943   0.420   2.476   1.071  0.6717 -1.2251  1.8296
19484TIP3    H279944   0.325   2.397   1.157 -1.9190  1.1507  1.2807
19485TIP3   OH279945   2.732   3.502   1.660  0.4476  0.1087 -0.4909
19485TIP3    H179946   2.769   3.534   1.578  0.2169 -1.3553 -1.1924
19485TIP3    H279947   2.638   3.520   1.654  0.5026  0.4458 -0.3359
19486TIP3   OH279948   0.405   3.248   4.490 -0.4373  0.5732 -0.3367
19486TIP3    H179949   0.449   3.333   4.488  2.4265 -0.8007 -1.2504
19486TIP3    H279950   0.390   3.231   4.583  4.1618 -0.2264  0.4931
19487TIP3   OH279951   0.835   4.376  13.263  0.2148 -0.5843  0.2123
19487TIP3    H179952   0.751   4.352  13.225  0.5641 -2.8836  0.7408
19487TIP3    H279953   0.813   4.423  13.344 -0.5474 -0.7503  0.1064
19488TIP3   OH279954   3.373   5.271   5.069 -0.3502  0.6097  0.4063
19488TIP3    H179955   3.440   5.262   5.001 -0.8519 -1.2478  0.0803
19488TIP3    H279956   3.292   5.290   5.022 -1.0641 -2.3778  0.1654
19489TIP3   OH279957   6.675   3.722   2.628 -0.5206  0.1075  0.1359
19489TIP3    H179958   6.759   3.765   2.610  0.2176 -0.7269  1.4455
19489TIP3    H279959   6.684   3.687   2.717 -2.1537 -0.2704  0.1903
19490TIP3   OH279960   5.255   6.706  10.514  0.6326 -0.3211 -0.0565
19490TIP3    H179961   5.325   6.642  10.500  2.4095  1.4858  0.1967
19490TIP3    H279962   5.266   6.770  10.444 -2.0983 -1.0153 -1.2630
19491TIP3   OH279963   0.654   2.465  10.820 -0.0463  0.2475 -0.2896
19491TIP3    H179964   0.599   2.543  10.809  2.0664  1.6536 -1.5014
19491TIP3    H279965   0.626   2.406  10.751 -0.2476  0.8147 -0.6956
19492TIP3   OH279966   5.746   2.996   3.971 -0.0980 -0.4775  0.7040
19492TIP3    H179967   5.733   2.926   4.036 -2.0459 -0.3411  0.5348
19492TIP3    H279968   5.821   3.045   4.003  1.2272 -2.5101  0.9380
19493TIP3   OH279969   1.479   3.595   4.778 -0.1423 -0.3609 -0.6092
19493TIP3    H179970   1.555   3.622   4.831  0.8857 -1.6717 -1.3354
19493TIP3    H279971   1.404   3.604   4.837  0.4731  1.4890 -0.0344
19494TIP3   OH279972   1.048   1.002  14.479 -0.1899  0.3178  0.1537
19494TIP3    H179973   1.024   1.075  14.536  1.7685  1.4308 -0.3315
19494TIP3    H279974   1.143   0.996  14.487 -0.1913 -1.4303 -0.7319
19495TIP3   OH279975   4.324   2.484  14.632  0.1742 -0.8659  0.2083
19495TIP3    H179976   4.238   2.518  14.656 -0.0292 -0.6996 -0.7212
19495TIP3    H279977   4.306   2.405  14.581  0.5564 -0.7407 -0.1315
19496TIP3   OH279978   1.280   0.745  16.224  0.1404 -0.1730  0.0647
19496TIP3    H179979   1.332   0.817  16.188  0.3269 -0.0472  0.5834
19496TIP3    H279980   1.223   0.787  16.289 -0.2047 -0.3973 -0.0917
19497TIP3   OH279981   2.280   0.152  11.175 -0.2205 -0.2568 -0.1492
19497TIP3    H179982   2.233   0.069  11.182 -0.6060  0.0637  1.3372
19497TIP3    H279983   2.368   0.132  11.207 -0.4610  0.0116  0.6990
19498TIP3   OH279984   5.939   5.556  16.794 -0.8870  0.0418  0.0479
19498TIP3    H179985   5.999   5.628  16.780 -1.0088  0.4276  1.3507
19498TIP3    H279986   5.902   5.538  16.708  0.0185  0.7442 -0.5037
19499TIP3   OH279987   5.202   1.583   5.423 -0.1552 -0.0949  0.0026
19499TIP3    H179988   5.185   1.581   5.517  0.5827  3.6204  0.3678
19499TIP3    H279989   5.289   1.545   5.413  1.5831  3.0801  1.5284
19500TIP3   OH279990   5.450   5.667   1.603  0.5762  0.4679  0.5926
19500TIP3    H179991   5.532   5.667   1.652  0.6866 -0.6476  0.4398
19500TIP3    H279992   5.385   5.701   1.664  1.3078  2.2957  0.4071
19501TIP3   OH279993   4.094   0.543  12.574 -0.2443 -0.4190 -0.2317
19501TIP3    H179994   4.106   0.526  12.480 -2.5610 -1.1242 -0.4642
19501TIP3    H279995   4.177   0.580  12.602  0.7063 -0.6932 -2.4505
19502TIP3   OH279996   2.970   3.736   0.448  0.4610 -0.4558  0.4185
19502TIP3    H179997   2.965   3.814   0.503  0.0657 -1.1649  1.4233
19502TIP3    H279998   2.893   3.741   0.392  0.7490  0.1650  0.0729
19503TIP3   OH279999   5.111   2.637  13.187 -0.9567 -0.4742  0.3241
19503TIP3    H180000   5.190   2.678  13.152  2.2919 -3.9600  2.7888
19503TIP3    H280001   5.090   2.689  13.265  0.0914 -0.5589  0.6842
19504TIP3   OH280002   5.118   2.503   2.524 -0.1469 -0.7717 -0.3547
19504TIP3    H180003   5.137   2.498   2.618  1.6112  1.0727 -0.5339
19504TIP3    H280004   5.179   2.441   2.484  3.0630  2.1821 -0.5783
19505TIP3   OH280005   6.334   4.592  14.220  0.4482 -0.1536  0.1743
19505TIP3    H180006   6.280   4.514  14.234  0.0502  0.1955  0.6054
19505TIP3    H280007   6.271   4.664  14.213  0.8236  0.1618  0.0171
19506TIP3   OH280008   5.968   5.981  13.505 -0.0174 -0.3113 -0.4884
19506TIP3    H180009   6.041   5.985  13.566 -0.8059  0.6509  0.4174
19506TIP3    H280010   5.961   6.070  13.471  0.3391 -0.8028 -1.9284
19507TIP3   OH280011   4.261   2.854  14.499 -0.0246 -0.2483  0.6191
19507TIP3    H180012   4.273   2.929  14.441 -0.9645  0.0924  0.8491
19507TIP3    H280013   4.337   2.797  14.482  0.0896  0.2010 -0.3901
19508TIP3   OH280014   5.997   6.512   2.341 -0.3118  0.2747  0.3841
19508TIP3    H180015   5.934   6.525   2.269 -1.4503 -1.0174  1.1028
19508TIP3    H280016   5.946   6.529   2.420  0.2949 -0.5772  0.9715
19509TIP3   OH280017   3.868   4.860   1.635  0.2153 -0.0540  0.2641
19509TIP3    H180018   3.888   4.953   1.625 -0.3514  0.1492  0.9484
19509TIP3    H280019   3.774   4.857   1.652  0.0245 -0.8351 -0.8238
19510TIP3   OH280020   5.776   0.121  12.711 -0.6524  0.0126  0.0792
19510TIP3    H180021   5.856   0.170  12.725 -0.0596 -0.5601 -1.1615
19510TIP3    H280022   5.724   0.176  12.652 -0.2365 -0.5436 -0.8384
19511TIP3   OH280023   6.394   5.523  15.013 -0.8342 -0.2262 -0.7686
19511TIP3    H180024   6.321   5.564  15.059 -0.0660 -0.1159  0.3881
19511TIP3    H280025   6.434   5.464  15.077 -0.0827 -0.5020 -1.4660
19512TIP3   OH280026   5.755   0.723  15.953 -0.7102  0.5087  0.5428
19512TIP3    H180027   5.814   0.704  15.881 -2.6065  0.3785 -1.0735
19512TIP3    H280028   5.722   0.811  15.934  0.9592  1.7458  2.9108
19513TIP3   OH280029   6.088   4.360   0.144 -0.2333 -0.1221 -0.1734
19513TIP3    H180030   6.027   4.400   0.206 -1.2796 -0.9068 -0.6424
19513TIP3    H280031   6.111   4.431   0.084  1.1824  0.7684  1.3528
19514TIP3   OH280032   1.367   4.252   3.202  0.1844 -0.5914  0.4747
19514TIP3    H180033   1.307   4.199   3.150 -0.5639 -1.1617  1.8522
19514TIP3    H280034   1.378   4.203   3.284  0.0932  0.9801  1.4875
19515TIP3   OH280035   2.267   5.365   1.732 -0.3731 -0.3521 -0.2183
19515TIP3    H180036   2.353   5.341   1.699 -1.2062 -1.6806 -1.5411
19515TIP3    H280037   2.242   5.292   1.789  0.2372  1.0313  1.9566
19516TIP3   OH280038   2.708   3.788  16.455 -0.0082  0.0174 -0.0048
19516TIP3    H180039   2.688   3.736  16.533  1.3205 -0.3885  0.0869
19516TIP3    H280040   2.699   3.879  16.483  0.3744 -0.1288  0.6008
19517TIP3   OH280041   5.625   1.966   5.007  0.2421  0.5983 -0.3359
19517TIP3    H180042   5.702   2.017   5.029  0.2364  0.8000 -0.7746
19517TIP3    H280043   5.577   1.958   5.089  1.7535 -1.3088  0.4436
19518TIP3   OH280044   3.427   5.177   0.496  0.1043 -0.3625  0.2644
19518TIP3    H180045   3.398   5.186   0.405  2.1245  1.3566 -0.2910
19518TIP3    H280046   3.456   5.086   0.502 -1.3576 -0.9018 -0.3648
19519TIP3   OH280047   2.018   0.370   1.919  0.0465 -0.1052  0.1985
19519TIP3    H180048   1.961   0.303   1.956  1.3423 -0.6492  1.2854
19519TIP3    H280049   2.097   0.323   1.893 -0.1846  0.5436 -1.8145
19520TIP3   OH280050   3.639   2.675   5.213  0.2203 -0.3715 -0.0237
19520TIP3    H180051   3.711   2.641   5.267 -0.0093  0.1490  0.6109
19520TIP3    H280052   3.611   2.599   5.161  1.3909 -0.5242 -0.4734
19521TIP3   OH280053   4.994   2.100   2.895 -0.2879  0.2649  0.2659
19521TIP3    H180054   4.987   2.109   2.990 -0.8043  0.5805  0.2068
19521TIP3    H280055   4.950   2.017   2.876  0.2685 -0.0500  0.3515
19522TIP3   OH280056   4.584   2.918   1.888 -0.2324 -0.1667 -0.2522
19522TIP3    H180057   4.645   2.947   1.821 -0.9240 -0.6038 -1.0825
19522TIP3    H280058   4.638   2.868   1.950  0.5929  1.0982  0.0977
19523TIP3   OH280059   5.130   5.372  11.169  0.0655 -0.2418  0.0720
19523TIP3    H180060   5.083   5.289  11.174 -0.2812  0.0129  1.6843
19523TIP3    H280061   5.072   5.435  11.212  0.2601  0.8809 -1.2400
19524TIP3   OH280062   4.649   5.233  16.344 -0.1399  0.7617  0.1327
19524TIP3    H180063   4.637   5.235  16.438  0.4405 -1.0579  0.2945
19524TIP3    H280064   4.732   5.186  16.331 -1.1185 -0.6891 -1.2963
19525TIP3   OH280065   1.519   0.053  11.231  1.1468 -0.7217 -0.0567
19525TIP3    H180066   1.485   0.141  11.244 -0.2149 -1.3092  0.5360
19525TIP3    H280067   1.531   0.045  11.137 -0.2537 -0.4473 -0.2677
19526TIP3   OH280068   6.815   4.269   2.691 -0.0211  0.1381 -0.1186
19526TIP3    H180069   6.844   4.303   2.606  0.4947 -2.2711 -0.9747
19526TIP3    H280070   6.897   4.253   2.739 -0.3076  1.4687  0.8877
19527TIP3   OH280071   5.333   2.986   1.305  0.1953  0.2409  0.4203
19527TIP3    H180072   5.394   3.059   1.295 -0.0250  0.1106 -2.7922
19527TIP3    H280073   5.298   2.972   1.217 -1.6700 -2.1154  1.4443
19528TIP3   OH280074   2.692   3.468   2.708  0.3423 -0.0268 -0.2521
19528TIP3    H180075   2.611   3.419   2.694  0.0932  0.9720 -2.7497
19528TIP3    H280076   2.665   3.545   2.758  0.0601 -0.5195  0.3646
19529TIP3   OH280077   5.366   0.116   4.332  0.2563 -0.0158 -0.6159
19529TIP3    H180078   5.301   0.169   4.378  1.2158  1.4085 -0.8231
19529TIP3    H280079   5.347   0.131   4.239  2.0152  2.0097 -0.7281
19530TIP3   OH280080   1.034   0.780   0.209 -0.1058  0.0672  0.2360
19530TIP3    H180081   0.968   0.737   0.263  1.9065  0.0743  2.9155
19530TIP3    H280082   1.088   0.708   0.176 -0.0273  0.1986  0.0807
19531TIP3   OH280083   1.891   1.342   2.978  0.1178 -0.6027  0.3533
19531TIP3    H180084   1.838   1.365   2.902  0.6775  0.4697  0.2711
19531TIP3    H280085   1.901   1.424   3.026 -1.3100 -1.4997  2.3052
19532TIP3   OH280086   3.743   3.737  16.106 -0.3271 -0.5190  0.3693
19532TIP3    H180087   3.709   3.781  16.028 -2.2625  1.8895  2.3718
19532TIP3    H280088   3.819   3.689  16.075 -1.1469  0.0751 -3.0218
19533TIP3   OH280089   3.612   2.396  16.238  0.4635 -0.2065  0.3810
19533TIP3    H180090   3.610   2.403  16.333  1.7715 -0.3955  0.4503
19533TIP3    H280091   3.655   2.312  16.221 -1.3509 -1.0423 -0.3997
19534TIP3   OH280092   6.732   5.538  10.808 -0.0232 -0.1021  0.4075
19534TIP3    H180093   6.806   5.484  10.781  0.7376 -0.0481  2.2157
19534TIP3    H280094   6.768   5.627  10.812  1.0495 -0.4890  4.8375
19535TIP3   OH280095   1.782   3.069  15.517 -1.0019 -0.1752 -0.1482
19535TIP3    H180096   1.826   2.984  15.522  4.3127  2.0407 -1.5414
19535TIP3    H280097   1.758   3.089  15.608 -0.0619 -2.1553  0.5950
19536TIP3   OH280098   1.600   0.665  12.519  0.2019  0.1093 -0.4089
19536TIP3    H180099   1.571   0.592  12.573 -0.7574  0.9340  0.2308
19536TIP3    H280100   1.566   0.646  12.432  1.6170 -1.1495 -0.7241
19537TIP3   OH280101   5.223   3.591  10.697  0.0986 -0.2959  0.2988
19537TIP3    H180102   5.147   3.581  10.754  0.7179  0.2217  1.2349
19537TIP3    H280103   5.263   3.504  10.695  0.7969 -0.0298  1.7163
19538TIP3   OH280104   0.632   5.380  15.082  0.1840  0.2657 -0.5303
19538TIP3    H180105   0.559   5.415  15.031  0.6417  0.5407 -0.9997
19538TIP3    H280106   0.695   5.452  15.087  1.6838 -0.8048 -2.5335
19539TIP3   OH280107   5.606   5.404  11.243  0.2069 -0.4938 -0.2847
19539TIP3    H180108   5.635   5.318  11.212  2.1027 -0.3562  0.9450
19539TIP3    H280109   5.561   5.386  11.326  0.7927 -0.2936  0.0808
19540TIP3   OH280110   3.051   3.394  14.934 -0.2705 -0.0895 -0.0197
19540TIP3    H180111   3.134   3.428  14.967  0.0721 -1.2463  0.3484
19540TIP3    H280112   2.994   3.471  14.931  0.3835  0.4723  1.0465
19541TIP3   OH280113   6.574   3.811   3.307 -0.0208 -0.2814  0.7172
19541TIP3    H180114   6.595   3.744   3.372 -0.0149 -0.5823  0.4093
19541TIP3    H280115   6.506   3.772   3.252  0.5208 -0.3377  0.0647
19542TIP3   OH280116   0.587   6.103   3.051 -0.3138 -0.3977  0.2229
19542TIP3    H180117   0.569   6.160   3.126 -0.2238  0.7260 -0.5920
19542TIP3    H280118   0.682   6.098   3.047 -0.3008  0.2117 -0.3039
19543TIP3   OH280119   6.059   1.905   4.908  0.6047  0.2687  0.1525
19543TIP3    H180120   6.014   1.954   4.977  0.7934  0.7772 -0.0814
19543TIP3    H280121   6.134   1.866   4.953  1.1397  1.1957  0.0998
19544TIP3   OH280122   1.013   4.177   3.303  0.2427  0.0755  0.2130
19544TIP3    H180123   0.994   4.216   3.218  2.0049  2.4881  0.8208
19544TIP3    H280124   1.040   4.087   3.282  0.6326  0.6003 -1.7814
19545TIP3   OH280125   2.703   2.683   0.073  0.1275  0.7020  0.4174
19545TIP3    H180126   2.791   2.669   0.110 -0.2270  1.0743  1.4506
19545TIP3    H280127   2.655   2.603   0.095  0.0983  0.6605  0.1997
19546TIP3   OH280128   6.069   2.395   3.465  0.2774  0.6408 -0.1254
19546TIP3    H180129   6.051   2.407   3.371  2.6615  1.8597 -0.4962
19546TIP3    H280130   6.029   2.470   3.507 -1.7036 -0.4371  0.0207
19547TIP3   OH280131   2.068   0.391  14.265  0.1397  0.5927 -0.0609
19547TIP3    H180132   2.039   0.385  14.174 -1.8939  0.9575  0.5128
19547TIP3    H280133   2.047   0.306  14.302  0.9320  0.4588  0.0894
19548TIP3   OH280134   3.895   5.864   1.644 -0.2319  0.3495  0.4011
19548TIP3    H180135   3.891   5.866   1.740  0.4175  0.7010  0.4244
19548TIP3    H280136   3.818   5.813   1.618 -1.5501  1.9248  1.0256
19549TIP3   OH280137   5.745   3.440  10.409 -0.4688  0.2201 -0.2498
19549TIP3    H180138   5.756   3.535  10.407  0.3378  0.1415  0.0872
19549TIP3    H280139   5.671   3.424  10.351 -1.2766  1.1366  0.4735
19550TIP3   OH280140   0.874   6.186   5.459 -0.2198  0.2915 -0.1590
19550TIP3    H180141   0.919   6.136   5.527  0.5830  0.3493 -0.6354
19550TIP3    H280142   0.786   6.150   5.457 -0.5206  0.8642  1.5046
19551TIP3   OH280143   4.091   0.385  15.265 -0.4357 -0.7264  0.5457
19551TIP3    H180144   4.086   0.451  15.334  2.0773 -0.5692  0.6659
19551TIP3    H280145   4.144   0.315  15.302  1.3394 -0.4595 -1.3197
19552TIP3   OH280146   2.046   3.629  11.638  0.2643 -0.2665  0.2128
19552TIP3    H180147   1.985   3.694  11.602  1.6169  0.0221 -1.6989
19552TIP3    H280148   1.991   3.554  11.660 -0.9310  0.3978 -0.4147
19553TIP3   OH280149   4.499   5.522  14.000 -0.2906 -0.0831 -0.2525
19553TIP3    H180150   4.473   5.593  14.059 -0.5889 -1.1164  0.9121
19553TIP3    H280151   4.429   5.458  14.009  1.5403 -2.0021  1.3351
19554TIP3   OH280152   4.630   6.454  15.510  0.5791 -0.0101  0.3693
19554TIP3    H180153   4.617   6.367  15.472 -0.0986 -0.5213  1.6859
19554TIP3    H280154   4.598   6.445  15.600 -1.0622  2.0454  0.0566
19555TIP3   OH280155   1.665   3.504  14.177  0.1419 -0.2867 -0.1032
19555TIP3    H180156   1.673   3.410  14.190 -0.2895 -0.3633 -0.3875
19555TIP3    H280157   1.696   3.542  14.259 -1.2897 -0.7247  0.6836
19556TIP3   OH280158   1.153   6.293  14.761  0.9063 -0.5191 -0.1800
19556TIP3    H180159   1.171   6.361  14.826 -1.1600 -1.4852  1.5015
19556TIP3    H280160   1.235   6.243  14.757  1.1316 -0.3774  1.6457
19557TIP3   OH280161   6.480   3.085   1.204  0.5080 -0.1322  0.5691
19557TIP3    H180162   6.386   3.066   1.209  0.1617  1.3821  0.2882
19557TIP3    H280163   6.509   3.081   1.295  0.6462 -2.6223  0.4896
19558TIP3   OH280164   2.160   3.067  14.206  0.1944  0.1246  0.8280
19558TIP3    H180165   2.228   3.021  14.255  0.9581 -1.6502 -1.6980
19558TIP3    H280166   2.208   3.133  14.155  0.1820 -1.3054 -1.1650
19559TIP3   OH280167   2.093   5.972   3.945 -1.2900 -0.7026 -0.0836
19559TIP3    H180168   2.137   6.050   3.979 -2.2410 -0.1078 -0.1922
19559TIP3    H280169   2.003   6.000   3.929 -1.5437 -1.7171 -0.5043
19560TIP3   OH280170   3.790   4.704   0.908  0.3589 -0.8035  0.3567
19560TIP3    H180171   3.787   4.722   1.002  0.8318 -1.6094  0.5406
19560TIP3    H280172   3.746   4.779   0.867  2.0797  0.6822  1.0698
19561TIP3   OH280173   4.291   4.805   4.355 -0.2947  0.3517 -0.4084
19561TIP3    H180174   4.281   4.871   4.286 -1.8416 -0.5590 -1.1145
19561TIP3    H280175   4.366   4.834   4.406  3.2879 -0.7258 -4.4965
19562TIP3   OH280176   1.426   5.849  11.837  0.4954 -0.0824  0.3958
19562TIP3    H180177   1.442   5.755  11.852 -0.1262 -0.1812  0.4363
19562TIP3    H280178   1.504   5.879  11.790  0.3062 -0.8106 -0.4056
19563TIP3   OH280179   5.252   6.506   5.217  0.5761  0.0398 -0.1781
19563TIP3    H180180   5.269   6.482   5.126  0.7207 -0.1039 -0.1125
19563TIP3    H280181   5.338   6.529   5.252  0.5266  0.0469 -0.0630
19564TIP3   OH280182   5.268   3.489   4.649  0.2578 -0.4944  0.1146
19564TIP3    H180183   5.313   3.558   4.601  1.4925  0.0691  1.9781
19564TIP3    H280184   5.175   3.505   4.633  0.5893  0.2838 -1.2049
19565TIP3   OH280185   2.223   1.426   1.379  0.7073  0.5355 -0.1407
19565TIP3    H180186   2.149   1.402   1.434  1.7297 -1.0592  0.6220
19565TIP3    H280187   2.251   1.511   1.412 -0.7503  1.1436 -0.4265
19566TIP3   OH280188   6.811   2.999   3.533  0.1881 -0.5847  0.2051
19566TIP3    H180189   6.730   3.048   3.517  0.0314 -0.8825  0.0670
19566TIP3    H280190   6.783   2.908   3.538  0.6177 -0.7715 -0.6146
19567TIP3   OH280191   2.988   6.818  14.686 -0.2022  0.3035 -0.0508
19567TIP3    H180192   2.934   6.836  14.609 -1.1933 -2.1036 -0.0170
19567TIP3    H280193   3.076   6.805  14.651 -0.7396 -1.2888 -0.9251
19568TIP3   OH280194   0.093   5.360   1.740 -0.1169  0.3706  0.3598
19568TIP3    H180195   0.098   5.268   1.715 -2.3755  0.4391 -0.5333
19568TIP3    H280196   0.016   5.365   1.797  0.1848  1.6462  0.6888
19569TIP3   OH280197   6.811   4.959   4.144 -0.4039 -0.1706 -0.0138
19569TIP3    H180198   6.899   4.993   4.159 -1.0695  0.8514  1.8837
19569TIP3    H280199   6.753   5.031   4.167 -1.7717 -1.1431 -0.3086
19570TIP3   OH280200   0.187   0.239  13.670 -0.6506  0.2679  0.1354
19570TIP3    H180201   0.181   0.211  13.762 -1.0305 -0.0295  0.0187
19570TIP3    H280202   0.277   0.217  13.644  0.0168  1.8568  0.9229
19571TIP3   OH280203   0.731   4.330   3.537  0.4108  0.1454  0.2026
19571TIP3    H180204   0.816   4.301   3.569  1.0540  0.4420 -1.1771
19571TIP3    H280205   0.750   4.406   3.481 -0.4216 -1.3483 -2.2692
19572TIP3   OH280206   1.143   5.319   5.529 -0.6023  0.1115  0.9001
19572TIP3    H180207   1.173   5.260   5.599 -1.4596  0.0174  1.2100
19572TIP3    H280208   1.199   5.396   5.537  1.9341 -1.3871 -0.8010
19573TIP3   OH280209   1.680   4.985  10.455 -0.1402 -0.2385  0.1436
19573TIP3    H180210   1.744   4.931  10.409 -1.5282 -1.1579 -0.7317
19573TIP3    H280211   1.623   5.020  10.387 -0.7445  0.3618  0.9325
19574TIP3   OH280212   3.305   0.931   0.346 -0.4139  0.3900  0.2166
19574TIP3    H180213   3.362   0.870   0.299 -3.1721 -0.2536 -2.5730
19574TIP3    H280214   3.349   0.944   0.430  1.3117 -3.9364  0.2455
19575TIP3   OH280215   2.571   1.897  13.699  0.1242  0.6673  0.3365
19575TIP3    H180216   2.666   1.905  13.697  0.0797  1.1603  0.1136
19575TIP3    H280217   2.541   1.947  13.624 -0.3066  0.4009  0.3287
19576TIP3   OH280218   5.520   0.867  13.859 -0.3350  0.1560 -0.6234
19576TIP3    H180219   5.553   0.811  13.930 -0.3376 -0.5643 -1.1757
19576TIP3    H280220   5.470   0.807  13.803 -2.4434  1.1708  0.0713
19577TIP3   OH280221   1.307   1.929  13.091  0.5331 -0.0515 -0.6305
19577TIP3    H180222   1.394   1.889  13.088  0.7473 -0.1411  3.1109
19577TIP3    H280223   1.318   2.007  13.145 -1.9196 -0.7967  1.1068
19578TIP3   OH280224   2.687   5.743   3.731  0.2993 -0.0054  0.0998
19578TIP3    H180225   2.598   5.761   3.698  0.7588  1.4290 -0.4543
19578TIP3    H280226   2.673   5.691   3.809 -1.0057 -0.4688 -0.4068
19579TIP3   OH280227   3.460   1.323  14.559 -0.6773 -0.0794 -0.3817
19579TIP3    H180228   3.528   1.368  14.509  0.4901 -0.7723  0.5221
19579TIP3    H280229   3.383   1.380  14.552  0.1428  0.9892 -0.9975
19580TIP3   OH280230   1.570   1.650   6.069 -0.1875 -0.0241 -0.1913
19580TIP3    H180231   1.557   1.557   6.055 -0.6802  0.2352 -1.5267
19580TIP3    H280232   1.485   1.683   6.097  0.3551 -0.2150  1.9286
19581TIP3   OH280233   3.312   5.677  16.320  0.0686  0.0600  0.1694
19581TIP3    H180234   3.316   5.770  16.296  1.4626 -0.4953 -1.9750
19581TIP3    H280235   3.381   5.667  16.386  2.2833 -0.0271 -2.0216
19582TIP3   OH280236   1.919   0.076   4.960  0.2531 -0.1253  0.0373
19582TIP3    H180237   1.976   0.012   5.002  0.9129  0.9515  0.8245
19582TIP3    H280238   1.979   0.134   4.912 -0.3543 -0.2497 -0.8996
19583TIP3   OH280239   5.210   4.964  12.879  0.3553 -0.0657 -0.4310
19583TIP3    H180240   5.175   4.876  12.866  1.3593 -0.9033  1.8792
19583TIP3    H280241   5.280   4.973  12.814  0.9039 -1.4117 -0.0657
19584TIP3   OH280242   3.697   3.796  16.805 -0.3379  0.3542  0.2635
19584TIP3    H180243   3.710   3.795  16.710 -0.7303  2.7102  0.1288
19584TIP3    H280244   3.661   3.882  16.823  0.7443  0.3572  2.7050
19585TIP3   OH280245   0.585   3.641  11.225 -0.3037 -0.7728  0.0740
19585TIP3    H180246   0.530   3.719  11.227 -0.8912 -1.1400 -1.0524
19585TIP3    H280247   0.536   3.578  11.174  0.8352 -1.3745 -0.3202
19586TIP3   OH280248   2.897   4.626  14.021 -0.8817  0.0320 -0.2883
19586TIP3    H180249   2.803   4.632  14.009 -0.5483  3.2246 -2.4050
19586TIP3    H280250   2.922   4.711  14.059  1.1539 -0.7542  0.2583
19587TIP3   OH280251   6.624   1.175   2.825  0.2766  0.1301  0.1305
19587TIP3    H180252   6.678   1.132   2.890  1.3929  1.8193  0.3893
19587TIP3    H280253   6.534   1.165   2.857  0.7380  0.2326  1.5193
19588TIP3   OH280254   1.495   3.464  14.551 -0.0607  0.2363 -0.2184
19588TIP3    H180255   1.510   3.375  14.581 -2.6255 -0.5832 -1.0593
19588TIP3    H280256   1.513   3.461  14.457  1.8702  1.1965  0.0740
19589TIP3   OH280257   0.116   0.122   1.649  0.0244 -0.5483  0.7710
19589TIP3    H180258   0.158   0.127   1.734 -0.1540 -1.2066  0.9009
19589TIP3    H280259   0.151   0.197   1.600  1.2940 -1.0529  0.8924
19590TIP3   OH280260   0.103   2.489   1.726  0.5738 -0.5254  0.3031
19590TIP3    H180261   0.105   2.584   1.738 -0.1033 -0.0027 -2.7493
19590TIP3    H280262   0.177   2.470   1.669  0.9813 -1.9498  1.2390
19591TIP3   OH280263   4.407   3.560   5.581 -0.3207  0.1774 -0.3794
19591TIP3    H180264   4.380   3.614   5.507 -1.8273 -0.3332 -0.2269
19591TIP3    H280265   4.341   3.575   5.648 -1.0717 -2.1381 -0.5015
19592TIP3   OH280266   4.518   4.998   0.367  0.0052 -0.2268  0.2969
19592TIP3    H180267   4.507   4.919   0.314  2.7001  0.1930 -1.1138
19592TIP3    H280268   4.491   5.069   0.310 -0.5746  0.0090  0.8578
19593TIP3   OH280269   3.862   1.759   2.420 -0.1562 -0.7221  0.1563
19593TIP3    H180270   3.790   1.730   2.365  0.3802  0.2351 -1.0906
19593TIP3    H280271   3.828   1.754   2.510 -1.9274  0.1346 -0.4327
19594TIP3   OH280272   5.115   3.955  14.824  0.0510 -0.6403  0.5352
19594TIP3    H180273   5.166   3.882  14.788 -0.5372 -1.0644  0.5422
19594TIP3    H280274   5.035   3.955  14.772 -0.0017 -0.0640  0.6105
19595TIP3   OH280275   5.434   4.360   4.655  0.4104  0.6814 -0.1064
19595TIP3    H180276   5.339   4.352   4.665  0.6216 -0.9880  0.9971
19595TIP3    H280277   5.455   4.307   4.578  0.6611 -0.8860  0.9963
19596TIP3   OH280278   4.734   4.682   4.096  0.0053 -0.6190 -0.2030
19596TIP3    H180279   4.749   4.589   4.109  1.1166 -0.2228  1.8612
19596TIP3    H280280   4.820   4.722   4.104 -0.4267  0.5834 -1.2080
19597TIP3   OH280281   0.661   3.160   3.516 -0.4355 -0.5921  0.2222
19597TIP3    H180282   0.713   3.098   3.466  1.4420  0.7859  0.3663
19597TIP3    H280283   0.699   3.245   3.496  0.9547  0.0049  4.5081
19598TIP3   OH280284   2.877   0.969  14.290  0.6234 -0.3497 -0.7336
19598TIP3    H180285   2.800   0.923  14.324  0.8336 -0.0097  0.2376
19598TIP3    H280286   2.946   0.951  14.354  0.2409  2.7867  0.7452
19599TIP3   OH280287   3.674   5.743  13.741  0.0494  0.1332 -0.3213
19599TIP3    H180288   3.634   5.671  13.790  0.1959  0.5155  0.3766
19599TIP3    H280289   3.679   5.814  13.805 -0.3432  0.8482 -1.0845
19600TIP3   OH280290   4.210   4.675   0.298  0.5215 -0.0148  0.4007
19600TIP3    H180291   4.226   4.680   0.392  0.1795  1.6807  0.3990
19600TIP3    H280292   4.285   4.720   0.258  0.6895 -0.7630 -0.1441
19601TIP3   OH280293   3.307   3.836  13.472 -0.0499  0.3863  0.4128
19601TIP3    H180294   3.250   3.852  13.548 -1.2474 -0.5312 -0.2558
19601TIP3    H280295   3.258   3.774  13.418  1.3516  0.0190 -0.4866
19602TIP3   OH280296   1.368   6.836  11.845  0.0743 -0.6976 -0.0445
19602TIP3    H180297   1.420   6.803  11.919  1.5549 -0.8679 -1.1051
19602TIP3    H280298   1.288   6.783  11.846  0.6204 -1.5435  0.6985
19603TIP3   OH280299   0.213   2.423  10.424 -0.4453 -0.4189 -0.1509
19603TIP3    H180300   0.281   2.474  10.468 -1.4620 -0.2115  1.2325
19603TIP3    H280301   0.257   2.385  10.348  1.3849 -0.8609  1.0759
19604TIP3   OH280302   4.329   4.003   1.227  0.4365  0.1107 -0.4700
19604TIP3    H180303   4.332   4.098   1.222  3.1341  0.0484 -1.0455
19604TIP3    H280304   4.419   3.974   1.217 -0.1184 -2.4803  0.9534
19605TIP3   OH280305   5.073   6.765  13.331  0.2436 -0.2733 -0.0604
19605TIP3    H180306   5.019   6.822  13.385 -2.0606 -1.5305 -0.8935
19605TIP3    H280307   5.107   6.822  13.262  0.4451  0.6513  0.7835
19606TIP3   OH280308   6.453   3.889  16.528 -0.1768  0.4850  0.1740
19606TIP3    H180309   6.403   3.890  16.447 -0.2809  0.6579  0.2398
19606TIP3    H280310   6.542   3.911  16.502 -0.1857  0.4194  0.0899
19607TIP3   OH280311   5.138   1.815   0.671 -0.0959  0.0831  0.2824
19607TIP3    H180312   5.061   1.866   0.695  0.7570  1.0324  1.0771
19607TIP3    H280313   5.107   1.754   0.604 -1.4673  0.6294  0.4031
19608TIP3   OH280314   5.768   1.755   2.239  0.1587  0.5177  0.4173
19608TIP3    H180315   5.824   1.829   2.218 -0.1114  0.1061 -2.1227
19608TIP3    H280316   5.682   1.794   2.257 -0.6631  0.9014 -3.3353
19609TIP3   OH280317   6.138   2.891   3.640  0.0228  0.2024  0.1207
19609TIP3    H180318   6.232   2.905   3.651  0.1448  0.1793 -0.8240
19609TIP3    H280319   6.108   2.860   3.725  1.0464 -0.7769  0.1442
19610TIP3   OH280320   4.694   1.336  11.482  0.1721  0.2032  0.2219
19610TIP3    H180321   4.729   1.249  11.462  0.9020  0.8639 -1.5582
19610TIP3    H280322   4.764   1.379  11.532 -0.3762 -0.3513  1.5204
19611TIP3   OH280323   5.197   5.476  15.640 -0.1178  0.0149  0.0965
19611TIP3    H180324   5.138   5.480  15.715  2.1745 -0.5503  2.0497
19611TIP3    H280325   5.171   5.395  15.594  1.0369 -1.9667  2.7037
19612TIP3   OH280326   0.790   4.912  11.198 -0.8470 -0.6123  0.1079
19612TIP3    H180327   0.853   4.876  11.135 -0.4615  0.5153 -0.1775
19612TIP3    H280328   0.798   4.854  11.274 -0.1616 -1.0558 -0.2836
19613TIP3   OH280329   0.177   6.631  14.535 -0.3383  0.1984 -0.1138
19613TIP3    H180330   0.219   6.668  14.613 -2.0218 -1.1014  1.4877
19613TIP3    H280331   0.219   6.545  14.524  0.3907  0.6609 -1.1041
19614TIP3   OH280332   2.133   6.564   3.321  0.4659 -0.7165 -0.1228
19614TIP3    H180333   2.047   6.531   3.295  0.5272  0.2274 -1.6127
19614TIP3    H280334   2.174   6.490   3.367 -1.4719 -0.8703  1.4537
19615TIP3   OH280335   4.310   0.411   2.935  0.1909 -0.4427 -0.1640
19615TIP3    H180336   4.290   0.497   2.897  1.9772 -0.2730 -0.8077
19615TIP3    H280337   4.301   0.423   3.029  3.0918  1.2989  0.0172
19616TIP3   OH280338   1.772   3.007   5.964  0.5010  0.1247 -0.0581
19616TIP3    H180339   1.764   3.102   5.955  0.2817  0.0277 -0.9650
19616TIP3    H280340   1.863   2.994   5.991  0.9948  0.5148 -1.4577
19617TIP3   OH280341   1.820   5.127  11.196  0.1637  0.0748 -0.0370
19617TIP3    H180342   1.749   5.176  11.153  0.2303  0.9113  0.7689
19617TIP3    H280343   1.876   5.195  11.234  2.0700 -0.5095 -1.6473
19618TIP3   OH280344   5.786   4.467  13.153 -0.3552  0.1833  0.2425
19618TIP3    H180345   5.851   4.410  13.194 -0.7139 -2.2592 -2.3312
19618TIP3    H280346   5.704   4.444  13.197 -0.2153  0.0129  0.4177
19619TIP3   OH280347   3.259   3.956   1.682 -0.5568 -0.2994 -0.4248
19619TIP3    H180348   3.208   3.987   1.757 -2.3164 -0.1105 -1.6154
19619TIP3    H280349   3.258   3.861   1.689 -0.1507 -0.2627  0.1327
19620TIP3   OH280350   6.095   4.487   5.063  0.9495  0.2028  0.2270
19620TIP3    H180351   6.038   4.509   4.989 -0.0259 -2.2619  0.1451
19620TIP3    H280352   6.106   4.392   5.057  2.0557  0.1328  2.4006
19621TIP3   OH280353   6.024   2.744  15.377 -0.0967  0.7510  0.7839
19621TIP3    H180354   6.088   2.793  15.325 -0.7445  0.8578  0.0788
19621TIP3    H280355   6.021   2.657  15.336  0.0186  0.5541  1.1791
19622TIP3   OH280356   3.709   2.944   0.773  0.4131  0.0423  0.0324
19622TIP3    H180357   3.692   2.959   0.679 -0.5259  2.7054  0.5305
19622TIP3    H280358   3.802   2.964   0.783  1.2097 -2.8215 -0.6825
19623TIP3   OH280359   1.221   1.457  12.472 -0.2219  0.0517  0.1263
19623TIP3    H180360   1.186   1.376  12.509 -0.7450  0.1905 -0.0642
19623TIP3    H280361   1.144   1.510  12.451  0.1046  0.4393 -0.1118
19624TIP3   OH280362   6.129   4.915   6.261 -0.5676  0.2671  0.7816
19624TIP3    H180363   6.092   5.002   6.253 -2.3672 -0.2737  2.5734
19624TIP3    H280364   6.064   4.857   6.222  1.4373 -0.2374 -2.1788
19625TIP3   OH280365   6.485   2.477   4.954  0.1096 -0.0309 -0.1415
19625TIP3    H180366   6.531   2.452   5.034  0.0378  0.7286  0.1464
19625TIP3    H280367   6.549   2.462   4.884  0.8896  1.1913  0.2688
19626TIP3   OH280368   4.790   0.287  10.767  0.5640  0.1687  0.1715
19626TIP3    H180369   4.760   0.336  10.691  0.8592 -0.6983 -0.5220
19626TIP3    H280370   4.875   0.251  10.741 -0.1454 -1.6600  0.2085
19627TIP3   OH280371   0.592   0.146  14.226 -0.0577  0.4245 -0.1305
19627TIP3    H180372   0.675   0.102  14.209  0.0710  0.9687 -0.9866
19627TIP3    H280373   0.575   0.196  14.146 -1.1024  0.4886  0.1238
19628TIP3   OH280374   6.728   6.554  12.157 -0.2953  0.5963 -0.2905
19628TIP3    H180375   6.644   6.590  12.127 -0.5729 -0.4959 -0.8728
19628TIP3    H280376   6.704   6.474  12.203  0.3506  0.8894  0.5867
19629TIP3   OH280377   0.834   1.254  11.047 -0.3911 -0.1216 -0.5793
19629TIP3    H180378   0.781   1.216  10.977 -0.6666  0.5874 -0.7635
19629TIP3    H280379   0.921   1.265  11.009 -0.6414  0.6341 -0.9450
19630TIP3   OH280380   6.273   0.215   3.984 -0.9427  0.0417 -0.3878
19630TIP3    H180381   6.287   0.157   3.910  2.9813  1.4145 -0.9516
19630TIP3    H280382   6.231   0.292   3.946 -2.0457 -0.5951 -0.4900
19631TIP3   OH280383   6.836   0.537  14.655 -0.2423 -0.5068  0.1898
19631TIP3    H180384   6.797   0.561  14.571 -0.8313 -2.5121 -0.1581
19631TIP3    H280385   6.905   0.603  14.669 -0.2644 -0.0073 -1.7568
19632TIP3   OH280386   6.358   6.751  13.842 -0.3323  0.5673  0.3051
19632TIP3    H180387   6.367   6.836  13.799 -0.5180  0.0452 -0.7914
19632TIP3    H280388   6.449   6.722  13.856 -0.2079  1.7182  2.3405
19633TIP3   OH280389   5.605   5.170   5.413  0.2554 -0.2526  0.6124
19633TIP3    H180390   5.519   5.172   5.372  0.8410 -1.8985 -0.7960
19633TIP3    H280391   5.629   5.077   5.415  1.1510 -0.0353  2.8496
19634TIP3   OH280392   4.271   5.928  15.083  0.3552  0.0209  0.0377
19634TIP3    H180393   4.217   5.975  15.020  1.7152  2.0550  0.3035
19634TIP3    H280394   4.249   5.835  15.069 -0.3319  0.4954 -2.4970
19635TIP3   OH280395   6.048   2.331   0.726  0.1745  0.0655  0.7276
19635TIP3    H180396   6.000   2.294   0.800 -2.7449 -0.7711 -1.4135
19635TIP3    H280397   6.090   2.256   0.685  2.3107  0.6102  1.7659
19636TIP3   OH280398   2.831   5.917   3.429  0.1171 -0.7371 -0.3138
19636TIP3    H180399   2.906   5.952   3.379  0.8010 -0.9540  0.5394
19636TIP3    H280400   2.757   5.971   3.401  0.6659 -0.2543 -0.8839
19637TIP3   OH280401   0.739   5.693  12.562 -0.1581  0.2044 -0.0962
19637TIP3    H180402   0.675   5.646  12.509 -0.0814  0.7887 -0.7167
19637TIP3    H280403   0.746   5.779  12.520  1.3732 -0.0045 -0.2927
19638TIP3   OH280404   2.363   5.637  11.210  0.2718  0.3786  0.7700
19638TIP3    H180405   2.311   5.561  11.185  1.6300 -0.6580  1.0015
19638TIP3    H280406   2.378   5.626  11.304 -0.6547  1.6725  1.1039
19639TIP3   OH280407   3.758   6.847   2.388  0.0798  0.0241 -0.0108
19639TIP3    H180408   3.692   6.828   2.321 -1.4590  2.0362  0.8214
19639TIP3    H280409   3.839   6.812   2.352 -1.1843 -1.4061 -1.6640
19640TIP3   OH280410   5.874   2.838  10.120 -0.0979 -0.1957  0.0858
19640TIP3    H180411   5.801   2.889  10.084 -0.3804  1.1958  2.4507
19640TIP3    H280412   5.852   2.747  10.100 -1.3878  0.3336 -1.0882
19641TIP3   OH280413   6.823   5.838   4.899 -0.6917 -0.0306 -0.2393
19641TIP3    H180414   6.803   5.751   4.932  1.9610 -1.0266 -0.9662
19641TIP3    H280415   6.842   5.825   4.806  0.9730  1.0406 -0.1157
19642TIP3   OH280416   3.246   0.276  12.260  0.0727  0.1480 -0.2205
19642TIP3    H180417   3.292   0.344  12.211  0.5997  0.2141  0.3577
19642TIP3    H280418   3.311   0.243  12.322  0.2078 -1.7016 -1.2596
19643TIP3   OH280419   3.778   5.700   2.090 -0.0494  0.4372 -0.5034
19643TIP3    H180420   3.695   5.729   2.127  0.0194  0.7231 -0.5722
19643TIP3    H280421   3.794   5.759   2.017  0.8735  1.2350  0.3159
19644TIP3   OH280422   0.771   4.816  10.773 -0.0267  0.2148 -0.3664
19644TIP3    H180423   0.727   4.796  10.691  1.2052 -1.4987 -0.6633
19644TIP3    H280424   0.748   4.742  10.830  2.7695 -1.0201 -0.6975
19645TIP3   OH280425   1.753   6.430  16.242 -0.3713  0.9471  0.0907
19645TIP3    H180426   1.774   6.447  16.150 -0.7178 -0.3248 -0.2413
19645TIP3    H280427   1.838   6.430  16.286 -0.0428  0.0324 -0.5101
19646TIP3   OH280428   5.448   5.821  13.166  0.0029 -0.9071  0.0006
19646TIP3    H180429   5.405   5.884  13.224 -2.4481 -1.5064 -1.0247
19646TIP3    H280430   5.496   5.763  13.225 -1.1823 -0.6004  1.3142
19647TIP3   OH280431   1.348   6.801  13.453 -0.1844 -0.4995 -0.1168
19647TIP3    H180432   1.334   6.894  13.469  1.0471 -0.3579  0.2829
19647TIP3    H280433   1.427   6.798  13.399 -0.7891 -1.2755 -0.9933
19648TIP3   OH280434   2.780   6.603   2.471 -0.0522  0.3898  0.5373
19648TIP3    H180435   2.841   6.570   2.537 -0.7596  2.2588  2.2318
19648TIP3    H280436   2.817   6.687   2.444 -0.6467  0.4254 -0.2080
19649TIP3   OH280437   5.256   2.888  13.261  0.1426  0.1253  0.3226
19649TIP3    H180438   5.329   2.932  13.218  0.1886 -0.3182 -0.0573
19649TIP3    H280439   5.181   2.903  13.204 -0.0098  0.3417  0.5729
19650TIP3   OH280440   4.648   3.897  16.348 -0.2316  0.3441  0.6551
19650TIP3    H180441   4.666   3.984  16.313 -0.1349  0.5244  1.1415
19650TIP3    H280442   4.699   3.838  16.293 -0.1720  0.6120  0.4219
19651TIP3   OH280443   0.059   1.963  15.535  0.1563 -0.1795 -0.2299
19651TIP3    H180444   0.124   1.960  15.606 -0.0299 -0.2126 -0.0583
19651TIP3    H280445   0.077   1.886  15.482 -0.3367 -0.7005  0.3494
19652TIP3   OH280446   4.317   6.531   0.221  0.1034  0.5156 -0.2016
19652TIP3    H180447   4.243   6.482   0.258  0.2667  0.2619 -0.2119
19652TIP3    H280448   4.314   6.615   0.266 -0.3291  0.5919 -0.3625
19653TIP3   OH280449   5.425   6.768   2.648 -0.2386  0.2701 -0.2178
19653TIP3    H180450   5.334   6.784   2.671  0.5358  1.5330  2.2824
19653TIP3    H280451   5.439   6.821   2.569 -1.9706 -1.0602 -1.5045
19654TIP3   OH280452   5.120   2.284   3.806 -0.5492  0.2025 -0.2281
19654TIP3    H180453   5.142   2.377   3.813  0.5976 -0.1174  0.8456
19654TIP3    H280454   5.205   2.240   3.808 -1.1384 -1.0551  2.8472
19655TIP3   OH280455   5.935   3.347   3.255 -0.3609 -0.2804 -0.4558
19655TIP3    H180456   5.858   3.298   3.227 -1.0196 -1.0093  2.3757
19655TIP3    H280457   5.901   3.432   3.283 -0.2121 -0.7304  1.1384
19656TIP3   OH280458   0.681   2.865  10.614  0.3452  0.4446 -0.6892
19656TIP3    H180459   0.596   2.908  10.620  0.4910  0.8142 -1.2499
19656TIP3    H280460   0.729   2.914  10.548  0.4450 -0.6946 -1.4951
19657TIP3   OH280461   4.145   0.411   5.151 -0.1494  0.0218  0.4343
19657TIP3    H180462   4.080   0.376   5.090  0.1015  0.6186 -0.1802
19657TIP3    H280463   4.229   0.377   5.120  0.0171  0.5961  0.2457
19658TIP3   OH280464   5.455   2.977  13.603  0.3383 -0.0733  0.0647
19658TIP3    H180465   5.484   3.016  13.521 -0.1020 -0.2607 -0.1794
19658TIP3    H280466   5.456   3.050  13.666 -1.2595  0.5457 -0.5717
19659TIP3   OH280467   5.095   2.574   6.128  0.0387  0.3298  0.1894
19659TIP3    H180468   5.030   2.636   6.160 -1.8333  0.5799 -3.6088
19659TIP3    H280469   5.141   2.545   6.207 -1.3890  3.7766  2.5248
19660TIP3   OH280470   5.768   6.688   0.345 -0.5446 -0.2104  0.1366
19660TIP3    H180471   5.787   6.745   0.420  0.9427 -1.5614  0.8317
19660TIP3    H280472   5.839   6.705   0.283  0.0655 -1.4576  0.4643
19661TIP3   OH280473   3.050   3.326  12.085  0.4204 -0.6887  0.6733
19661TIP3    H180474   3.037   3.380  12.164  0.8324  0.3431  0.0609
19661TIP3    H280475   3.011   3.241  12.107 -1.9888  0.4059  1.0363
19662TIP3   OH280476   1.617   6.772  15.445  0.3049 -0.7865 -0.4538
19662TIP3    H180477   1.565   6.833  15.394  1.3939  1.9558  1.4984
19662TIP3    H280478   1.629   6.696  15.387 -2.8206 -0.0980 -2.2263
19663TIP3   OH280479   6.533   3.737  11.656  0.2437 -0.4173  0.6267
19663TIP3    H180480   6.443   3.704  11.661  0.0045 -0.2442 -1.6590
19663TIP3    H280481   6.524   3.832  11.656  0.4213 -0.3990  0.4312
19664TIP3   OH280482   5.252   0.719  17.011  0.0264 -0.0578 -0.4815
19664TIP3    H180483   5.276   0.805  16.976 -0.6532 -0.4684 -2.0571
19664TIP3    H280484   5.180   0.736  17.071 -1.1739  0.3606 -1.9743
19665TIP3   OH280485   5.799   0.419   1.217 -0.2105 -0.0351 -0.1288
19665TIP3    H180486   5.756   0.489   1.265 -0.9381  0.4030 -1.3719
19665TIP3    H280487   5.777   0.339   1.266 -1.1978  0.3560  0.0891
19666TIP3   OH280488   4.282   0.344   1.596  0.3879  0.3510  0.0911
19666TIP3    H180489   4.354   0.354   1.534  0.9019 -0.7027  0.4970
19666TIP3    H280490   4.286   0.424   1.650  0.7963  0.6292 -0.3445
19667TIP3   OH280491   0.704   3.656   4.031  0.5240 -1.0665  0.0257
19667TIP3    H180492   0.686   3.742   4.069  2.6164 -0.0266 -1.1359
19667TIP3    H280493   0.625   3.604   4.050 -1.6482  1.6550 -0.9078
19668TIP3   OH280494   1.473   3.709  11.450  0.3792 -0.1570  0.0291
19668TIP3    H180495   1.411   3.637  11.433  0.3825 -0.3021  0.5918
19668TIP3    H280496   1.559   3.667  11.452  0.2585 -0.4319  1.8595
19669TIP3   OH280497   4.813   5.673   5.980 -0.0848 -0.5116  0.1953
19669TIP3    H180498   4.905   5.668   6.007  0.3174  1.0370 -0.7577
19669TIP3    H280499   4.768   5.715   6.053  0.5082  1.2857 -0.4390
19670TIP3   OH280500   3.910   5.654  16.757  0.6752 -0.5080  0.1152
19670TIP3    H180501   3.839   5.690  16.704 -2.0011 -1.5826  2.6977
19670TIP3    H280502   3.931   5.570  16.715 -1.7222 -1.5679  0.8482
19671TIP3   OH280503   1.873   1.224   2.081  0.5250  0.5545  0.0392
19671TIP3    H180504   1.887   1.188   1.993 -0.5403 -1.5183  0.6424
19671TIP3    H280505   1.794   1.277   2.073 -0.4097 -0.7884 -0.0057
19672TIP3   OH280506   0.445   2.811  15.128  0.3101  0.6170  0.8546
19672TIP3    H180507   0.356   2.809  15.092  1.2532  2.9534 -2.0214
19672TIP3    H280508   0.432   2.814  15.223 -2.6841  1.0362  0.5428
19673TIP3   OH280509   4.661   3.973   0.788 -0.2378 -0.2822  0.5495
19673TIP3    H180510   4.573   4.000   0.815  0.0253  0.8672  0.3429
19673TIP3    H280511   4.649   3.928   0.705 -0.9459 -2.9148  1.9873
19674TIP3   OH280512   2.154   3.714  12.052  0.4311  0.2047  0.4800
19674TIP3    H180513   2.152   3.783  11.986 -1.8835 -0.2909 -0.0528
19674TIP3    H280514   2.229   3.659  12.027  0.6947  1.0463 -0.6328
19675TIP3   OH280515   2.717   5.180  13.090  0.2672 -0.5902 -0.2552
19675TIP3    H180516   2.676   5.196  13.005  3.3211 -2.1436 -2.2245
19675TIP3    H280517   2.770   5.258  13.106 -0.0975 -0.4126  0.0807
19676TIP3   OH280518   5.499   3.529   3.107  0.7272 -0.0260 -0.0566
19676TIP3    H180519   5.496   3.449   3.054 -1.3006 -0.2374  0.3013
19676TIP3    H280520   5.415   3.572   3.091  1.1019  1.1949  1.0429
19677TIP3   OH280521   2.476   4.673   4.129 -0.0390  0.1660  0.1564
19677TIP3    H180522   2.397   4.719   4.102 -0.3445 -0.6536 -0.3932
19677TIP3    H280523   2.522   4.653   4.047 -0.8822 -2.1783  0.1778
19678TIP3   OH280524   0.474   2.992  16.415  0.0817 -0.4891 -0.0863
19678TIP3    H180525   0.485   2.907  16.372  2.2882  0.0216 -0.6498
19678TIP3    H280526   0.380   3.007  16.414 -0.2776 -2.4784 -0.8570
19679TIP3   OH280527   2.809   1.784   5.468  0.5367 -0.2171 -0.2439
19679TIP3    H180528   2.771   1.826   5.546 -0.4960 -0.1780 -0.7508
19679TIP3    H280529   2.832   1.696   5.497  1.9478  0.3989  0.6073
19680TIP3   OH280530   2.497   2.217   3.909 -0.1552  0.0565 -0.0547
19680TIP3    H180531   2.439   2.262   3.971 -1.8146 -0.5742 -1.0964
19680TIP3    H280532   2.446   2.209   3.829  1.5446 -0.1642 -1.1685
19681TIP3   OH280533   3.743   6.468  14.434  0.3821 -0.7851 -0.0729
19681TIP3    H180534   3.742   6.420  14.517  0.9152  0.9822  1.0096
19681TIP3    H280535   3.655   6.456  14.398 -0.0891 -1.0012  1.1064
19682TIP3   OH280536   3.320   3.466   2.244 -0.7554  0.2179  0.8060
19682TIP3    H180537   3.393   3.527   2.235 -0.3254 -0.2626  0.9751
19682TIP3    H280538   3.243   3.521   2.256 -1.1381  0.9530 -3.4640
19683TIP3   OH280539   1.020   3.123  15.979 -0.3154 -0.0544 -0.4594
19683TIP3    H180540   0.927   3.109  15.965 -0.4711 -0.8182  1.1513
19683TIP3    H280541   1.025   3.209  16.022 -0.3333 -0.3010  0.0374
19684TIP3   OH280542   5.532   4.278  14.083  0.0892 -0.2540 -0.3856
19684TIP3    H180543   5.554   4.261  14.175  0.9501  1.4549 -0.2213
19684TIP3    H280544   5.586   4.217  14.033 -2.0635 -2.8238  0.2319
19685TIP3   OH280545   6.444   1.246   1.422 -0.2476  0.3907 -0.3607
19685TIP3    H180546   6.376   1.254   1.489 -0.4341 -1.4442 -0.2913
19685TIP3    H280547   6.409   1.185   1.358  1.6122 -1.3086  0.1199
19686TIP3   OH280548   0.651   5.509   5.337 -0.0385 -0.2622 -0.2183
19686TIP3    H180549   0.576   5.456   5.362 -0.1745 -0.8419 -1.7739
19686TIP3    H280550   0.727   5.459   5.368 -0.2236 -0.5756 -0.2644
19687TIP3   OH280551   0.332   3.505   4.614  0.0574  0.2218 -0.0010
19687TIP3    H180552   0.282   3.428   4.640 -0.4557 -0.0003 -1.5465
19687TIP3    H280553   0.275   3.579   4.635  0.3626  0.1779  1.0556
19688TIP3   OH280554   5.446   0.811  12.882 -0.0823 -0.0390 -0.1950
19688TIP3    H180555   5.519   0.850  12.835  0.3977 -0.3551  0.2655
19688TIP3    H280556   5.368   0.844  12.838  0.2949  1.4965  0.2403
19689TIP3   OH280557   4.896   6.328   4.495  0.6564  0.5426  0.1443
19689TIP3    H180558   4.984   6.350   4.528  0.4490  2.5884 -0.5370
19689TIP3    H280559   4.876   6.398   4.433 -0.9447 -0.6100 -0.6811
19690TIP3   OH280560   2.093   2.519  15.506  0.8687 -0.3805  0.1048
19690TIP3    H180561   2.168   2.530  15.448  0.2378 -0.2889 -0.7124
19690TIP3    H280562   2.017   2.519  15.447  0.2840 -1.3519  0.8240
19691TIP3   OH280563   1.591   2.442  10.809  0.6965  0.4116  0.1775
19691TIP3    H180564   1.555   2.447  10.720  1.6898 -0.8927 -0.3214
19691TIP3    H280565   1.633   2.356  10.814 -0.9822 -0.3983  2.5414
19692TIP3   OH280566   2.717   2.820   3.410  0.0863 -0.3525 -0.4889
19692TIP3    H180567   2.712   2.904   3.364  1.4154 -0.3701 -0.7187
19692TIP3    H280568   2.738   2.756   3.343  1.0506 -0.5386 -0.0305
19693TIP3   OH280569   5.701   0.590  12.738  0.0068  0.4022  0.4026
19693TIP3    H180570   5.717   0.593  12.832 -0.5264  1.5425  0.4792
19693TIP3    H280571   5.781   0.626  12.699 -0.1166  0.7543  0.4721
19694TIP3   OH280572   6.290   5.663   3.153  0.7941 -0.1564 -0.1827
19694TIP3    H180573   6.365   5.718   3.132  1.0002 -0.9973 -1.7614
19694TIP3    H280574   6.274   5.612   3.074 -0.1662 -1.4770  0.8101
19695TIP3   OH280575   1.050   0.653  13.148 -0.5074  0.1916  0.2777
19695TIP3    H180576   1.025   0.622  13.061  0.7750 -0.0860 -0.0238
19695TIP3    H280577   0.984   0.617  13.207 -0.6255 -0.7787 -0.4229
19696TIP3   OH280578   2.808   3.999  16.245 -0.3009  0.5784 -0.3147
19696TIP3    H180579   2.725   4.009  16.292  0.3597  0.6549  0.8838
19696TIP3    H280580   2.857   3.933  16.295  0.1362  0.1111 -1.3321
19697TIP3   OH280581   5.578   3.936  13.640  0.2794 -0.8865 -0.1309
19697TIP3    H180582   5.651   3.991  13.612  0.3842 -0.4711  0.9332
19697TIP3    H280583   5.596   3.915  13.731  0.0019 -2.3225 -0.3748
19698TIP3   OH280584   3.140   6.453   0.560 -0.4591 -0.1721 -0.3318
19698TIP3    H180585   3.097   6.433   0.477 -1.7804  1.1151  0.0027
19698TIP3    H280586   3.179   6.370   0.587  1.1012 -0.3560 -2.8288
19699TIP3   OH280587   6.638   4.195   3.322 -0.5372 -0.1810 -0.5428
19699TIP3    H180588   6.723   4.178   3.361  0.5424  0.0485 -2.6907
19699TIP3    H280589   6.641   4.287   3.298 -1.8053  0.0940  0.2464
19700TIP3   OH280590   5.572   6.240   5.204  0.1731  0.5487  0.1112
19700TIP3    H180591   5.523   6.183   5.264 -0.2758  0.3545 -0.4379
19700TIP3    H280592   5.664   6.228   5.230  0.5745 -3.2461 -2.2222
19701TIP3   OH280593   0.664   0.908   1.943 -0.1848 -0.5088 -0.1009
19701TIP3    H180594   0.637   0.840   1.880 -3.0402 -1.7146  2.1597
19701TIP3    H280595   0.679   0.860   2.024 -2.0174  1.4505  1.5165
19702TIP3   OH280596   6.523   2.765  14.523  0.1207 -0.0600 -0.0285
19702TIP3    H180597   6.596   2.810  14.565  0.1052  0.3396 -0.4261
19702TIP3    H280598   6.551   2.674  14.518  0.0972 -0.1259  0.9048
19703TIP3   OH280599   2.275   3.734   5.388  0.1960 -0.7044 -0.1656
19703TIP3    H180600   2.339   3.723   5.458  1.0982 -1.3201 -1.0637
19703TIP3    H280601   2.280   3.827   5.365  1.0190 -0.8189 -0.4669
19704TIP3   OH280602   4.147   0.414  13.644 -0.3838  0.1737 -0.8821
19704TIP3    H180603   4.069   0.378  13.601  0.4785 -0.4375 -1.9801
19704TIP3    H280604   4.188   0.469  13.578  0.8438 -0.6008 -0.7866
19705TIP3   OH280605   2.053   1.146   4.248 -0.3856 -0.4877 -0.3760
19705TIP3    H180606   2.075   1.176   4.160  1.6232 -0.2751  0.1306
19705TIP3    H280607   2.117   1.189   4.305 -1.8349 -0.3513  1.2484
19706TIP3   OH280608   2.728   0.659   3.784  0.1548  0.2307 -0.2379
19706TIP3    H180609   2.660   0.706   3.735  1.3449  2.8378  0.3923
19706TIP3    H280610   2.809   0.705   3.762  1.2240 -0.6956  1.5013
19707TIP3   OH280611   1.227   6.489  16.260  0.0723 -0.1114 -0.3436
19707TIP3    H180612   1.209   6.513  16.350 -1.3830  1.4546 -1.0116
19707TIP3    H280613   1.323   6.489  16.254  0.1898  2.0398  0.6453
19708TIP3   OH280614   0.272   0.631   0.818 -0.3475 -0.0894  0.1868
19708TIP3    H180615   0.363   0.645   0.844 -0.6289  1.7516  0.3364
19708TIP3    H280616   0.261   0.683   0.738 -1.2320 -0.3985  0.0878
19709TIP3   OH280617   6.377   3.157   4.098  0.0145 -0.1002 -0.2741
19709TIP3    H180618   6.456   3.131   4.146  0.5010  1.6572 -0.0357
19709TIP3    H280619   6.378   3.104   4.019  1.4244 -0.1472 -0.2568
19710TIP3   OH280620   6.668   2.893   2.944 -0.0630  0.7278  0.3296
19710TIP3    H180621   6.616   2.941   2.880  0.0208  0.2006 -0.1347
19710TIP3    H280622   6.604   2.855   3.004 -0.0878  3.2099  2.0411
19711TIP3   OH280623   6.249   6.081   0.147 -0.3677 -0.0983 -0.2142
19711TIP3    H180624   6.215   6.043   0.228 -0.0873  0.3436  0.1177
19711TIP3    H280625   6.171   6.097   0.093 -0.9367  2.4844  1.2007
19712TIP3   OH280626   3.246   0.250  16.552  0.1987 -0.1896  0.0086
19712TIP3    H180627   3.213   0.339  16.562  2.8953  0.8807  0.2583
19712TIP3    H280628   3.208   0.219  16.470  0.3740  1.7729 -0.8558
19713TIP3   OH280629   4.664   6.420  15.777  0.7080 -0.0677 -0.0744
19713TIP3    H180630   4.627   6.390  15.860  0.5873 -1.0646 -0.4752
19713TIP3    H280631   4.746   6.463  15.801  0.7375 -0.4633  0.5416
19714TIP3   OH280632   6.256   3.815   6.615 -0.0039  0.8319 -0.4932
19714TIP3    H180633   6.283   3.733   6.655 -1.9222  0.7881  0.8731
19714TIP3    H280634   6.199   3.790   6.543 -0.1902  0.9416 -0.3868
19715TIP3   OH280635   4.113   3.162  16.637 -0.6008  0.3257  0.2951
19715TIP3    H180636   4.137   3.160  16.545  2.1679 -0.9050  0.9469
19715TIP3    H280637   4.117   3.254  16.661 -1.7203  0.7062 -0.8321
19716TIP3   OH280638   1.427   4.525   3.158  0.7185 -0.3636  0.1905
19716TIP3    H180639   1.391   4.529   3.070 -1.2428 -0.7193  0.9287
19716TIP3    H280640   1.409   4.435   3.187 -0.6130  0.3379  1.6935
19717TIP3   OH280641   0.368   1.329   0.503  0.4161  0.6829 -0.4349
19717TIP3    H180642   0.405   1.379   0.576  0.5877 -1.7569  1.3102
19717TIP3    H280643   0.437   1.267   0.479 -0.3941  0.0665 -1.2454
19718TIP3   OH280644   1.140   5.132  12.335  0.1114 -0.3159 -0.0208
19718TIP3    H180645   1.132   5.175  12.421 -4.2632  0.4794 -0.5822
19718TIP3    H280646   1.140   5.039  12.355 -1.1842 -0.1502  0.8791
19719TIP3   OH280647   4.681   2.095  13.196 -0.0204  0.0984 -0.6162
19719TIP3    H180648   4.760   2.057  13.234 -0.5624  0.2850  0.7776
19719TIP3    H280649   4.679   2.063  13.106  0.1301 -2.2940  0.1589
19720TIP3   OH280650   1.013   0.217  13.229 -0.1678  0.5852  0.1638
19720TIP3    H180651   1.031   0.295  13.281 -0.2551 -0.6075  2.0968
19720TIP3    H280652   0.973   0.156  13.291  0.9895 -1.4364 -0.9802
19721TIP3   OH280653   0.325   5.322  13.447  0.1897 -0.0032 -0.7585
19721TIP3    H180654   0.371   5.297  13.367 -0.7173 -0.9538 -1.0163
19721TIP3    H280655   0.250   5.262  13.451  2.0387 -2.4464  2.6143
19722TIP3   OH280656   4.712   1.072  15.492 -0.3063  0.4735 -0.2444
19722TIP3    H180657   4.658   1.150  15.498  2.7195  2.9479 -1.9247
19722TIP3    H280658   4.708   1.047  15.399 -0.2059 -0.5774  0.0187
19723TIP3   OH280659   5.705   2.882   0.350 -0.2047 -0.3654 -0.5660
19723TIP3    H180660   5.675   2.837   0.429 -1.7876  1.6652  0.0744
19723TIP3    H280661   5.799   2.896   0.364 -0.5215  0.2393  1.1057
19724TIP3   OH280662   3.172   2.888   4.238  0.7377  0.0169  0.1158
19724TIP3    H180663   3.105   2.954   4.225  1.4205  0.3509 -2.2494
19724TIP3    H280664   3.254   2.937   4.245  0.9700 -0.4675  0.8970
19725TIP3   OH280665   6.315   5.730  15.196 -0.3907  0.1468 -0.5480
19725TIP3    H180666   6.369   5.677  15.255 -0.6356  1.7892  1.2320
19725TIP3    H280667   6.226   5.696  15.207 -0.2311 -0.4992 -1.1264
19726TIP3   OH280668   0.818   6.414  12.143 -0.1604 -0.2159  0.3013
19726TIP3    H180669   0.850   6.499  12.113  1.0293 -0.4814  0.7678
19726TIP3    H280670   0.817   6.360  12.064 -0.3757  0.0618  0.1098
19727TIP3   OH280671   0.961   3.397   3.296  0.4807 -0.3703  0.4220
19727TIP3    H180672   1.018   3.365   3.366  0.6763 -1.6014 -0.2609
19727TIP3    H280673   1.010   3.469   3.257  0.1630  0.6420  1.8243
19728TIP3   OH280674   5.912   1.427   5.387 -0.0765  0.6887  0.1592
19728TIP3    H180675   6.007   1.423   5.374  0.0711  0.9302  1.0952
19728TIP3    H280676   5.876   1.371   5.319  0.6790  1.3501 -0.8185
19729TIP3   OH280677   0.811   2.780   0.798  0.5666  0.0234 -0.5182
19729TIP3    H180678   0.804   2.856   0.740 -1.6135 -0.6820 -1.2757
19729TIP3    H280679   0.836   2.817   0.883 -0.5640  1.6244 -0.8306
19730TIP3   OH280680   1.930   6.747   3.348 -0.6840  0.2053  0.6659
19730TIP3    H180681   1.876   6.704   3.414 -0.9254 -2.5638 -1.1392
19730TIP3    H280682   2.016   6.705   3.355 -1.2534 -1.6812 -1.9440
19731TIP3   OH280683   2.820   3.305  16.470 -0.3666  0.1214 -0.3959
19731TIP3    H180684   2.779   3.307  16.383  0.7072 -2.1784 -1.0341
19731TIP3    H280685   2.906   3.266  16.455  0.4619  1.0875  1.5119
19732TIP3   OH280686   0.620   4.744  11.013  0.0904 -0.5269 -0.5234
19732TIP3    H180687   0.609   4.813  11.079  1.4750 -0.6504 -0.1373
19732TIP3    H280688   0.703   4.703  11.034  0.9749 -0.0724 -2.7942
19733TIP3   OH280689   3.103   4.729   5.669  0.1326  0.1019 -0.4092
19733TIP3    H180690   3.141   4.661   5.724 -0.6481 -1.6840 -1.9736
19733TIP3    H280691   3.047   4.779   5.729  1.6631  0.1843  1.0291
19734TIP3   OH280692   2.609   1.142  11.687  1.1418 -0.0788 -0.1788
19734TIP3    H180693   2.571   1.199  11.619  0.3322  0.6613  0.8400
19734TIP3    H280694   2.560   1.165  11.767  1.0340 -1.9849  0.3452
19735TIP3   OH280695   0.734   5.008   0.279 -0.0338  0.1757 -0.6781
19735TIP3    H180696   0.807   5.066   0.302 -0.9057  0.5549  1.3598
19735TIP3    H280697   0.714   5.031   0.188  1.7232  0.7623 -0.9670
19736TIP3   OH280698   2.007   6.600   3.828  0.0311 -0.4914  0.0887
19736TIP3    H180699   1.978   6.631   3.914  0.7314  0.9446 -0.1581
19736TIP3    H280700   2.080   6.541   3.848  1.4830  1.3318  0.4680
19737TIP3   OH280701   1.974   1.469  12.451  0.0049  0.1008 -0.4112
19737TIP3    H180702   1.988   1.561  12.474  0.3927  0.3390 -1.5340
19737TIP3    H280703   1.884   1.451  12.478  0.9760 -0.2788  3.1825
19738TIP3   OH280704   3.375   2.385  13.297  0.1621 -0.1024  0.7425
19738TIP3    H180705   3.286   2.350  13.302  0.2459 -0.1102  2.5394
19738TIP3    H280706   3.384   2.411  13.205 -1.4767 -0.6330  0.3841
19739TIP3   OH280707   0.914   5.400  11.450 -0.5144  0.5902 -0.1818
19739TIP3    H180708   0.861   5.408  11.371  0.3829  0.3761 -0.8277
19739TIP3    H280709   0.943   5.490  11.468  0.0485  0.5091 -0.6532
19740TIP3   OH280710   4.623   2.791   3.905 -0.6717  0.3839 -0.9019
19740TIP3    H180711   4.562   2.803   3.978 -0.6484  1.4981 -1.0412
19740TIP3    H280712   4.569   2.803   3.827 -0.3017  1.3576 -1.0265
19741TIP3   OH280713   2.477   5.168  13.520 -0.0734 -0.1722  0.0455
19741TIP3    H180714   2.501   5.211  13.602 -2.3416 -0.5977  1.0368
19741TIP3    H280715   2.550   5.108  13.502  0.5856  0.0912  1.6460
19742TIP3   OH280716   1.235   2.402  15.390  0.0407  0.1792  0.3128
19742TIP3    H180717   1.161   2.384  15.448 -0.9412  0.1832 -0.8905
19742TIP3    H280718   1.221   2.343  15.315  0.3366  1.3472 -0.6852
19743TIP3   OH280719   2.932   4.721   5.449 -0.4941 -0.4575  0.4540
19743TIP3    H180720   2.849   4.703   5.493 -0.2901  0.8767  1.4617
19743TIP3    H280721   2.989   4.755   5.518 -0.0466  1.4142 -0.7593
19744TIP3   OH280722   6.136   0.911  11.168  0.5433 -0.4501 -0.3589
19744TIP3    H180723   6.112   1.001  11.190  1.7920 -0.3332  0.6299
19744TIP3    H280724   6.198   0.920  11.096  2.6742 -0.2775  1.3641
19745TIP3   OH280725   2.758   5.504   1.049 -0.3509  0.1053  0.2649
19745TIP3    H180726   2.851   5.528   1.054 -0.1589 -0.6738  0.5609
19745TIP3    H280727   2.714   5.586   1.028  0.6273  0.0401 -2.4624
19746TIP3   OH280728   0.650   0.089  13.189 -0.0621  0.5370  0.1375
19746TIP3    H180729   0.716   0.050  13.246  0.2378 -1.9008 -1.7489
19746TIP3    H280730   0.576   0.106  13.248  0.0095 -2.3931  1.2748
19747TIP3   OH280731   0.746   3.012  13.932  0.2759 -0.0889 -0.6877
19747TIP3    H180732   0.668   3.008  13.988 -0.1192  0.0526 -1.2137
19747TIP3    H280733   0.720   3.071  13.861  1.0789  0.4529 -0.5439
19748TIP3   OH280734   0.146   5.059  11.199  0.0600 -0.3003  0.5866
19748TIP3    H180735   0.180   4.972  11.180 -2.0454 -0.6201 -2.4611
19748TIP3    H280736   0.078   5.044  11.265  0.8434 -0.6711  1.3329
19749TIP3   OH280737   6.300   5.825   1.063 -0.3707 -0.5313  0.3919
19749TIP3    H180738   6.291   5.783   1.149  0.2007  3.0911  2.4396
19749TIP3    H280739   6.370   5.775   1.019 -0.4766 -2.3226  2.1056
19750TIP3   OH280740   2.669   4.784  14.634 -0.3241 -0.1906 -0.7319
19750TIP3    H180741   2.616   4.769  14.712  1.6709 -0.3131  0.6698
19750TIP3    H280742   2.675   4.698  14.593 -0.2537 -0.4079 -0.2713
19751TIP3   OH280743   2.249   1.420   2.603  0.0147 -0.2851 -0.1635
19751TIP3    H180744   2.298   1.490   2.562 -0.5410 -0.2415 -0.7575
19751TIP3    H280745   2.163   1.421   2.561 -0.0529 -1.2277 -0.0842
19752TIP3   OH280746   1.162   5.526   0.551 -0.0472  0.1767 -0.6287
19752TIP3    H180747   1.153   5.593   0.484 -2.1041 -0.3748 -0.9742
19752TIP3    H280748   1.074   5.513   0.585 -0.1440 -3.5249 -1.7990
19753TIP3   OH280749   0.617   4.499   5.013  0.7227 -0.2355  0.3417
19753TIP3    H180750   0.606   4.553   4.935  1.1725  0.6484  0.8705
19753TIP3    H280751   0.531   4.460   5.027  0.1859  0.8964  0.3301
19754TIP3   OH280752   0.594   0.470  11.299 -0.0305 -0.0109 -0.0688
19754TIP3    H180753   0.557   0.472  11.211 -2.3696 -0.2535  0.8434
19754TIP3    H280754   0.687   0.487  11.286 -0.4635  0.9397 -2.4865
19755TIP3   OH280755   5.838   2.512   0.723  0.2095  0.3465 -0.1838
19755TIP3    H180756   5.816   2.498   0.631  0.2029 -1.8020  0.0867
19755TIP3    H280757   5.901   2.443   0.743 -0.4445  0.2096  1.6245
19756TIP3   OH280758   2.676   1.340  15.600 -0.1742  0.7473 -0.0983
19756TIP3    H180759   2.658   1.433  15.614 -0.4743  0.5885  0.6074
19756TIP3    H280760   2.771   1.331  15.615 -0.0844  0.9973 -0.5139
19757TIP3   OH280761   5.464   2.518   4.355 -0.2032  0.1878  0.2228
19757TIP3    H180762   5.511   2.597   4.327  0.7045 -0.5360 -0.3216
19757TIP3    H280763   5.415   2.546   4.433  0.7600  1.0711  0.5323
19758TIP3   OH280764   4.622   6.405  14.821 -0.2682  0.2672  0.2501
19758TIP3    H180765   4.662   6.317  14.817 -0.2350  0.3193 -0.8738
19758TIP3    H280766   4.547   6.400  14.762  1.4621  1.8309 -2.2638
19759TIP3   OH280767   2.273   4.926   5.847 -0.1367 -0.1797  0.5215
19759TIP3    H180768   2.187   4.885   5.839  0.1344 -0.4195 -3.0393
19759TIP3    H280769   2.325   4.864   5.897 -1.2505 -1.4692  0.1499
19760TIP3   OH280770   4.350   5.584   5.028  0.0304  0.0128 -0.0964
19760TIP3    H180771   4.329   5.589   4.935 -0.6285 -1.6646 -0.0808
19760TIP3    H280772   4.395   5.500   5.037  0.2429  0.2408  1.0745
19761TIP3   OH280773   0.516   1.157   1.018 -0.0480 -0.2301  0.3558
19761TIP3    H180774   0.499   1.249   1.035 -1.1742 -0.0628 -1.3070
19761TIP3    H280775   0.549   1.155   0.928 -0.3941 -1.4641  0.2336
19762TIP3   OH280776   6.781   4.435   2.145  0.4441 -0.2866 -0.0502
19762TIP3    H180777   6.758   4.387   2.065 -1.7555  0.1087  0.2663
19762TIP3    H280778   6.723   4.511   2.144 -0.3940 -0.7983  2.3733
19763TIP3   OH280779   3.720   6.676   3.033  0.5631 -1.0920 -0.0153
19763TIP3    H180780   3.676   6.660   2.950  0.5986 -1.1945 -0.0143
19763TIP3    H280781   3.699   6.600   3.087  0.2541 -0.8668  0.1907
19764TIP3   OH280782   6.091   6.687  13.351  0.4583  0.1245  0.5200
19764TIP3    H180783   6.039   6.619  13.394 -1.6663  2.1860  1.4367
19764TIP3    H280784   6.153   6.715  13.418 -0.2095  0.6126  0.9576
19765TIP3   OH280785   2.690   4.731   1.888 -0.2939  0.1830  0.2095
19765TIP3    H180786   2.732   4.797   1.944  1.7222  0.8499 -1.9210
19765TIP3    H280787   2.750   4.656   1.891 -0.1587  0.2266 -0.9987
19766TIP3   OH280788   6.513   2.074  14.754  0.3421  0.0850 -0.0389
19766TIP3    H180789   6.541   2.052  14.843 -0.2261  1.5769  0.5310
19766TIP3    H280790   6.593   2.105  14.711  0.2705  1.1590  0.5594
19767TIP3   OH280791   2.816   4.466  11.102 -0.0510 -0.0804  0.1050
19767TIP3    H180792   2.884   4.464  11.035 -0.5380 -0.4452 -0.3924
19767TIP3    H280793   2.838   4.395  11.162 -0.7536 -1.1270 -0.8360
19768TIP3   OH280794   6.531   4.231  16.973  0.2390  0.5560 -0.6973
19768TIP3    H180795   6.562   4.156  16.923  0.0297 -1.3466  1.8123
19768TIP3    H280796   6.583   4.230  17.054 -0.2772  2.6995 -0.2714
19769TIP3   OH280797   3.071   0.670  16.824 -0.1123  0.1237 -0.1643
19769TIP3    H180798   3.062   0.577  16.843 -1.2334 -0.0650 -1.4592
19769TIP3    H280799   2.985   0.707  16.847  0.6322  1.0357  1.2854
19770TIP3   OH280800   3.959   1.382   0.572 -0.1580 -0.0307  0.3405
19770TIP3    H180801   4.040   1.360   0.618  1.7565  1.6301 -1.9571
19770TIP3    H280802   3.930   1.299   0.533  1.6296 -0.3448 -0.4437
19771TIP3   OH280803   5.472   2.984  13.116  0.1687  0.0342 -0.3889
19771TIP3    H180804   5.471   2.968  13.022  1.0471 -0.8649 -0.2635
19771TIP3    H280805   5.551   2.940  13.147 -0.0751  0.3664  0.7648
19772TIP3   OH280806   4.987   6.144   2.087 -0.3786 -0.1800  0.8514
19772TIP3    H180807   5.005   6.132   1.994 -2.1439 -1.7152  0.6495
19772TIP3    H280808   4.947   6.231   2.093 -0.8820 -0.3532  0.0715
19773TIP3   OH280809   2.808   2.140   5.981  0.7027  0.0788 -0.4014
19773TIP3    H180810   2.859   2.087   6.042  0.0698  0.6456  0.6456
19773TIP3    H280811   2.836   2.230   5.997  0.1664  0.2811 -0.5846
19774TIP3   OH280812   3.592   4.283  14.996  0.7059  0.3235  0.0374
19774TIP3    H180813   3.582   4.207  15.054  0.6084  0.0461 -0.3416
19774TIP3    H280814   3.535   4.350  15.035  0.4328  0.0505  0.1155
19775TIP3   OH280815   3.713   4.969  13.362 -1.0419  0.1062 -0.0374
19775TIP3    H180816   3.779   4.984  13.295 -1.3203 -0.4216 -0.4431
19775TIP3    H280817   3.712   5.049  13.414 -0.4430  0.3105 -0.3343
19776TIP3   OH280818   5.460   1.887   4.805  1.2362 -0.7627  0.8381
19776TIP3    H180819   5.526   1.922   4.866  0.9739  0.6359  0.3522
19776TIP3    H280820   5.511   1.849   4.734  1.6446  2.1494 -0.5929
19777TIP3   OH280821   0.867   0.261  15.214 -0.4602 -0.2099  0.1857
19777TIP3    H180822   0.919   0.341  15.230 -0.8998 -0.3954  3.0136
19777TIP3    H280823   0.827   0.241  15.298 -2.8265 -1.7507 -1.1926
19778TIP3   OH280824   6.793   4.535   0.917  0.2913 -0.9630 -0.4943
19778TIP3    H180825   6.883   4.527   0.886  0.5072 -1.7702  0.2920
19778TIP3    H280826   6.776   4.630   0.916  0.8833 -0.8535 -1.3463
19779TIP3   OH280827   2.638   3.548  14.040  0.0772  0.1224 -0.0321
19779TIP3    H180828   2.649   3.635  14.001 -1.6321  0.4140  0.0583
19779TIP3    H280829   2.718   3.501  14.016  1.5130  2.0015  0.7420
19780TIP3   OH280830   6.131   4.478   0.756  0.4588 -0.1925 -0.4534
19780TIP3    H180831   6.069   4.412   0.723 -2.4428  0.6839  2.6446
19780TIP3    H280832   6.125   4.550   0.693 -3.9769  0.9712  0.9578
19781TIP3   OH280833   0.717   5.397  11.286 -0.1255 -0.0810 -0.1480
19781TIP3    H180834   0.656   5.460  11.324 -0.2086  0.3824 -1.0184
19781TIP3    H280835   0.689   5.388  11.195  1.5354  0.7050 -0.7722
19782TIP3   OH280836   3.044   3.137   3.861  0.1120 -0.0712 -0.3906
19782TIP3    H180837   3.068   3.221   3.823  1.2472 -0.5698 -0.8041
19782TIP3    H280838   3.057   3.149   3.955  1.5190 -0.1736 -0.5639
19783TIP3   OH280839   6.469   0.994   2.088  0.0732 -0.1680 -0.0086
19783TIP3    H180840   6.560   0.973   2.107 -0.1526 -0.5512  0.6901
19783TIP3    H280841   6.421   0.915   2.110 -0.3169 -0.3466 -1.4054
19784TIP3   OH280842   4.461   6.228   6.465 -0.0695  0.2789 -0.6587
19784TIP3    H180843   4.466   6.174   6.543  1.3196  1.1308 -0.1191
19784TIP3    H280844   4.472   6.167   6.392  0.5296 -0.2892 -0.0992
19785TIP3   OH280845   0.114   0.564   4.921  0.0971 -0.3632 -0.2255
19785TIP3    H180846   0.147   0.654   4.932 -2.7686  0.8736 -0.8140
19785TIP3    H280847   0.152   0.535   4.838  2.0532 -0.2496  0.5652
19786TIP3   OH280848   5.986   5.597   3.477  0.3547  0.0545 -0.0970
19786TIP3    H180849   5.956   5.540   3.406 -1.7446  1.0042 -0.0452
19786TIP3    H280850   6.075   5.569   3.494  0.0234 -1.9489 -1.3412
19787TIP3   OH280851   3.266   1.035  10.798 -0.3272  0.0810  0.2600
19787TIP3    H180852   3.190   0.984  10.772 -0.9654  0.9192  0.4320
19787TIP3    H280853   3.295   1.079  10.718 -0.2893  0.0977  0.2828
19788TIP3   OH280854   6.325   2.475   3.630  0.4296 -0.3756 -0.1254
19788TIP3    H180855   6.300   2.470   3.722  0.8702 -2.3842 -0.0639
19788TIP3    H280856   6.247   2.447   3.582  0.8757 -1.5503 -0.2092
19789TIP3   OH280857   0.545   5.132  13.752 -0.6700 -0.7277  0.3869
19789TIP3    H180858   0.627   5.097  13.786  0.1684  0.8013  0.0601
19789TIP3    H280859   0.551   5.121  13.657 -1.4174 -1.7507  0.4454
19790TIP3   OH280860   4.924   2.600  16.646  0.1498  0.3754 -0.2214
19790TIP3    H180861   4.978   2.650  16.706  0.9474  0.1327 -0.7207
19790TIP3    H280862   4.970   2.605  16.562 -1.2812  1.2804 -0.9919
19791TIP3   OH280863   2.409   3.323  12.014  0.9717 -0.2442  0.1215
19791TIP3    H180864   2.377   3.318  12.104 -1.3719  0.7165 -0.5613
19791TIP3    H280865   2.490   3.273  12.014 -0.0145 -2.0262  2.2975
19792TIP3   OH280866   6.332   3.097  13.083  0.1713  0.4850 -0.1792
19792TIP3    H180867   6.354   3.128  13.171 -0.4817 -0.5045  0.3526
19792TIP3    H280868   6.243   3.063  13.091  0.6443 -1.0151 -0.8341
19793TIP3   OH280869   0.683   4.329  14.324  0.4922  0.2208 -0.4769
19793TIP3    H180870   0.653   4.304  14.411 -0.1032  0.9783 -0.4490
19793TIP3    H280871   0.775   4.354  14.337  0.4675  0.1335 -0.1067
19794TIP3   OH280872   5.993   0.586  13.325 -0.0836  0.5256 -0.1473
19794TIP3    H180873   5.989   0.669  13.372 -1.4813  1.0693 -1.1452
19794TIP3    H280874   6.037   0.608  13.242 -0.2797  0.2234 -0.3318
19795TIP3   OH280875   2.345   5.594   3.873 -0.9785  0.5251  0.1134
19795TIP3    H180876   2.295   5.602   3.953  1.4964  0.7669  1.7434
19795TIP3    H280877   2.314   5.666   3.818 -3.8528 -0.6024  0.0854
19796TIP3   OH280878   4.880   1.670   5.495 -0.1236  0.0613 -0.0582
19796TIP3    H180879   4.884   1.743   5.558  0.5532 -1.2446  1.4902
19796TIP3    H280880   4.890   1.712   5.409  1.3271  1.7064  0.8419
19797TIP3   OH280881   5.513   2.861   2.443  0.1242 -0.2911  0.6812
19797TIP3    H180882   5.609   2.860   2.439  0.1013 -0.7628  0.1277
19797TIP3    H280883   5.489   2.771   2.466 -0.1872 -0.1428  0.9502
19798TIP3   OH280884   3.818   4.169   2.627  0.4957  0.0032 -0.6747
19798TIP3    H180885   3.905   4.207   2.641 -0.2969  1.2404  1.2810
19798TIP3    H280886   3.776   4.230   2.566  0.0189  1.0776  0.6794
19799TIP3   OH280887   0.028   1.289  11.145  0.5815  0.0643 -0.6063
19799TIP3    H180888   0.086   1.365  11.136  0.3467  0.1278 -1.7405
19799TIP3    H280889   0.086   1.217  11.170  0.8848  0.4954 -0.0441
19800TIP3   OH280890   4.413   6.240   3.408  0.4007 -0.2200 -0.1131
19800TIP3    H180891   4.422   6.317   3.353 -1.4253  0.8379  0.9703
19800TIP3    H280892   4.501   6.204   3.414  1.2279  1.5785 -0.9134
19801TIP3   OH280893   0.606   3.667   0.569 -0.1724 -0.5119  0.5371
19801TIP3    H180894   0.672   3.703   0.509  0.4236 -0.6511  1.0980
19801TIP3    H280895   0.572   3.744   0.616  1.6411 -0.6942  2.2774
19802TIP3   OH280896   4.761   6.416  14.573 -0.4783 -0.0708  0.0929
19802TIP3    H180897   4.802   6.369  14.501 -0.3258  0.4681 -0.1739
19802TIP3    H280898   4.702   6.351  14.613 -1.6571  0.0117 -1.4019
19803TIP3   OH280899   2.881   6.858  14.421  0.1422  0.0683 -0.5686
19803TIP3    H180900   2.795   6.900  14.426  0.3729  0.4651  0.5842
19803TIP3    H280901   2.863   6.765  14.425 -0.2812  0.1152 -1.2983
19804TIP3   OH280902   6.512   1.909   1.824  0.1328 -0.0280  0.1207
19804TIP3    H180903   6.569   1.985   1.817  0.5065 -0.1633  1.3225
19804TIP3    H280904   6.504   1.876   1.735  1.1527  0.5555 -0.2049
19805TIP3   OH280905   0.523   0.401   4.977  0.1855 -0.5775 -0.1255
19805TIP3    H180906   0.464   0.411   4.902 -0.7713 -0.1456  0.6637
19805TIP3    H280907   0.465   0.394   5.052  1.1453  0.1456  0.7113
19806TIP3   OH280908   0.260   2.316  13.628 -0.4810 -0.0251  0.1997
19806TIP3    H180909   0.178   2.362  13.639 -0.5722 -0.0359 -0.4151
19806TIP3    H280910   0.265   2.295  13.535  0.5624  0.6284  0.0881
19807TIP3   OH280911   2.068   2.922   5.588 -0.0143  0.2716 -0.3615
19807TIP3    H180912   2.012   2.956   5.518 -0.4276  1.8705  0.7105
19807TIP3    H280913   2.053   2.827   5.586 -1.9023  0.5426 -0.8483
19808TIP3   OH280914   4.231   1.854   0.995  0.2699 -0.6923 -0.3348
19808TIP3    H180915   4.146   1.834   0.955 -0.6853 -0.4230  1.4557
19808TIP3    H280916   4.242   1.948   0.979  0.5620 -0.8455 -1.1117
19809TIP3   OH280917   1.779   6.387   5.467  1.0073 -0.3007 -0.1235
19809TIP3    H180918   1.837   6.330   5.416  1.1334  0.2165 -0.5667
19809TIP3    H280919   1.826   6.471   5.472  0.9797 -0.3246  0.8095
19810TIP3   OH280920   3.546   1.070   1.663  0.3999  0.1674 -0.0392
19810TIP3    H180921   3.635   1.038   1.676  0.9547  1.4971 -0.4031
19810TIP3    H280922   3.513   1.020   1.589  1.3429  0.5882 -0.7658
19811TIP3   OH280923   1.321   5.563   3.285 -0.1621 -0.3886  0.0327
19811TIP3    H180924   1.256   5.633   3.280  0.2286  0.0384  0.8578
19811TIP3    H280925   1.285   5.501   3.349  0.5768  0.2246  1.0751
19812TIP3   OH280926   6.836   4.855  12.559 -0.1566 -0.7404 -0.4929
19812TIP3    H180927   6.800   4.895  12.638  0.3094  0.1296 -0.7139
19812TIP3    H280928   6.881   4.927  12.513  0.1276 -1.3689 -1.2254
19813TIP3   OH280929   5.464   0.920  14.637  0.2100  0.0475 -0.2042
19813TIP3    H180930   5.518   0.996  14.618 -1.8498  1.4648 -0.7932
19813TIP3    H280931   5.378   0.942  14.600 -1.2190 -1.3932  1.9998
19814TIP3   OH280932   3.372   4.357  13.907 -0.1823 -0.3237  0.0637
19814TIP3    H180933   3.362   4.435  13.852  0.3281  0.5931  1.2234
19814TIP3    H280934   3.359   4.389  13.997  2.2791 -1.0716  0.7731
19815TIP3   OH280935   5.068   4.491   2.747  0.0999  0.2851  0.1492
19815TIP3    H180936   4.988   4.448   2.778  0.3204  0.9171  1.6652
19815TIP3    H280937   5.045   4.521   2.658 -0.7109 -1.1426 -0.1657
19816TIP3   OH280938   1.040   2.087   6.055 -0.0720 -0.1751  0.1514
19816TIP3    H180939   1.100   2.035   6.109  0.6095 -0.3615 -0.7627
19816TIP3    H280940   1.007   2.025   5.990  1.6846  0.7384 -1.7330
19817TIP3   OH280941   1.085   3.918  12.995  0.0148 -1.4154  0.0109
19817TIP3    H180942   1.133   3.994  13.027 -0.4491 -0.6530 -1.0628
19817TIP3    H280943   1.151   3.849  12.989  1.2479 -0.1279 -2.3876
19818TIP3   OH280944   2.429   5.833   5.145  0.1124  0.1162  0.0948
19818TIP3    H180945   2.407   5.772   5.074  0.8647 -0.3113  0.2236
19818TIP3    H280946   2.428   5.920   5.103  1.0153 -0.1783 -0.5469
19819TIP3   OH280947   2.200   5.818  16.422 -0.7178 -0.1383 -0.1532
19819TIP3    H180948   2.261   5.855  16.358  0.3546  1.6024  1.7548
19819TIP3    H280949   2.117   5.862  16.404 -1.4380 -2.2011 -2.4814
19820TIP3   OH280950   1.590   2.425  11.093  0.1127 -0.2729  0.2956
19820TIP3    H180951   1.667   2.442  11.148  0.4922 -1.2925  0.1121
19820TIP3    H280952   1.566   2.334  11.114 -1.6298  0.3155  1.0441
19821TIP3   OH280953   6.049   1.619   3.992 -0.2372  0.2114 -0.6015
19821TIP3    H180954   6.098   1.699   4.012  2.2731 -1.2142 -0.6056
19821TIP3    H280955   5.992   1.607   4.068  1.3829  0.5767  0.7393
19822TIP3   OH280956   6.204   2.552  16.716 -0.3524  0.1745  0.1261
19822TIP3    H180957   6.188   2.476  16.660 -1.3803  1.9581 -2.1583
19822TIP3    H280958   6.168   2.527  16.801 -1.1700 -1.6855 -0.7104
19823TIP3   OH280959   3.332   5.215   3.304  0.0529  0.1749  0.5557
19823TIP3    H180960   3.367   5.255   3.383 -0.0684  0.9700  0.2151
19823TIP3    H280961   3.243   5.190   3.327 -0.2341  1.0661  0.4676
19824TIP3   OH280962   1.615   2.909  11.506  0.8777  0.1365 -0.0373
19824TIP3    H180963   1.616   2.990  11.557 -1.3784  0.6122 -0.6269
19824TIP3    H280964   1.526   2.905  11.471  1.3779 -1.8897 -1.1822
19825TIP3   OH280965   6.277   4.609   2.228  0.3260 -0.0455 -0.1053
19825TIP3    H180966   6.272   4.691   2.276  1.0439 -0.1689  0.1935
19825TIP3    H280967   6.370   4.596   2.211  0.1303 -0.2215 -1.1640
19826TIP3   OH280968   2.831   2.522   2.422 -0.6005  0.2559  0.6673
19826TIP3    H180969   2.867   2.483   2.342 -0.8151  0.7904  0.3058
19826TIP3    H280970   2.821   2.448   2.482  2.3384  0.2515  1.3095
19827TIP3   OH280971   4.163   0.847  17.030 -0.8128  0.0248 -0.3271
19827TIP3    H180972   4.222   0.888  16.967  1.4076 -1.9350  0.3212
19827TIP3    H280973   4.120   0.920  17.074  1.6357  1.6277 -0.3996
19828TIP3   OH280974   0.549   6.839   6.541 -0.3174 -0.2407  0.2523
19828TIP3    H180975   0.473   6.784   6.526 -0.2891  0.1132 -1.3788
19828TIP3    H280976   0.622   6.778   6.552 -0.3145 -0.5823 -1.3673
19829TIP3   OH280977   0.260   0.529  13.286 -0.2153 -0.4490  0.0065
19829TIP3    H180978   0.291   0.439  13.277 -2.7685 -1.2994 -1.4962
19829TIP3    H280979   0.202   0.527  13.362 -0.5765 -0.1754 -0.2567
19830TIP3   OH280980   2.460   2.106   2.206  0.0666 -0.0472  0.0863
19830TIP3    H180981   2.420   2.031   2.163  0.2395  0.1404 -0.4042
19830TIP3    H280982   2.461   2.174   2.139 -0.2246  0.4412  0.5716
19831TIP3   OH280983   5.528   6.168  14.383 -0.4068  0.1729  0.1854
19831TIP3    H180984   5.558   6.239  14.326 -1.3749  1.4200  1.1523
19831TIP3    H280985   5.512   6.211  14.467 -2.6175 -0.8810  0.3560
19832TIP3   OH280986   0.106   0.784   5.968  0.2626  0.3312  0.8656
19832TIP3    H180987   0.162   0.849   6.010  1.1600  0.0825  0.0869
19832TIP3    H280988   0.051   0.834   5.908  1.9070  0.2780 -0.7683
19833TIP3   OH280989   3.830   5.457  13.194  0.5320 -0.1119 -0.4901
19833TIP3    H180990   3.896   5.465  13.263  1.2131  0.5234 -1.1919
19833TIP3    H280991   3.819   5.545  13.160  0.0426 -0.3753 -1.0460
19834TIP3   OH280992   5.891   3.908   1.741 -0.2315  0.4627  0.4231
19834TIP3    H180993   5.936   3.857   1.809 -0.3644 -0.9054 -0.4739
19834TIP3    H280994   5.798   3.897   1.761 -0.3065 -0.7309 -0.4978
19835TIP3   OH280995   6.495   2.532   6.720 -0.4094  0.5111 -0.0810
19835TIP3    H180996   6.500   2.622   6.753  0.1215  0.5464 -0.2431
19835TIP3    H280997   6.583   2.515   6.686 -0.6054  0.0435 -0.3492
19836TIP3   OH280998   0.033   3.417   4.363 -0.4727  0.4076 -0.4027
19836TIP3    H180999   0.034   3.424   4.459  0.6684 -0.5638 -0.3125
19836TIP3    H281000  -0.011   3.334   4.345  0.5015 -0.0790 -0.6323
19837TIP3   OH281001   4.816   4.386   6.503 -0.7708  0.2367  0.5384
19837TIP3    H181002   4.740   4.354   6.552 -0.1300 -1.2685  0.5878
19837TIP3    H281003   4.781   4.404   6.416 -1.2339 -0.2705  0.6100
19838TIP3   OH281004   6.694   0.498   2.972  0.4678 -0.7696  0.2388
19838TIP3    H181005   6.630   0.479   3.040 -0.9834  1.3033 -0.4490
19838TIP3    H281006   6.655   0.463   2.892  0.1038  0.5583 -0.1925
19839TIP3   OH281007   3.819   1.354   4.087 -0.2615  0.2105 -0.3573
19839TIP3    H181008   3.760   1.372   4.014  0.0714 -0.3770 -0.7826
19839TIP3    H281009   3.764   1.310   4.152 -0.6139  0.9531 -0.1511
19840TIP3   OH281010   5.706   2.743   4.425 -0.0607  0.1938 -0.5582
19840TIP3    H181011   5.709   2.698   4.510  1.1010 -0.1364 -0.7539
19840TIP3    H281012   5.793   2.730   4.388 -0.3133  0.9824 -1.4769
19841TIP3   OH281013   5.957   5.215   3.569 -0.1998  0.1342 -0.5246
19841TIP3    H181014   5.935   5.121   3.567 -0.6193  0.2338 -0.8479
19841TIP3    H281015   6.023   5.226   3.501 -1.3886  0.3581 -1.6982
19842TIP3   OH281016   4.610   5.365   4.334  0.2789 -0.1981  0.7070
19842TIP3    H181017   4.651   5.358   4.248  1.7221 -1.5775  1.4489
19842TIP3    H281018   4.535   5.423   4.320  0.8175  0.1007 -1.3319
19843TIP3   OH281019   2.378   6.205   0.861  0.1205 -0.0219 -0.3300
19843TIP3    H181020   2.317   6.176   0.794  0.5487 -0.2266 -0.6315
19843TIP3    H281021   2.419   6.284   0.825  0.9038 -0.5575 -0.6369
19844TIP3   OH281022   5.786   6.747  16.906  0.0754  0.2989  0.5849
19844TIP3    H181023   5.742   6.769  16.988 -2.3049 -0.2140 -0.4939
19844TIP3    H281024   5.750   6.808  16.842  3.6578  2.3648  0.2400
19845TIP3   OH281025   5.239   4.558  11.080 -0.2424  1.0006  0.7399
19845TIP3    H181026   5.168   4.500  11.108 -0.5677  1.0726  0.0805
19845TIP3    H281027   5.243   4.548  10.985  0.8694  0.7376  0.7993
19846TIP3   OH281028   0.970   2.781   4.046  0.0988  0.3073  0.1486
19846TIP3    H181029   0.959   2.825   3.961  0.4746  0.3469  0.1197
19846TIP3    H281030   0.989   2.853   4.107 -1.3251  0.4168  0.4934
19847TIP3   OH281031   0.374   0.445  15.207 -0.0087  0.3054 -0.0590
19847TIP3    H181032   0.378   0.356  15.241 -4.7101 -0.5572 -0.9864
19847TIP3    H281033   0.379   0.501  15.285 -0.0240 -0.9816  0.8897
19848TIP3   OH281034   3.852   1.967   4.520  0.1747  0.5890  0.1048
19848TIP3    H181035   3.883   1.885   4.559  0.5865  1.2974  1.3476
19848TIP3    H281036   3.760   1.952   4.500 -0.0997  0.2257  1.5365
19849TIP3   OH281037   0.472   3.901  11.310  0.6079  0.0108  0.7553
19849TIP3    H181038   0.446   3.992  11.320  0.9631 -0.0569  2.7056
19849TIP3    H281039   0.390   3.852  11.320  0.6389  0.0615  1.3179
19850TIP3   OH281040   5.981   5.085   1.020 -0.0098 -0.1892  0.1319
19850TIP3    H181041   5.998   4.991   1.032  0.4302 -0.2235 -0.6541
19850TIP3    H281042   6.044   5.129   1.078  0.6418 -0.3711 -0.4180
19851TIP3   OH281043   0.005   5.717   4.253 -0.2743  0.1729 -0.0591
19851TIP3    H181044   0.011   5.812   4.247 -0.9698  0.1525 -1.4512
19851TIP3    H281045   0.092   5.688   4.279 -0.2061  1.2162  0.9272
19852TIP3   OH281046   1.498   0.200   2.011 -0.0394  0.2467 -0.3662
19852TIP3    H181047   1.418   0.147   2.009 -0.9030  1.2878  2.0840
19852TIP3    H281048   1.560   0.148   2.062  1.1198 -0.7885 -2.6915
19853TIP3   OH281049   4.007   2.327   2.755 -0.1196 -0.1813  0.3049
19853TIP3    H181050   3.970   2.239   2.758  0.5007 -0.4651 -0.1022
19853TIP3    H281051   3.932   2.385   2.744 -0.6629 -0.5501  1.8467
19854TIP3   OH281052   2.761   6.406   1.337 -0.4699  0.2408  0.1997
19854TIP3    H181053   2.725   6.334   1.390 -0.9639  1.0729  1.0339
19854TIP3    H281054   2.854   6.385   1.329 -0.8446 -1.2402 -0.8246
19855TIP3   OH281055   4.811   6.224  16.414 -0.3788 -0.8194  0.3987
19855TIP3    H181056   4.889   6.233  16.359 -0.6265  1.1689  0.3004
19855TIP3    H281057   4.843   6.188  16.496  0.8324  0.8091  0.6856
19856TIP3   OH281058   4.334   6.006   0.654  0.2514 -0.1554  0.1456
19856TIP3    H181059   4.344   6.026   0.747 -0.0617 -1.2318  0.4307
19856TIP3    H281060   4.288   6.081   0.617  2.7563  1.5667  0.2770
19857TIP3   OH281061   3.967   5.582  10.596  0.2165  0.3964  0.7494
19857TIP3    H181062   3.999   5.667  10.565  1.1681 -0.9690 -2.4447
19857TIP3    H281063   4.042   5.524  10.586 -1.1398 -1.3546  0.1962
19858TIP3   OH281064   3.983   5.957  11.767 -0.2344 -0.3363  0.2597
19858TIP3    H181065   3.955   5.880  11.717 -1.2427 -0.7967  1.4994
19858TIP3    H281066   3.907   5.980  11.820  0.9327 -0.0987  1.8758
19859TIP3   OH281067   5.584   1.560  16.951 -0.2073 -0.1983 -0.4656
19859TIP3    H181068   5.608   1.469  16.969  0.4272  0.2651  1.2466
19859TIP3    H281069   5.598   1.605  17.034  1.2277  1.8269 -1.7040
19860TIP3   OH281070   3.844   6.222   2.336  0.0425  0.1283 -0.4615
19860TIP3    H181071   3.800   6.230   2.420  0.4108  0.7095 -0.3184
19860TIP3    H281072   3.858   6.128   2.324 -2.4725 -0.2422 -1.1484
19861TIP3   OH281073   5.356   1.855  13.953 -0.2100  0.1597 -0.1424
19861TIP3    H181074   5.283   1.855  14.015  0.6820  1.3416  0.9742
19861TIP3    H281075   5.316   1.845  13.867 -1.5919 -0.1799  0.5266
19862TIP3   OH281076   3.149   5.024   4.990  0.2817 -0.2132  0.0460
19862TIP3    H181077   3.158   5.116   4.964 -0.8587 -0.4373 -1.2784
19862TIP3    H281078   3.055   5.011   5.002  0.4040 -1.2657 -0.0208
19863TIP3   OH281079   0.421   1.612  12.204 -0.1204  0.2037  0.2255
19863TIP3    H181080   0.360   1.540  12.215  0.8189 -0.7868 -0.8394
19863TIP3    H281081   0.492   1.577  12.150  0.5965  1.7846  0.0543
19864TIP3   OH281082   5.812   4.131  13.964  0.6316 -0.5084 -0.2675
19864TIP3    H181083   5.886   4.115  14.023  0.3380 -1.0489 -0.0351
19864TIP3    H281084   5.801   4.226  13.964  0.6822 -0.4986  0.4967
19865TIP3   OH281085   5.777   0.723   0.994  0.4946  0.2161  0.4265
19865TIP3    H181086   5.837   0.653   1.017  0.0105 -0.3882 -0.0918
19865TIP3    H281087   5.800   0.745   0.904 -0.2587 -0.2502  0.1091
19866TIP3   OH281088   6.174   3.804   1.769 -0.4998 -0.0235  0.1925
19866TIP3    H181089   6.112   3.770   1.705  0.7604 -1.8064 -0.1576
19866TIP3    H281090   6.182   3.734   1.834  0.2230  0.6757  0.8790
19867TIP3   OH281091   6.427   0.562   4.243  0.3644 -0.2108  0.0694
19867TIP3    H181092   6.423   0.654   4.217 -0.7931 -0.3781 -0.4036
19867TIP3    H281093   6.377   0.559   4.325  0.7206 -0.3621  0.2834
19868TIP3   OH281094   1.246   2.649  11.952  0.3281 -0.4323  0.7359
19868TIP3    H181095   1.247   2.631  12.046  1.6125 -0.1956  0.7906
19868TIP3    H281096   1.310   2.719  11.940  2.1708 -2.2325 -0.6208
19869TIP3   OH281097   2.595   2.512   3.212  0.0988 -0.9550  0.3399
19869TIP3    H181098   2.666   2.566   3.248 -0.7664  0.4197  0.0496
19869TIP3    H281099   2.640   2.451   3.153  1.0804 -0.3750  0.4573
19870TIP3   OH281100   2.974   5.722   3.777 -0.5291  0.1265 -0.1412
19870TIP3    H181101   2.880   5.730   3.758 -0.3727 -0.4629 -1.2011
19870TIP3    H281102   3.008   5.810   3.765 -0.6891  0.0494 -1.2423
19871TIP3   OH281103   0.423   5.381   4.996 -0.1703 -0.2629  0.3569
19871TIP3    H181104   0.476   5.314   4.952  0.4441  1.1919 -1.2298
19871TIP3    H281105   0.352   5.399   4.933  0.5664  1.6712  0.0208
19872TIP3   OH281106   0.598   0.598  14.352  0.0090  0.0232  0.1972
19872TIP3    H181107   0.542   0.657  14.403 -1.5683 -1.8801  0.8286
19872TIP3    H281108   0.568   0.510  14.377  1.1050 -1.0252 -1.9396
19873TIP3   OH281109   4.869   6.395   2.021 -0.0823 -0.1176 -0.4337
19873TIP3    H181110   4.872   6.419   1.929 -0.2404  1.2944 -0.0837
19873TIP3    H281111   4.779   6.364   2.036 -0.1489 -0.0334 -0.6693
19874TIP3   OH281112   4.378   1.039   2.568 -0.3400 -0.2866 -0.0488
19874TIP3    H181113   4.352   1.128   2.545 -0.0174 -0.1091  0.2586
19874TIP3    H281114   4.468   1.048   2.600 -0.8933 -0.4534  1.6637
19875TIP3   OH281115   2.402   3.666  13.692 -0.0494  0.2507 -0.6209
19875TIP3    H181116   2.479   3.614  13.670 -0.3068 -1.2426  1.6392
19875TIP3    H281117   2.382   3.716  13.613  2.9447  0.3535 -1.4157
19876TIP3   OH281118   4.774   5.895  16.020  0.6138  0.3651 -0.3679
19876TIP3    H181119   4.854   5.923  15.977  1.2571 -1.2789 -0.3394
19876TIP3    H281120   4.804   5.835  16.089 -0.5504  0.9540  0.6809
19877TIP3   OH281121   0.214   1.485  16.014 -0.4345  0.1309 -0.0590
19877TIP3    H181122   0.306   1.483  16.041 -0.7187  0.0784  0.9391
19877TIP3    H281123   0.168   1.523  16.089 -1.1696  0.5883 -0.7289
19878TIP3   OH281124   3.234   4.936  11.190 -0.1016 -0.1784  0.5994
19878TIP3    H181125   3.175   4.919  11.264  0.5233  0.1996  1.1998
19878TIP3    H281126   3.219   4.863  11.131  1.0077 -1.7608  2.1523
19879TIP3   OH281127   5.557   6.452  13.699 -0.5742 -0.0492 -0.5358
19879TIP3    H181128   5.476   6.420  13.737 -2.1728  0.9835 -2.8714
19879TIP3    H281129   5.539   6.544  13.677  1.8866  0.8091  0.5886
19880TIP3   OH281130   5.554   1.321   1.412 -0.5979 -0.0573 -0.3227
19880TIP3    H181131   5.581   1.398   1.361  0.5701 -0.3772 -0.2204
19880TIP3    H281132   5.627   1.305   1.472 -1.2849 -0.6220  0.3896
19881TIP3   OH281133   4.640   4.356   3.918 -0.4368  0.0980 -0.1750
19881TIP3    H181134   4.639   4.389   3.828 -0.2501  0.1553 -0.1568
19881TIP3    H281135   4.550   4.330   3.935 -0.4116 -0.2177 -0.4926
19882TIP3   OH281136   0.078   5.161  16.328 -0.1609  0.3572 -0.1058
19882TIP3    H181137   0.063   5.242  16.279  1.3655  0.0181 -1.1917
19882TIP3    H281138   0.114   5.100  16.263 -5.0220 -2.6694 -0.4901
19883TIP3   OH281139   0.402   0.195  15.285 -0.5765  0.7032  0.2631
19883TIP3    H181140   0.453   0.162  15.211 -0.4349  0.0578  0.6369
19883TIP3    H281141   0.325   0.138  15.287 -0.5652  0.7019  0.6213
19884TIP3   OH281142   1.728   0.189  16.919  0.4595 -0.4108 -0.5603
19884TIP3    H181143   1.716   0.245  16.996  2.0911 -0.7209 -0.0531
19884TIP3    H281144   1.755   0.249  16.849  0.4311 -0.3278 -0.4990
19885TIP3   OH281145   0.316   5.609  11.505  0.5076 -0.1653  0.0447
19885TIP3    H181146   0.355   5.593  11.590  2.3764  1.0479 -0.5348
19885TIP3    H281147   0.281   5.523  11.478  0.2343 -0.6418  1.8186
19886TIP3   OH281148   6.219   6.801   0.076 -0.5046  0.0225  0.5614
19886TIP3    H181149   6.298   6.825   0.028 -1.5995  2.8499 -0.0058
19886TIP3    H281150   6.152   6.790   0.009 -1.0520 -0.4714  1.1681
19887TIP3   OH281151   4.270   0.236  15.373  0.0317 -0.1556  0.2567
19887TIP3    H181152   4.320   0.303  15.420  0.8167 -0.4465 -0.1488
19887TIP3    H281153   4.332   0.199  15.311 -0.4888 -1.0226  0.2370
19888TIP3   OH281154   0.354   3.269   5.203  0.9332  0.0212 -0.4325
19888TIP3    H181155   0.432   3.291   5.151  1.4140  1.4223  0.8082
19888TIP3    H281156   0.343   3.343   5.262 -2.8406  1.1137 -2.1922
19889TIP3   OH281157   5.535   5.469   2.825 -0.1978  0.1698 -0.6325
19889TIP3    H181158   5.575   5.536   2.881  1.3793 -1.1938 -0.0683
19889TIP3    H281159   5.467   5.517   2.776 -1.9779  1.3796  2.6721
19890TIP3   OH281160   0.225   3.542   5.152 -0.3866 -0.1902 -0.0576
19890TIP3    H181161   0.309   3.561   5.194 -0.0038  0.0160 -0.8904
19890TIP3    H281162   0.197   3.627   5.117 -0.8724 -0.2886  0.0851
19891TIP3   OH281163   0.650   3.421  12.806  0.0036 -0.4350 -0.6050
19891TIP3    H181164   0.592   3.494  12.826 -2.6157 -2.2463 -1.1084
19891TIP3    H281165   0.670   3.432  12.713  1.9837  1.1275 -0.0618
19892TIP3   OH281166   6.225   3.851   2.951  0.2125  0.0918 -0.1307
19892TIP3    H181167   6.278   3.900   2.888  0.4858 -0.7756 -0.5919
19892TIP3    H281168   6.162   3.803   2.896  0.3684 -0.5692  0.2658
19893TIP3   OH281169   6.441   1.986  15.341  0.4805  0.1668  0.2569
19893TIP3    H181170   6.489   2.010  15.262  1.5193  1.5284  1.2667
19893TIP3    H281171   6.441   1.890  15.341  1.1775  0.1499 -0.9464
19894TIP3   OH281172   6.123   4.728  11.458  0.2109 -0.3928 -0.2857
19894TIP3    H181173   6.173   4.788  11.512 -0.0384  0.0151 -0.5061
19894TIP3    H281174   6.175   4.717  11.378 -0.2725  0.4114 -0.7222
19895TIP3   OH281175   5.736   5.335  15.039  0.3665  0.0740  0.0131
19895TIP3    H181176   5.739   5.243  15.012  1.0214  0.0228  0.2523
19895TIP3    H281177   5.752   5.332  15.133 -1.2298  0.3043  0.3280
19896TIP3   OH281178   4.631   6.253   4.196  0.3200  0.3702 -0.5414
19896TIP3    H181179   4.592   6.251   4.109  1.2383  0.4104 -0.9713
19896TIP3    H281180   4.716   6.295   4.183  0.1328  1.1190  0.5224
19897TIP3   OH281181   3.093   3.224   2.691 -0.1124  0.0119  0.1066
19897TIP3    H181182   3.152   3.263   2.626 -0.9316  0.6355 -0.2811
19897TIP3    H281183   3.023   3.288   2.701  0.0123 -0.0612  1.6414
19898TIP3   OH281184   5.289   6.421  10.902  0.3560  0.4345 -0.4347
19898TIP3    H181185   5.256   6.393  10.817 -0.8348  1.8045 -0.4644
19898TIP3    H281186   5.257   6.354  10.963  2.4427 -1.3692 -1.1698
19899TIP3   OH281187   0.382   3.648   0.060 -0.1816  0.6869  0.5036
19899TIP3    H181188   0.383   3.688   0.147  0.6550  0.5262  0.5778
19899TIP3    H281189   0.318   3.699   0.011 -0.6620  0.7794  1.2085
19900TIP3   OH281190   4.780   0.788  13.389 -0.1461  0.4920 -0.3722
19900TIP3    H181191   4.805   0.746  13.307 -0.1571  0.4996 -0.3795
19900TIP3    H281192   4.699   0.744  13.415 -0.2577  0.6376 -0.4750
19901TIP3   OH281193   4.730   5.270   5.237 -0.4407 -0.1874  0.2160
19901TIP3    H181194   4.649   5.241   5.279 -0.2492  0.2912  0.9304
19901TIP3    H281195   4.799   5.234   5.292 -0.1824  2.6428  1.9154
19902TIP3   OH281196   1.012   4.298   4.752 -0.3191 -0.3580  0.4136
19902TIP3    H181197   0.999   4.203   4.748 -1.0396 -0.2897  0.9852
19902TIP3    H281198   1.033   4.323   4.661 -0.0920 -1.0583  0.2650
19903TIP3   OH281199   3.474   3.258  12.471  0.2251  0.2203 -0.7159
19903TIP3    H181200   3.506   3.247  12.381 -2.1547 -1.7918 -1.4331
19903TIP3    H281201   3.541   3.216  12.525  0.0451 -1.7500 -1.9197
19904TIP3   OH281202   2.594   3.068  14.885 -0.2645  0.3200 -0.9321
19904TIP3    H181203   2.629   3.097  14.969 -0.8640 -1.6107  0.0463
19904TIP3    H281204   2.666   3.020  14.844 -0.6664 -0.6913 -0.4758
19905TIP3   OH281205   1.763   3.512   2.107  0.4790  0.4381 -0.1890
19905TIP3    H181206   1.673   3.517   2.073  0.2058 -0.9369  0.2644
19905TIP3    H281207   1.801   3.438   2.060  0.5315 -0.6432  1.4713
19906TIP3   OH281208   2.098   5.029  12.408 -0.1643 -0.1903  0.2493
19906TIP3    H181209   2.099   5.094  12.478 -2.2285 -0.4250  0.5642
19906TIP3    H281210   2.119   4.946  12.452  1.0132  0.0225  0.1131
19907TIP3   OH281211   0.011   3.636   3.288 -0.0740  0.5921 -0.4887
19907TIP3    H181212   0.073   3.564   3.287 -0.2164  0.4430  0.5180
19907TIP3    H281213   0.042   3.696   3.221  1.5353  0.8370  0.4434
19908TIP3   OH281214   4.171   4.709  12.575  0.2153 -0.2797 -0.6206
19908TIP3    H181215   4.182   4.647  12.503  0.3581  0.8658 -1.6284
19908TIP3    H281216   4.238   4.776  12.559 -0.7945  0.8236 -0.3176
19909TIP3   OH281217   0.580   3.743   1.255  0.0450 -0.0054  1.0044
19909TIP3    H181218   0.515   3.692   1.304 -0.2137 -2.1732 -1.3730
19909TIP3    H281219   0.531   3.778   1.181  1.2670 -0.4939 -0.0688
19910TIP3   OH281220   4.365   6.808   6.233 -0.4675 -0.6220  0.7408
19910TIP3    H181221   4.383   6.850   6.149  1.2571 -2.4350  0.1316
19910TIP3    H281222   4.272   6.826   6.250 -0.6367  0.4696 -1.1309
19911TIP3   OH281223   2.039   1.451   0.086 -0.3915  0.3559  0.3949
19911TIP3    H181224   2.095   1.402   0.145 -0.2921 -0.0619 -0.0354
19911TIP3    H281225   2.002   1.521   0.139 -1.1583 -0.6497  1.2327
19912TIP3   OH281226   1.771   6.119  13.103 -0.2356 -0.2150 -0.5350
19912TIP3    H181227   1.694   6.152  13.149 -0.1015 -0.9951  0.2530
19912TIP3    H281228   1.814   6.198  13.070  0.0647  0.4326  1.2891
19913TIP3   OH281229   1.391   6.022   2.206  0.0066 -0.7983  0.0850
19913TIP3    H181230   1.404   6.112   2.175  0.9351 -1.1389 -0.6022
19913TIP3    H281231   1.466   6.006   2.263  0.0032 -1.2201 -0.0249
19914TIP3   OH281232   2.811   4.020   1.987  0.0929  0.1242 -0.7996
19914TIP3    H181233   2.794   3.975   2.070  1.2721 -1.3872 -1.3294
19914TIP3    H281234   2.771   4.106   1.998 -0.0063 -0.1283  1.2352
19915TIP3   OH281235   5.178   1.511  15.913  0.1901 -0.0424 -0.2255
19915TIP3    H181236   5.253   1.551  15.956  1.3620 -0.8834 -1.4177
19915TIP3    H281237   5.165   1.563  15.834 -0.3739 -0.0178 -0.1223
19916TIP3   OH281238   2.689   0.503  10.848 -0.3498 -0.0213  0.3538
19916TIP3    H181239   2.768   0.549  10.876 -0.6462  0.3813  0.5336
19916TIP3    H281240   2.643   0.566  10.793  0.2083 -0.7952 -1.0414
19917TIP3   OH281241   1.015   5.822   2.876 -0.0067 -0.3626 -0.4952
19917TIP3    H181242   1.050   5.898   2.830  1.0605 -0.1357  0.6432
19917TIP3    H281243   1.045   5.747   2.824 -3.4688 -0.0506 -3.2924
19918TIP3   OH281244   5.006   1.103  12.529 -0.0277 -0.1471 -0.2638
19918TIP3    H181245   4.973   1.104  12.618 -0.0203 -0.8165 -0.2498
19918TIP3    H281246   4.954   1.036  12.484  1.1864 -1.1311 -0.2767
19919TIP3   OH281247   5.524   0.608   5.942  0.7388 -0.8814 -0.6747
19919TIP3    H181248   5.601   0.659   5.967  0.2742 -0.6477  0.3080
19919TIP3    H281249   5.547   0.518   5.964  0.9163 -0.8787 -0.8429
19920TIP3   OH281250   0.896   1.915  16.154 -0.0019 -1.0190  0.2121
19920TIP3    H181251   0.800   1.914  16.153 -0.0305  0.1333  0.4781
19920TIP3    H281252   0.919   1.889  16.243 -0.0128 -2.4938 -0.1816
19921TIP3   OH281253   1.492   3.624   5.426  0.0971 -0.2366 -0.0891
19921TIP3    H181254   1.572   3.579   5.455 -0.6478 -0.5415  1.6174
19921TIP3    H281255   1.509   3.716   5.447 -0.6778 -0.5300  2.0480
19922TIP3   OH281256   2.750   1.107   0.338 -0.0069  0.0516 -0.1171
19922TIP3    H181257   2.707   1.164   0.401  1.7611  1.6781 -0.2840
19922TIP3    H281258   2.835   1.086   0.378 -0.9141 -3.3807  0.3955
19923TIP3   OH281259   0.568   5.684   4.216 -0.5091 -0.3410 -0.5423
19923TIP3    H181260   0.625   5.661   4.289  2.0320 -1.2709 -2.6381
19923TIP3    H281261   0.566   5.780   4.216  1.5824 -0.2401 -0.6780
19924TIP3   OH281262   4.926   3.416  17.000 -0.1737  0.2720  0.5430
19924TIP3    H181263   4.868   3.475  16.952 -0.3567 -0.4445 -0.1403
19924TIP3    H281264   4.953   3.466  17.077  1.6822  2.2258 -1.2408
19925TIP3   OH281265   6.443   1.038   5.441 -0.3177 -0.0999  0.2714
19925TIP3    H181266   6.531   1.026   5.406  0.5524  0.0129  2.2860
19925TIP3    H281267   6.408   1.112   5.392  1.4808  1.1168  0.7236
19926TIP3   OH281268   0.441   0.096  15.580 -0.8170 -0.7203  0.5625
19926TIP3    H181269   0.458   0.128  15.491 -3.5590 -0.1769  0.1585
19926TIP3    H281270   0.503   0.145  15.634  1.4408 -1.5960 -1.0426
19927TIP3   OH281271   2.137   5.974   0.817 -0.8615 -0.4848 -0.2419
19927TIP3    H181272   2.144   6.070   0.814  0.6524 -0.4598  1.9065
19927TIP3    H281273   2.128   5.954   0.910  1.4336 -2.5428 -0.3901
19928TIP3   OH281274   1.141   0.300  13.991 -0.2106 -0.1231  0.4187
19928TIP3    H181275   1.144   0.388  13.954  1.2432  0.4220  1.7018
19928TIP3    H281276   1.200   0.249  13.936  1.1491  0.4373  1.2801
19929TIP3   OH281277   2.509   0.333   5.643 -0.0730 -0.3358  0.0427
19929TIP3    H181278   2.598   0.323   5.676  0.3339 -2.0430 -1.3730
19929TIP3    H281279   2.453   0.322   5.720  0.9091  1.0579  1.0046
19930TIP3   OH281280   1.780   1.079   5.228 -0.3899  0.4111 -0.1254
19930TIP3    H181281   1.690   1.059   5.253 -0.8442  1.3208 -0.9667
19930TIP3    H281282   1.796   1.025   5.151  0.4910 -1.2414  1.1463
19931TIP3   OH281283   4.216   0.810   2.610 -0.9751  0.1436 -0.2270
19931TIP3    H181284   4.267   0.891   2.610 -1.0665  0.2100  0.4263
19931TIP3    H281285   4.268   0.749   2.662 -0.7816 -0.3023 -0.9368
19932TIP3   OH281286   3.905   4.373  12.753  0.1091  0.7113  0.3326
19932TIP3    H181287   3.915   4.469  12.748  1.2649  0.6304  0.6027
19932TIP3    H281288   3.868   4.358  12.840  0.2946  0.9038  0.4490
19933TIP3   OH281289   1.896   3.587  16.606 -0.6183 -0.3726 -0.2995
19933TIP3    H181290   1.965   3.625  16.661  0.3991 -1.9213 -0.4527
19933TIP3    H281291   1.814   3.621  16.644  0.1378  0.1863  0.9111
19934TIP3   OH281292   4.116   5.960   3.731 -0.1460  0.0378  0.4954
19934TIP3    H181293   4.056   6.035   3.730 -0.1703  0.0620  2.2303
19934TIP3    H281294   4.059   5.884   3.743  0.1497  0.0613  2.1530
19935TIP3   OH281295   1.640   4.690  14.538 -0.0568 -0.3144  0.2092
19935TIP3    H181296   1.669   4.691  14.447 -1.9666 -0.1967 -0.4471
19935TIP3    H281297   1.580   4.615  14.543 -1.4449  0.7985  0.8473
19936TIP3   OH281298   0.594   4.201   5.266  0.1121 -0.1260 -1.0469
19936TIP3    H181299   0.662   4.267   5.254  0.1896 -0.1634 -0.8251
19936TIP3    H281300   0.565   4.213   5.357  0.5863 -0.8332 -0.7963
19937TIP3   OH281301   5.814   4.745  13.058 -0.3591  0.5875  0.5254
19937TIP3    H181302   5.834   4.654  13.037 -0.5956  0.8412 -0.9347
19937TIP3    H281303   5.806   4.788  12.973  0.6247  2.1789  1.1804
19938TIP3   OH281304   4.698   2.511   4.199  0.1445 -0.2132  0.1181
19938TIP3    H181305   4.610   2.535   4.228  0.5030  0.9560  0.2770
19938TIP3    H281306   4.728   2.448   4.265 -0.4159 -0.3025  0.2966
19939TIP3   OH281307   2.509   6.425  16.350  0.0532 -0.4134 -0.1799
19939TIP3    H181308   2.500   6.334  16.378  1.9627 -0.4038  0.5993
19939TIP3    H281309   2.596   6.451  16.379 -0.9496  2.1162  0.8532
19940TIP3   OH281310   0.392   0.680   0.109 -0.5903 -0.8644 -0.1462
19940TIP3    H181311   0.477   0.718   0.086 -1.4476  1.8081  0.7408
19940TIP3    H281312   0.353   0.655   0.025 -0.0007  0.3649 -0.8071
19941TIP3   OH281313   1.285   2.323   6.319  0.3384 -0.5722 -0.0907
19941TIP3    H181314   1.208   2.374   6.296  0.7914  0.0553 -0.2350
19941TIP3    H281315   1.252   2.253   6.375 -0.4145 -0.6485 -0.6180
19942TIP3   OH281316   5.835   1.555   0.657  0.0786  0.3288 -0.3776
19942TIP3    H181317   5.889   1.588   0.729 -1.8930 -1.9110  2.3637
19942TIP3    H281318   5.894   1.501   0.605  0.9962 -0.2910  1.2470
19943TIP3   OH281319   3.074   6.486   2.966 -0.4747 -0.0861  0.1382
19943TIP3    H181320   3.074   6.531   2.882  0.4977 -1.5308 -0.6846
19943TIP3    H281321   2.982   6.483   2.992 -0.7733  0.4642 -0.8278
19944TIP3   OH281322   2.762   0.534  13.701 -0.5231 -0.9585  0.1622
19944TIP3    H181323   2.856   0.543  13.686 -0.5066 -0.6045  0.4673
19944TIP3    H281324   2.755   0.463  13.766 -0.5628 -2.0709 -1.0176
19945TIP3   OH281325   1.994   6.388   2.221 -0.0666  0.1837 -0.1176
19945TIP3    H181326   1.975   6.403   2.128 -0.4398  0.7899  0.0483
19945TIP3    H281327   2.051   6.312   2.222 -1.4993 -0.9509 -0.7356
19946TIP3   OH281328   0.925   5.667  15.180  0.0957  0.0972 -0.3228
19946TIP3    H181329   0.834   5.681  15.152 -0.2584  0.8807  1.1398
19946TIP3    H281330   0.946   5.745  15.231  1.5009 -0.2231 -0.3931
19947TIP3   OH281331   6.854   2.760  11.298 -0.5698 -0.0792 -0.0221
19947TIP3    H181332   6.941   2.752  11.258 -0.8118 -0.0515 -0.5713
19947TIP3    H281333   6.860   2.839  11.353 -0.5627  0.5658 -0.9167
19948TIP3   OH281334   3.032   1.745  15.121 -0.1318 -0.0212  0.2258
19948TIP3    H181335   2.979   1.745  15.201  1.1400  0.5211  1.1121
19948TIP3    H281336   3.080   1.828  15.125 -1.7090  1.1216 -2.2919
19949TIP3   OH281337   2.809   3.721  12.629 -0.7169 -0.1236 -0.3709
19949TIP3    H181338   2.742   3.740  12.696  0.9290  0.1196  1.2943
19949TIP3    H281339   2.774   3.646  12.582 -1.1323 -1.5568  2.0335
19950TIP3   OH281340   2.765   0.168   0.742  0.4216  0.1566 -0.0228
19950TIP3    H181341   2.732   0.135   0.658 -1.2658  1.0140  0.2697
19950TIP3    H281342   2.746   0.097   0.804  3.0964 -1.1588 -0.5613
19951TIP3   OH281343   4.285   3.424   4.501  0.0995  0.2732 -0.1949
19951TIP3    H181344   4.239   3.351   4.542 -0.0747  0.3138 -0.3184
19951TIP3    H281345   4.321   3.474   4.574  2.1435 -1.1646 -0.1301
19952TIP3   OH281346   4.226   5.925  14.406  0.2345  0.2733 -0.1536
19952TIP3    H181347   4.267   5.943  14.321 -1.7155 -1.3510 -1.5602
19952TIP3    H281348   4.186   6.008  14.431 -0.1198  0.5233 -1.4373
19953TIP3   OH281349   1.157   2.808  16.282  0.0892  0.0535  0.0065
19953TIP3    H181350   1.099   2.860  16.338 -0.8154 -0.9947  0.1025
19953TIP3    H281351   1.233   2.863  16.267 -1.0442  1.5834 -0.3209
19954TIP3   OH281352   1.695   0.847   3.127 -0.0255 -0.3903  0.4450
19954TIP3    H181353   1.718   0.802   3.045 -0.2739 -2.0966  1.2635
19954TIP3    H281354   1.706   0.940   3.107 -1.6524 -0.6306 -2.0165
19955TIP3   OH281355   0.303   3.869   1.918 -0.7328  0.1464  0.2244
19955TIP3    H181356   0.259   3.824   1.990 -0.6378  0.6329  0.5934
19955TIP3    H281357   0.237   3.927   1.881 -0.9542 -0.5380 -0.4719
19956TIP3   OH281358   3.157   0.060  11.561  0.0865  0.2309 -0.0755
19956TIP3    H181359   3.192   0.064  11.473 -2.4486 -0.8839 -1.2427
19956TIP3    H281360   3.134   0.150  11.583  0.8229  0.5251 -0.4886
19957TIP3   OH281361   4.003   1.461  13.282  0.2014 -0.3752 -0.1111
19957TIP3    H181362   3.975   1.455  13.374 -1.2664 -2.5989 -0.6252
19957TIP3    H281363   3.939   1.518  13.240 -0.5196 -1.2494 -0.2152
19958TIP3   OH281364   6.712   6.284  12.222  0.7757 -0.7171  0.5529
19958TIP3    H181365   6.763   6.216  12.266  0.7538 -1.4088 -0.4462
19958TIP3    H281366   6.642   6.236  12.177  1.2916 -0.1505 -0.9259
19959TIP3   OH281367   0.097   5.595   3.324  0.1678  0.3098  0.3080
19959TIP3    H181368   0.019   5.631   3.366 -0.9104 -1.6508  0.1001
19959TIP3    H281369   0.161   5.587   3.395 -1.3703 -2.2484  1.5168
19960TIP3   OH281370   0.457   5.829   0.605  0.8118 -0.2488 -0.7376
19960TIP3    H181371   0.503   5.777   0.671 -1.9069 -3.4296 -1.0606
19960TIP3    H281372   0.434   5.910   0.651  1.8255 -0.9815  1.1887
19961TIP3   OH281373   2.283   4.149  16.748 -0.1240 -0.3483  0.2202
19961TIP3    H181374   2.269   4.111  16.835 -1.8080  1.8898  1.0275
19961TIP3    H281375   2.347   4.219  16.764 -0.5870  0.1962 -0.3172
19962TIP3   OH281376   6.032   1.742   3.402  0.4545 -0.1885  0.1621
19962TIP3    H181377   5.938   1.755   3.404  0.4210 -0.4264  0.2132
19962TIP3    H281378   6.066   1.796   3.473  0.4855  0.8653 -0.6375
19963TIP3   OH281379   5.311   1.389  13.963  0.3020 -0.2870  0.3275
19963TIP3    H181380   5.337   1.476  13.993 -2.3707  0.8129 -0.2458
19963TIP3    H281381   5.394   1.344  13.946  1.7856  1.8492  1.3723
19964TIP3   OH281382   4.405   1.769   0.713 -0.2415  0.1549 -0.4442
19964TIP3    H181383   4.335   1.834   0.711 -1.3209 -0.9668 -2.2129
19964TIP3    H281384   4.395   1.721   0.631  0.5485 -2.2135  0.7763
19965TIP3   OH281385   3.540   5.207   0.989  0.2310 -0.0852 -0.5642
19965TIP3    H181386   3.497   5.270   0.930  0.0602  1.4256  1.0692
19965TIP3    H281387   3.500   5.224   1.074  1.1950 -1.4857  0.2013
19966TIP3   OH281388   4.069   1.241  12.208  0.1646  0.3490 -0.4194
19966TIP3    H181389   4.072   1.329  12.244 -2.2955  1.2631 -2.1744
19966TIP3    H281390   4.005   1.195  12.262 -0.1380  0.3248 -0.7924
19967TIP3   OH281391   5.934   0.750  12.238  0.0484 -0.0350  0.1500
19967TIP3    H181392   5.958   0.833  12.280  1.6230  0.3044 -1.3245
19967TIP3    H281393   5.903   0.775  12.151 -0.4918 -0.9388  0.0639
19968TIP3   OH281394   1.732   1.583  12.828  0.0777  0.2113  0.2139
19968TIP3    H181395   1.808   1.637  12.848  1.0030 -1.1499  0.5102
19968TIP3    H281396   1.692   1.565  12.912  0.1976 -0.1468  0.1981
19969TIP3   OH281397   4.402   6.320  10.101 -0.4720  0.2949 -0.0529
19969TIP3    H181398   4.448   6.286  10.178 -1.5424  0.3951  0.6518
19969TIP3    H281399   4.457   6.294  10.027  2.5119  3.1505  0.8776
19970TIP3   OH281400   0.215   2.449  11.698  0.4240  0.0031 -0.1806
19970TIP3    H181401   0.226   2.440  11.792 -1.5355  0.5198  0.1275
19970TIP3    H281402   0.216   2.359  11.665  5.1604 -0.1664 -0.3078
19971TIP3   OH281403   3.227   6.605   1.392  0.7555 -0.4870 -0.1341
19971TIP3    H181404   3.318   6.623   1.366  1.0179 -0.0461  1.0271
19971TIP3    H281405   3.194   6.690   1.421 -0.1396 -0.5800 -0.8422
19972TIP3   OH281406   2.675   1.098   1.455  0.5636  0.1820 -0.4732
19972TIP3    H181407   2.624   1.109   1.536  0.0559  0.1619 -0.7865
19972TIP3    H281408   2.755   1.149   1.470  0.8863 -0.5612  0.3916
19973TIP3   OH281409   4.830   6.286   0.611 -0.2500 -0.3670  0.3616
19973TIP3    H181410   4.791   6.205   0.578 -0.4192 -1.1871  2.4173
19973TIP3    H281411   4.895   6.257   0.675  0.2436  1.1198  0.5730
19974TIP3   OH281412   6.362   2.424  14.036  0.5355  0.3531  0.0420
19974TIP3    H181413   6.331   2.497  13.983  2.0342  2.5503  2.0132
19974TIP3    H281414   6.321   2.347  13.997 -0.7445  2.1549 -2.4283
19975TIP3   OH281415   6.106   5.420   3.712  0.0038  0.3318  0.0628
19975TIP3    H181416   6.040   5.433   3.780 -0.9356 -0.9443 -0.5794
19975TIP3    H281417   6.057   5.392   3.635  1.0893  1.3851 -1.0648
19976TIP3   OH281418   0.485   6.675   3.997  0.3342  0.2597  0.0080
19976TIP3    H181419   0.541   6.648   4.071  0.9094  0.8544 -0.2060
19976TIP3    H281420   0.488   6.770   3.998  0.9583  0.2713 -1.2411
19977TIP3   OH281421   6.610   3.719   5.168  0.2901  0.4886  0.5116
19977TIP3    H181422   6.606   3.813   5.185  0.3619  0.4388  0.8013
19977TIP3    H281423   6.685   3.708   5.110 -0.6366  0.8005 -0.8037
19978TIP3   OH281424   6.406   2.822  15.996  0.2030  0.2631 -0.0623
19978TIP3    H181425   6.447   2.901  15.961 -0.2749  0.1424 -0.9195
19978TIP3    H281426   6.480   2.766  16.022  0.6545 -0.3686 -2.5120
19979TIP3   OH281427   2.260   6.288   0.061  0.2349  0.5240  0.5773
19979TIP3    H181428   2.200   6.348   0.105  0.4023 -0.6604  2.5623
19979TIP3    H281429   2.223   6.201   0.077  1.2059 -0.0648 -0.2429
19980TIP3   OH281430   2.221   6.838  13.392  0.1240  0.5393 -0.0859
19980TIP3    H181431   2.138   6.806  13.428  0.1578  0.4006 -0.1283
19980TIP3    H281432   2.287   6.778  13.426  0.1735  0.4893 -0.2657
19981TIP3   OH281433   0.574   2.291  16.795 -0.5021 -0.0819 -0.4410
19981TIP3    H181434   0.522   2.312  16.873  0.0067 -1.7828  0.4219
19981TIP3    H281435   0.664   2.283  16.827 -0.1276  0.1155 -1.3952
19982TIP3   OH281436   2.407   5.353   0.977  0.2134 -0.1893  0.0902
19982TIP3    H181437   2.443   5.274   1.017 -1.6084 -0.8262  0.5739
19982TIP3    H281438   2.344   5.385   1.041 -0.0941  0.8663 -0.7159
19983TIP3   OH281439   1.368   5.282   1.559 -0.7498  0.2851 -0.5351
19983TIP3    H181440   1.359   5.325   1.474 -1.4084  1.3632  0.0556
19983TIP3    H281441   1.291   5.225   1.565 -0.0686 -0.7219 -1.1632
19984TIP3   OH281442   4.421   1.177  13.851 -0.4442  0.3136  0.4371
19984TIP3    H181443   4.361   1.232  13.800 -0.4746  0.0410  0.1765
19984TIP3    H281444   4.423   1.094  13.804  0.4925  0.4683  0.2003
19985TIP3   OH281445   2.441   4.145   0.097 -0.0311 -0.1945 -0.3159
19985TIP3    H181446   2.477   4.228   0.130  0.7996  0.3853 -2.4927
19985TIP3    H281447   2.373   4.121   0.160 -0.4811  2.2784  0.2246
19986TIP3   OH281448   2.885   4.248   2.604  0.7383 -0.1122 -0.2852
19986TIP3    H181449   2.887   4.296   2.521  2.9291  1.0253  0.3598
19986TIP3    H281450   2.947   4.176   2.593  1.1389  0.1153  0.3775
19987TIP3   OH281451   0.997   1.360  11.739  0.3060  0.1695 -0.1494
19987TIP3    H181452   1.029   1.274  11.766 -1.2145 -0.7799 -1.1817
19987TIP3    H281453   1.005   1.360  11.644 -0.3859  0.8800 -0.2212
19988TIP3   OH281454   1.958   1.442   0.728 -0.6484  0.0418 -0.8271
19988TIP3    H181455   1.910   1.398   0.658  0.7793 -1.4296 -0.9530
19988TIP3    H281456   1.899   1.511   0.759 -2.9500 -1.8567 -0.7345
19989TIP3   OH281457   0.928   3.543  13.070  0.1542 -0.9840  0.1094
19989TIP3    H181458   0.859   3.604  13.099  1.1950 -0.1237  0.8510
19989TIP3    H281459   0.929   3.553  12.975 -0.7649 -1.0448  0.0788
19990TIP3   OH281460   0.722   3.408   3.445 -0.0707 -0.3192 -0.0667
19990TIP3    H181461   0.801   3.426   3.394 -0.5762 -0.8572 -1.0857
19990TIP3    H281462   0.698   3.493   3.483 -0.6122  0.5440 -2.1473
19991TIP3   OH281463   1.582   1.151  15.890 -0.3828  0.3351  0.3602
19991TIP3    H181464   1.634   1.104  15.955 -1.2298  2.7622  2.9939
19991TIP3    H281465   1.609   1.242  15.899 -1.8397  1.0170 -1.4606
19992TIP3   OH281466   4.765   5.202  12.502  0.1703 -0.0443 -0.1652
19992TIP3    H181467   4.788   5.145  12.575  0.2217  0.6183  0.3441
19992TIP3    H281468   4.704   5.266  12.540  0.5411  0.5742 -0.5990
19993TIP3   OH281469   3.507   1.204   4.554  0.3071 -0.0644 -0.4575
19993TIP3    H181470   3.439   1.162   4.606 -0.1862 -0.2754 -1.2518
19993TIP3    H281471   3.576   1.226   4.617 -0.8430  0.9242  0.4950
19994TIP3   OH281472   2.578   1.379  10.901  0.4120 -0.6208  0.0190
19994TIP3    H181473   2.642   1.387  10.830 -0.3006 -2.3590 -0.8814
19994TIP3    H281474   2.513   1.446  10.883  1.5489  0.6679  0.5245
19995TIP3   OH281475   2.671   2.762   2.685  0.8973  0.1365  0.1754
19995TIP3    H181476   2.576   2.766   2.677  0.7088 -0.1405  1.9331
19995TIP3    H281477   2.704   2.815   2.613 -0.6270  1.2842  0.2921
19996TIP3   OH281478   3.901   0.148  16.853 -0.0667  0.1071  0.3713
19996TIP3    H181479   3.910   0.134  16.759 -2.7946 -1.2073  0.2380
19996TIP3    H281480   3.991   0.147  16.886  0.9033 -0.0726 -2.1039
19997TIP3   OH281481   6.577   0.105  14.635  0.2871  0.5029  0.5697
19997TIP3    H181482   6.643   0.039  14.656  2.3709  2.0662 -0.6414
19997TIP3    H281483   6.546   0.081  14.547  0.5019  0.6976  0.4381
19998TIP3   OH281484   0.849   5.285   0.808  0.1777  0.5619 -0.2413
19998TIP3    H181485   0.873   5.228   0.881 -0.5102 -0.5959 -0.8861
19998TIP3    H281486   0.898   5.251   0.734 -0.4882  0.5940 -0.7095
19999TIP3   OH281487   0.848   1.895  11.730 -0.0106  0.1788 -0.2918
19999TIP3    H181488   0.918   1.937  11.680  0.6958  0.2940  0.7518
19999TIP3    H281489   0.817   1.964  11.789 -0.1441 -0.2336  0.1222
20000TIP3   OH281490   5.379   5.114   5.290 -0.0905 -0.5359 -0.1292
20000TIP3    H181491   5.343   5.027   5.310 -3.4430  0.4226 -1.3047
20000TIP3    H281492   5.360   5.127   5.197  3.4497  0.1978 -0.8881
20001TIP3   OH281493   6.815   2.886  14.971  0.2562 -0.1051  0.5049
20001TIP3    H181494   6.772   2.828  14.908  0.8439 -2.0514  1.7834
20001TIP3    H281495   6.825   2.969  14.925  2.3097 -1.9270 -2.6563
20002TIP3   OH281496   4.404   5.409  13.672  0.0953  0.2269  0.8500
20002TIP3    H181497   4.326   5.378  13.717 -0.1900  1.6428  1.3889
20002TIP3    H281498   4.374   5.485  13.621  0.1060 -1.9892 -2.8579
20003TIP3   OH281499   0.806   5.853   4.627 -0.6852  0.1002  0.3326
20003TIP3    H181500   0.819   5.866   4.533 -0.3923  0.6405  0.4500
20003TIP3    H281501   0.883   5.891   4.668  0.5268 -2.5056  0.6581
20004TIP3   OH281502   4.786   3.722  12.217 -0.2257  0.5407  0.0398
20004TIP3    H181503   4.773   3.644  12.271  1.5798  0.6870  0.7378
20004TIP3    H281504   4.826   3.786  12.276 -1.4174  1.9441 -0.5879
20005TIP3   OH281505   1.368   6.288   2.144 -0.2901  0.1186 -0.4496
20005TIP3    H181506   1.294   6.252   2.193  1.2662  0.1755  2.1159
20005TIP3    H281507   1.332   6.306   2.057 -3.0887 -0.4806  0.4664
20006TIP3   OH281508   3.871   2.747   4.869  0.7896 -0.1849 -0.0958
20006TIP3    H181509   3.959   2.715   4.890  0.6364  0.4780  1.7579
20006TIP3    H281510   3.812   2.684   4.910  0.4578  0.9488  1.2301
20007TIP3   OH281511   6.775   4.279  11.945  0.5133  0.6632 -0.0561
20007TIP3    H181512   6.842   4.340  11.915  1.6644 -0.7977 -0.5700
20007TIP3    H281513   6.775   4.209  11.879 -0.7139  0.0666  0.5446
20008TIP3   OH281514   6.776   6.771  15.523 -0.2769 -0.1785  0.8694
20008TIP3    H181515   6.839   6.775  15.595  3.4116  0.5606 -2.0581
20008TIP3    H281516   6.759   6.862  15.500  3.2849 -0.0899 -2.5522
20009TIP3   OH281517   1.972   4.387  15.409 -0.2834 -0.3480 -0.3317
20009TIP3    H181518   1.931   4.313  15.366  0.8511 -1.5547  0.5866
20009TIP3    H281519   1.928   4.393  15.494  0.7505 -1.0382  0.2660
20010TIP3   OH281520   4.762   4.507   1.406 -0.3442 -0.4476 -0.4934
20010TIP3    H181521   4.765   4.511   1.310 -2.0171 -0.5452 -0.5754
20010TIP3    H281522   4.699   4.438   1.425 -0.9803  0.4153  0.6545
20011TIP3   OH281523   2.742   2.727  11.200  0.0468 -0.1727 -0.1773
20011TIP3    H181524   2.740   2.663  11.271  0.6115 -1.5693 -1.3505
20011TIP3    H281525   2.707   2.679  11.124  2.6069  0.1219 -1.6585
20012TIP3   OH281526   5.120   4.124  13.001  0.1714  0.1247 -0.5869
20012TIP3    H181527   5.141   4.063  12.931 -0.3555 -0.6527 -0.0870
20012TIP3    H281528   5.025   4.117  13.011  0.3275 -0.4216  0.7644
20013TIP3   OH281529   1.417   0.193   1.607  0.2666 -0.2299  0.8606
20013TIP3    H181530   1.511   0.205   1.621  0.6048  0.3258 -1.4005
20013TIP3    H281531   1.405   0.212   1.513 -2.1523  0.0351  1.1710
20014TIP3   OH281532   3.326   2.584  12.853 -0.4579  0.3674  0.5015
20014TIP3    H181533   3.355   2.568  12.763  1.7550 -1.7900  1.4673
20014TIP3    H281534   3.249   2.640  12.844  0.8624  1.9026 -2.5981
20015TIP3   OH281535   0.469   2.008   3.961  0.1374 -0.8413  0.2542
20015TIP3    H181536   0.544   1.958   3.929  1.6922  1.5283 -0.0067
20015TIP3    H281537   0.429   2.044   3.882 -1.2487 -1.9873  0.4037
20016TIP3   OH281538   5.879   6.202   2.986  0.7076 -0.0901 -0.2108
20016TIP3    H181539   5.938   6.163   2.922  1.9630 -1.7392  1.8515
20016TIP3    H281540   5.798   6.151   2.979  1.2717 -1.0922  0.3211
20017TIP3   OH281541   2.632   4.107   5.584  0.4983  0.2658  0.3425
20017TIP3    H181542   2.726   4.119   5.597  0.8735 -0.5303 -1.2813
20017TIP3    H281543   2.627   4.040   5.515 -1.1825  2.2038 -1.5289
20018TIP3   OH281544   1.622   4.936   0.538 -0.1526  0.5240 -0.1644
20018TIP3    H181545   1.701   4.976   0.501  0.9872 -1.9645 -0.7142
20018TIP3    H281546   1.550   4.977   0.490  0.5992  3.8255  1.2671
20019TIP3   OH281547   6.651   5.367  14.883  0.4563 -0.0231  0.5951
20019TIP3    H181548   6.597   5.387  14.959  0.1843  0.3036  0.3252
20019TIP3    H281549   6.617   5.284  14.850 -3.3866  2.3961 -2.5221
20020TIP3   OH281550   1.818   5.774   3.417 -0.0026 -0.0559 -0.4865
20020TIP3    H181551   1.808   5.798   3.509  1.5354 -2.5621  0.4161
20020TIP3    H281552   1.869   5.846   3.379 -2.4461  2.0969 -0.0296
20021TIP3   OH281553   2.653   4.380   0.732  0.0220  0.0465  0.8157
20021TIP3    H181554   2.594   4.382   0.807 -0.6616 -0.6254  0.3176
20021TIP3    H281555   2.731   4.334   0.764  0.0323  0.4134  1.3148
20022TIP3   OH281556   3.410   0.244  13.265  0.4982 -0.1592  0.3481
20022TIP3    H181557   3.505   0.235  13.274  0.6142  1.4888  1.4244
20022TIP3    H281558   3.382   0.281  13.349 -0.7415  1.5769 -0.7408
20023TIP3   OH281559   0.458   2.015   1.680  0.4328 -0.2314 -0.1857
20023TIP3    H181560   0.452   2.101   1.722 -0.8722 -0.3921 -0.0020
20023TIP3    H281561   0.391   1.962   1.724  0.1414 -0.8804 -1.3630
20024TIP3   OH281562   5.892   2.979  15.424  0.2041 -0.2027  0.1707
20024TIP3    H181563   5.907   2.885  15.414 -0.7788 -0.3551  0.0173
20024TIP3    H281564   5.948   3.004  15.498 -0.6248 -1.2227  1.1983
20025TIP3   OH281565   3.525   3.819  14.418 -0.1787  0.1178  0.3921
20025TIP3    H181566   3.510   3.762  14.494  0.1974  1.1155  1.2498
20025TIP3    H281567   3.620   3.824  14.411 -0.2135  0.2992  0.0610
20026TIP3   OH281568   1.720   0.196  13.219 -0.2411  0.0885 -0.2496
20026TIP3    H181569   1.804   0.221  13.183  0.4892 -0.5097  0.9725
20026TIP3    H281570   1.677   0.279  13.239  0.8793  0.4180  0.9122
20027TIP3   OH281571   1.924   0.655   5.000  0.0434 -0.7003  0.3267
20027TIP3    H181572   1.842   0.701   4.984  0.7335  0.4749  0.1180
20027TIP3    H281573   1.898   0.563   5.010 -1.4221 -0.2041  1.3905
20028TIP3   OH281574   5.982   6.234  14.062  0.5296  0.1668 -0.2751
20028TIP3    H181575   6.057   6.292  14.048  0.8429 -0.3275 -0.6973
20028TIP3    H281576   5.906   6.288  14.041  0.7822  0.5931 -0.1048
20029TIP3   OH281577   1.739   0.172  14.988 -0.0765 -0.4941 -0.1204
20029TIP3    H181578   1.761   0.123  15.067  0.0819 -0.6250 -0.2455
20029TIP3    H281579   1.696   0.108  14.931  0.3403 -0.5443 -0.3780
20030TIP3   OH281580   2.433   0.550  14.947 -0.8429 -0.1305 -0.0244
20030TIP3    H181581   2.505   0.564  15.009 -0.5727  1.3879 -0.6382
20030TIP3    H281582   2.357   0.532  15.003 -0.1288 -1.2133  0.6530
20031TIP3   OH281583   2.300   3.250  14.059 -0.2442  0.1387 -0.7183
20031TIP3    H181584   2.355   3.201  13.999  1.2194  0.3766  0.3664
20031TIP3    H281585   2.319   3.341  14.041  0.3195  0.2134  0.1610
20032TIP3   OH281586   3.993   3.060  17.020  0.1721  0.2797  0.4676
20032TIP3    H181587   3.952   3.132  17.068  0.0082 -0.0461  0.8289
20032TIP3    H281588   4.086   3.082  17.019  0.0616  0.7438  0.1351
20033TIP3   OH281589   4.177   3.628  15.229  0.0489  0.0452  0.1432
20033TIP3    H181590   4.149   3.705  15.279  2.0219  1.1887 -0.4036
20033TIP3    H281591   4.271   3.642  15.215 -0.1212 -0.9539 -2.5795
20034TIP3   OH281592   2.841   6.450   5.247  0.0028 -0.0575 -0.0099
20034TIP3    H181593   2.804   6.388   5.310 -0.1127 -1.6104 -1.5384
20034TIP3    H281594   2.905   6.398   5.198 -0.1077  1.0225 -1.3410
20035TIP3   OH281595   6.566   3.839   3.838  0.3423 -0.4344 -0.1605
20035TIP3    H181596   6.572   3.858   3.744 -1.5403 -0.2559 -0.2881
20035TIP3    H281597   6.655   3.850   3.871  1.0675 -0.6340 -1.9467
20036TIP3   OH281598   1.183   1.013   3.996  0.1488 -0.4180 -0.6473
20036TIP3    H181599   1.169   0.954   4.070  0.0617 -1.8916 -1.7812
20036TIP3    H281600   1.106   1.070   3.996  0.5305  0.1608  0.8375
20037TIP3   OH281601   3.592   6.197   0.547 -0.1454 -0.7596  0.4530
20037TIP3    H181602   3.542   6.230   0.621  1.3424 -0.1335  1.2323
20037TIP3    H281603   3.526   6.168   0.484 -1.5089  1.8200  0.5645
20038TIP3   OH281604   2.156   3.398  14.901 -0.1222  0.0141  0.2563
20038TIP3    H181605   2.116   3.485  14.895 -1.6043 -0.7592 -2.3483
20038TIP3    H281606   2.083   3.340  14.925 -0.2165 -1.0813 -2.3358
20039TIP3   OH281607   4.110   3.847  16.882  1.3026  0.0075 -0.1489
20039TIP3    H181608   4.071   3.821  16.799  2.4901 -0.7134 -0.4982
20039TIP3    H281609   4.036   3.876  16.936  0.1229 -2.4926 -0.3298
20040TIP3   OH281610   0.893   6.151   4.098  0.6971 -0.2296 -0.2749
20040TIP3    H181611   0.971   6.169   4.046  1.2670 -2.6074 -0.3595
20040TIP3    H281612   0.856   6.072   4.059 -0.9145  0.0202  0.6896
20041TIP3   OH281613   2.839   3.458  13.890 -0.6865  0.1357  0.2359
20041TIP3    H181614   2.926   3.497  13.885 -0.3139 -0.7813 -1.4465
20041TIP3    H281615   2.855   3.364  13.894 -1.6026  0.0009  1.2941
20042TIP3   OH281616   6.059   5.696  12.181  0.0120  0.2352  0.0666
20042TIP3    H181617   6.096   5.608  12.178  0.6766  0.4913  0.5566
20042TIP3    H281618   5.982   5.687  12.237 -0.4675 -0.2213 -0.6500
20043TIP3   OH281619   3.893   3.147   5.395  1.0701  0.6398  0.4447
20043TIP3    H181620   3.982   3.131   5.425  1.0001  0.6049  0.6400
20043TIP3    H281621   3.899   3.224   5.338  1.1521  0.9332  0.8412
20044TIP3   OH281622   6.026   6.373   5.471 -0.4435  0.2590  0.2067
20044TIP3    H181623   6.038   6.458   5.427 -0.9900  0.4050  0.3332
20044TIP3    H281624   5.943   6.383   5.519 -1.0381 -0.7012 -0.5963
20045TIP3   OH281625   0.702   5.393   5.037  0.1828 -0.2682  0.0366
20045TIP3    H181626   0.624   5.397   5.092  0.5903  0.2678  0.5807
20045TIP3    H281627   0.717   5.484   5.010 -0.1873 -0.5581 -1.2192
20046TIP3   OH281628   3.807   1.580  15.782 -0.0904 -0.2278  0.0425
20046TIP3    H181629   3.828   1.495  15.821 -1.0277  0.3634  1.9965
20046TIP3    H281630   3.719   1.568  15.747  0.8782 -0.8557 -2.3452
20047TIP3   OH281631   0.158   0.394  16.061 -0.0861 -0.3683 -0.5245
20047TIP3    H181632   0.214   0.461  16.101  0.0324 -1.1054  0.5742
20047TIP3    H281633   0.069   0.426  16.073 -0.1691 -1.2732  1.7558
20048TIP3   OH281634   3.985   1.850   0.494  0.1198  0.4407  0.2519
20048TIP3    H181635   4.065   1.863   0.546  0.5164 -0.9539  0.0395
20048TIP3    H281636   3.924   1.917   0.526  0.9512  0.7313  1.2833
20049TIP3   OH281637   4.183   6.327   1.576 -0.0854 -0.1334  0.7571
20049TIP3    H181638   4.251   6.271   1.537 -1.1988 -1.1681  0.2309
20049TIP3    H281639   4.127   6.265   1.623 -1.6335  0.4623 -0.2413
20050TIP3   OH281640   5.368   3.726   2.450  0.0786  0.0345 -0.3100
20050TIP3    H181641   5.347   3.793   2.515  0.1228  1.3448 -1.6070
20050TIP3    H281642   5.418   3.772   2.383  1.9431 -1.7538 -0.2344
20051TIP3   OH281643   3.243   0.539   2.755  0.2671 -0.3690 -0.1212
20051TIP3    H181644   3.299   0.513   2.681  0.2801 -0.9563  0.0917
20051TIP3    H281645   3.154   0.517   2.727  0.1663  0.2679 -0.3292
20052TIP3   OH281646   4.626   0.719   3.421 -0.3195  0.6099  0.0986
20052TIP3    H181647   4.720   0.739   3.413 -0.5678  1.5869 -0.7251
20052TIP3    H281648   4.584   0.781   3.361 -1.4621 -0.1161  0.1218
20053TIP3   OH281649   4.213   2.033   2.179  0.3149 -0.4986  0.1576
20053TIP3    H181650   4.173   2.107   2.136  0.4694 -0.1954  0.5267
20053TIP3    H281651   4.201   2.050   2.273 -1.7544 -2.0977  0.2429
20054TIP3   OH281652   1.664   5.113   2.205  0.2287 -0.2528 -0.1519
20054TIP3    H181653   1.616   5.032   2.222 -0.4851  0.2194  0.0948
20054TIP3    H281654   1.619   5.153   2.130  0.6801 -0.1575 -0.3817
20055TIP3   OH281655   1.072   0.616   1.691  0.2959  0.7789 -0.0375
20055TIP3    H181656   1.120   0.681   1.742  3.9540 -1.7073  0.0132
20055TIP3    H281657   1.119   0.611   1.608  0.6570 -2.2194  0.2262
20056TIP3   OH281658   0.848   3.730  12.227 -0.3028  0.3488 -0.0946
20056TIP3    H181659   0.902   3.702  12.301  1.9340  0.3760 -1.6025
20056TIP3    H281660   0.760   3.740  12.263  0.2545 -1.6681  2.0783
20057TIP3   OH281661   4.877   4.010  13.034  0.1962  0.3602  0.2859
20057TIP3    H181662   4.891   3.917  13.017  1.0022  0.7610 -1.4963
20057TIP3    H281663   4.801   4.013  13.092 -2.1333 -1.2954 -2.4317
20058TIP3   OH281664   6.465   5.810  14.388  0.3002 -0.5110  0.2476
20058TIP3    H181665   6.470   5.752  14.312  1.6996 -2.1525  1.5154
20058TIP3    H281666   6.482   5.897  14.353 -0.3290 -1.0371 -1.4842
20059TIP3   OH281667   0.849   2.151   0.714  0.1197 -0.4156  0.6091
20059TIP3    H181668   0.793   2.083   0.752  2.2421 -1.8131  1.4413
20059TIP3    H281669   0.921   2.103   0.673 -0.1064  1.2378 -1.9310
20060TIP3   OH281670   3.623   1.716  13.015 -0.8348 -0.4813 -0.0558
20060TIP3    H181671   3.530   1.701  13.032 -1.3579 -0.1159 -2.3058
20060TIP3    H281672   3.625   1.772  12.937  1.2752 -1.2304 -0.6158
20061TIP3   OH281673   2.654   2.137   1.980 -0.5132 -0.3315  0.1654
20061TIP3    H181674   2.679   2.150   1.889 -2.2268 -1.1671 -0.4825
20061TIP3    H281675   2.676   2.219   2.023 -0.4963  0.4173 -1.2116
20062TIP3   OH281676   0.335   1.536  16.439  0.0005 -0.3721  0.2292
20062TIP3    H181677   0.372   1.448  16.439 -1.4045 -0.9927  1.1470
20062TIP3    H281678   0.276   1.538  16.514 -0.6507  1.0761 -0.2744
20063TIP3   OH281679   0.551   0.305  16.315  0.7327 -0.3202  0.0820
20063TIP3    H181680   0.536   0.231  16.257  1.2887 -0.8424  0.5915
20063TIP3    H281681   0.525   0.275  16.402 -1.0394  0.7795 -0.0173
20064TIP3   OH281682   2.685   5.769   5.150 -0.4473 -0.4383  0.2104
20064TIP3    H181683   2.699   5.762   5.245  0.2355  0.6080  0.2038
20064TIP3    H281684   2.591   5.785   5.141 -0.3079  0.8199  0.8106
20065TIP3   OH281685   1.016   3.350   6.218 -0.1990  0.4613 -0.0737
20065TIP3    H181686   1.048   3.435   6.248  2.9001 -0.7386  0.3059
20065TIP3    H281687   1.070   3.329   6.142 -1.4023 -0.8514 -0.6134
20066TIP3   OH281688   1.784   6.677   0.836  1.1511 -0.4687  0.3808
20066TIP3    H181689   1.722   6.669   0.764  1.3668 -2.2864  0.3710
20066TIP3    H281690   1.751   6.752   0.887 -1.3506 -1.6574  0.6541
20067TIP3   OH281691   0.257   5.674  12.496 -0.0969 -0.2165  0.0589
20067TIP3    H181692   0.232   5.636  12.411  0.2334  0.9075 -0.5682
20067TIP3    H281693   0.177   5.713  12.530 -0.0645 -0.0169 -0.0932
20068TIP3   OH281694   0.654   6.647   4.213  0.4695 -0.2165  0.1904
20068TIP3    H181695   0.743   6.622   4.189  0.1795 -0.9036 -0.1833
20068TIP3    H281696   0.666   6.710   4.285  1.2580 -0.1037 -0.0278
20069TIP3   OH281697   3.969   2.560   3.287  0.1297  0.3140 -0.5212
20069TIP3    H181698   4.052   2.592   3.254 -0.3487  1.1317 -0.9590
20069TIP3    H281699   3.952   2.479   3.237  2.0632 -1.5718  1.6276
20070TIP3   OH281700   3.673   4.998  14.456 -0.2656  0.1581  0.4636
20070TIP3    H181701   3.735   5.069  14.440  0.6185 -0.9129 -1.1743
20070TIP3    H281702   3.593   5.024  14.411  0.4320 -0.3498 -1.1548
20071TIP3   OH281703   0.703   3.505   1.327 -0.1156 -0.2167  0.4474
20071TIP3    H181704   0.681   3.595   1.304  1.1477  0.2060  0.8168
20071TIP3    H281705   0.685   3.455   1.248  0.6442  0.6136 -0.2701
20072TIP3   OH281706   1.290   4.614  12.161  0.1732  0.1214 -0.7206
20072TIP3    H181707   1.341   4.694  12.173 -1.3830  0.9374  1.1755
20072TIP3    H281708   1.352   4.550  12.127  1.1110  2.5015 -3.9111
20073TIP3   OH281709   5.710   3.444  13.443 -0.1766 -0.4122  0.0112
20073TIP3    H181710   5.722   3.533  13.478  0.0382 -0.6098  0.4512
20073TIP3    H281711   5.616   3.435  13.430 -0.2119 -0.1707  0.1003
20074TIP3   OH281712   4.981   0.449  12.285 -0.5511  0.0517  0.0107
20074TIP3    H181713   5.015   0.425  12.371 -2.0624 -0.1956  0.5732
20074TIP3    H281714   5.033   0.397  12.223  0.9754  0.6949  0.6893
20075TIP3   OH281715   1.527   1.874  14.087 -0.0347 -0.4095 -0.1424
20075TIP3    H181716   1.552   1.961  14.117  1.3722  0.0224 -2.3009
20075TIP3    H281717   1.495   1.829  14.165  0.4979  1.5870  1.2918
20076TIP3   OH281718   4.818   1.994  11.751  0.2789  0.0971  0.3943
20076TIP3    H181719   4.833   2.002  11.657 -1.4434  1.1112  0.1696
20076TIP3    H281720   4.816   1.900  11.767 -1.2125 -0.1346 -0.9247
20077TIP3   OH281721   6.037   3.679   3.717  0.1460 -0.3500 -0.2615
20077TIP3    H181722   6.124   3.639   3.716  0.6632  0.7434 -0.4998
20077TIP3    H281723   6.041   3.748   3.651 -0.1738  1.1826  1.2380
20078TIP3   OH281724   0.901   6.057   4.786  0.5059  0.3155  0.0553
20078TIP3    H181725   0.941   6.082   4.703 -0.4394  1.0056 -0.2059
20078TIP3    H281726   0.809   6.079   4.776 -0.2958 -2.5695  0.0892
20079TIP3   OH281727   3.255   1.393  11.527  0.2765  0.7169 -0.8835
20079TIP3    H181728   3.294   1.306  11.517  1.9709  1.6033 -2.7017
20079TIP3    H281729   3.321   1.452  11.490 -0.7166  2.8082  0.5606
20080TIP3   OH281730   6.838   3.627  11.037 -0.0128 -0.0404  0.2630
20080TIP3    H181731   6.754   3.636  11.083  0.6255 -0.8847  1.6615
20080TIP3    H281732   6.822   3.663  10.950 -1.4694  0.9948  0.9217
20081TIP3   OH281733   5.033   2.624  16.401 -0.3686 -0.2055  0.4840
20081TIP3    H181734   5.010   2.541  16.361  0.6681  0.2540 -1.1920
20081TIP3    H281735   5.129   2.627  16.397 -0.1597 -0.2393  3.3539
20082TIP3   OH281736   6.033   4.572  16.874 -0.9028 -0.2250  0.3015
20082TIP3    H181737   6.116   4.610  16.902 -0.9080  0.3438 -0.4040
20082TIP3    H281738   5.967   4.615  16.928 -0.6933 -1.1835  1.3452
20083TIP3   OH281739   3.880   6.839  11.513 -0.8300 -0.0180  0.4650
20083TIP3    H181740   3.790   6.830  11.482 -0.9341  0.1573  0.7081
20083TIP3    H281741   3.905   6.928  11.487 -1.5652  0.8474  2.4759
20084TIP3   OH281742   1.966   2.632  15.059  0.1959 -0.4486 -0.3665
20084TIP3    H181743   1.915   2.644  15.140 -0.7174  1.5209 -1.1653
20084TIP3    H281744   1.934   2.550  15.022 -1.0621 -0.2014  0.1149
20085TIP3   OH281745   2.510   1.706   4.270 -0.1041  0.1230 -0.1008
20085TIP3    H181746   2.601   1.714   4.241  1.3022 -2.0391  3.1042
20085TIP3    H281747   2.501   1.771   4.340 -1.3199  0.8335 -0.8790
20086TIP3   OH281748   1.791   6.220  13.907 -0.1918  0.9679  0.1254
20086TIP3    H181749   1.809   6.150  13.970 -1.1271  0.4687 -0.1505
20086TIP3    H281750   1.853   6.289  13.931  0.6987  0.0841  0.4483
20087TIP3   OH281751   6.411   5.384   1.222 -0.1570 -0.4780 -0.0122
20087TIP3    H181752   6.501   5.351   1.216  0.4307  1.2183 -1.0688
20087TIP3    H281753   6.407   5.454   1.158 -2.2482 -0.4898  0.0539
20088TIP3   OH281754   3.123   3.297   1.839 -0.4221  0.3063 -0.0807
20088TIP3    H181755   3.084   3.217   1.876  0.8324  0.8633  2.6717
20088TIP3    H281756   3.066   3.368   1.869  0.2011  0.7158  0.1536
20089TIP3   OH281757   3.011   1.428   4.873 -0.3190 -0.1837 -0.6099
20089TIP3    H181758   3.050   1.389   4.795 -0.0328  0.2758 -0.6992
20089TIP3    H281759   2.945   1.365   4.901 -1.6008  0.4005 -2.1840
20090TIP3   OH281760   6.874   2.681  11.739  0.4663 -0.0587 -0.5090
20090TIP3    H181761   6.938   2.611  11.749  0.6908  0.2557  0.3081
20090TIP3    H281762   6.908   2.736  11.669  1.2804  0.2946  0.1429
20091TIP3   OH281763   1.716   3.678  15.268 -0.1506  0.2849 -0.1800
20091TIP3    H181764   1.646   3.718  15.216 -0.4584 -2.3798 -1.9977
20091TIP3    H281765   1.778   3.645  15.203 -0.7665 -3.6019  0.9859
20092TIP3   OH281766   2.629   5.136   5.393  0.1277 -0.5282 -0.0231
20092TIP3    H181767   2.636   5.201   5.323  1.8138  0.2078  0.7651
20092TIP3    H281768   2.688   5.168   5.461 -3.0872 -0.0264  2.7470
20093TIP3   OH281769   2.708   1.832  12.493  0.6198 -0.0905 -0.0862
20093TIP3    H181770   2.744   1.743  12.489  2.6840  0.6682  0.5486
20093TIP3    H281771   2.645   1.835  12.421  1.3132 -1.7153 -0.8246
20094TIP3   OH281772   3.548   5.787  14.770 -0.8443 -0.1849  0.1296
20094TIP3    H181773   3.552   5.705  14.722  1.3154 -0.4633  0.6707
20094TIP3    H281774   3.538   5.760  14.862 -1.7705  0.2246  0.1552
20095TIP3   OH281775   4.484   2.101   2.412  0.1175 -0.1277 -0.5344
20095TIP3    H181776   4.420   2.136   2.475  0.3538 -0.7638  0.0700
20095TIP3    H281777   4.557   2.071   2.467  1.2259  1.1632 -1.2481
20096TIP3   OH281778   1.862   4.127  15.301 -0.2122  0.2402 -0.4299
20096TIP3    H181779   1.790   4.095  15.247  0.1799 -0.9333 -0.2738
20096TIP3    H281780   1.854   4.078  15.383  0.5148  0.4159 -0.2521
20097TIP3   OH281781   1.037   3.462   1.159  0.0008  0.3690  0.0600
20097TIP3    H181782   1.108   3.482   1.098 -0.3782  2.5588  0.2603
20097TIP3    H281783   0.957   3.488   1.114 -0.3757  1.0122  1.0491
20098TIP3   OH281784   4.856   0.343   1.474  0.2705  0.0911  1.0035
20098TIP3    H181785   4.859   0.280   1.546  1.1964 -0.2307  0.6953
20098TIP3    H281786   4.936   0.394   1.484 -1.2938  2.4810  2.3378
20099TIP3   OH281787   4.370   1.717  12.329  0.4177 -0.2005 -0.0337
20099TIP3    H181788   4.317   1.718  12.249  0.3239  0.3182  0.0323
20099TIP3    H281789   4.364   1.627  12.361  1.0062 -0.5835 -0.9770
20100TIP3   OH281790   2.345   0.856   5.564 -0.3151 -0.1720  1.4859
20100TIP3    H181791   2.264   0.834   5.517  0.1660 -1.3339  1.1638
20100TIP3    H281792   2.358   0.783   5.625  1.6586 -1.2154 -0.0456
20101TIP3   OH281793   4.901   4.413  10.559  0.4591 -0.1233 -0.4327
20101TIP3    H181794   4.959   4.349  10.518  2.4077  0.7148  0.8601
20101TIP3    H281795   4.813   4.377  10.547  1.2369 -1.5962 -2.2259
20102TIP3   OH281796   2.660   0.115   2.378 -0.5730 -0.1324 -0.5747
20102TIP3    H181797   2.594   0.073   2.434 -0.2310 -1.9744 -1.4610
20102TIP3    H281798   2.614   0.132   2.296  0.2354 -2.3846 -1.5688
20103TIP3   OH281799   5.001   4.119  15.003 -0.0017  0.9312  0.1560
20103TIP3    H181800   5.018   4.064  14.927  0.7446  0.7844  0.4174
20103TIP3    H281801   4.908   4.140  14.998  0.0163  0.8122 -0.7169
20104TIP3   OH281802   6.642   3.104  14.316 -0.3096 -0.1233 -0.4956
20104TIP3    H181803   6.560   3.064  14.289 -0.4705 -0.1748  0.0708
20104TIP3    H281804   6.691   3.034  14.359  0.5782 -0.4370 -1.9444
20105TIP3   OH281805   2.679   4.760  16.078  0.3574  0.0738  0.2755
20105TIP3    H181806   2.760   4.776  16.030  1.1689 -1.3934  1.0742
20105TIP3    H281807   2.680   4.823  16.149 -0.5504  1.8473 -1.1926
20106TIP3   OH281808   4.860   5.422  16.655  0.2919 -0.1046 -0.1875
20106TIP3    H181809   4.829   5.498  16.606 -1.1902  0.4572  1.5233
20106TIP3    H281810   4.911   5.460  16.727  0.6661 -0.8084 -0.0788
20107TIP3   OH281811   0.189   1.582   0.229 -0.2309 -0.0472 -0.2011
20107TIP3    H181812   0.225   1.510   0.177 -0.5706 -1.2778  1.1869
20107TIP3    H281813   0.264   1.616   0.277  0.3232  1.8569 -2.2315
20108TIP3   OH281814   0.082   2.410   1.417 -0.3571 -0.5257  0.3085
20108TIP3    H181815   0.073   2.491   1.367  0.2596 -0.9382 -0.4838
20108TIP3    H281816   0.009   2.356   1.387  0.4762 -1.0833 -0.7625
20109TIP3   OH281817   2.106   2.796   1.744  0.2206  0.2405 -0.1457
20109TIP3    H181818   2.193   2.835   1.742  1.3170 -1.9983  0.6310
20109TIP3    H281819   2.099   2.748   1.661  0.1872 -0.4643  0.2558
20110TIP3   OH281820   3.540   6.206  11.443  0.3974 -0.3116  0.3695
20110TIP3    H181821   3.578   6.148  11.377  0.6085  0.2696 -0.0333
20110TIP3    H281822   3.460   6.162  11.471  1.4011 -1.6077  1.3070
20111TIP3   OH281823   2.139   3.129   0.478  0.1072 -0.0849  0.1045
20111TIP3    H181824   2.062   3.076   0.495 -0.2845  0.2498 -0.5885
20111TIP3    H281825   2.196   3.073   0.425 -0.9684  0.6564 -1.9640
20112TIP3   OH281826   1.899   6.147   1.989  0.0546 -0.3228  0.0889
20112TIP3    H181827   1.964   6.081   2.016 -0.7243 -0.5301  1.5480
20112TIP3    H281828   1.815   6.110   2.015 -0.6052  0.3018 -1.0639
20113TIP3   OH281829   6.632   4.624  11.204 -0.0539 -0.1990 -0.3351
20113TIP3    H181830   6.688   4.574  11.264 -2.7320 -0.7577  1.8932
20113TIP3    H281831   6.684   4.633  11.124  3.8245  0.7171  2.0371
20114TIP3   OH281832   3.086   5.648   1.352  0.5130  0.1771  0.1692
20114TIP3    H181833   2.995   5.680   1.348 -0.1557 -1.5960  0.2283
20114TIP3    H281834   3.092   5.603   1.436  1.0052 -0.9091 -0.4252
20115TIP3   OH281835   1.061   5.944  16.446 -0.0349  0.5533 -0.6728
20115TIP3    H181836   1.144   5.904  16.421 -0.1523  1.2763 -2.3683
20115TIP3    H281837   0.996   5.896  16.395 -0.4059  1.4124 -1.0279
20116TIP3   OH281838   3.503   0.461  15.430 -0.0240  0.1265  0.0729
20116TIP3    H181839   3.598   0.452  15.441  0.2714  0.4106 -1.8725
20116TIP3    H281840   3.485   0.551  15.458  0.2214 -0.0257  0.7431
20117TIP3   OH281841   1.802   4.336  16.294 -0.5549 -0.5505  0.5372
20117TIP3    H181842   1.748   4.363  16.368  1.8301  1.1520  1.8128
20117TIP3    H281843   1.839   4.252  16.320  1.9037  0.9634  2.3902
20118TIP3   OH281844   5.121   3.132   3.569  0.1902 -0.8761  0.2267
20118TIP3    H181845   5.098   3.225   3.573  1.9177 -0.4087  0.2787
20118TIP3    H281846   5.093   3.096   3.653 -2.1660 -0.8628 -0.4841
20119TIP3   OH281847   2.039   4.873   4.815  0.4038 -0.3310  0.3641
20119TIP3    H181848   2.127   4.834   4.812  0.2265 -0.9077  1.9304
20119TIP3    H281849   2.052   4.957   4.858  0.0880 -0.8138  1.4524
20120TIP3   OH281850   3.299   3.763  13.122 -0.3905  0.8487  0.2069
20120TIP3    H181851   3.239   3.805  13.060  0.8280  1.6715 -0.4558
20120TIP3    H281852   3.354   3.707  13.068  0.5794  1.4474  0.5388
20121TIP3   OH281853   6.015   6.273   0.045 -0.8705  0.5087  0.1306
20121TIP3    H181854   5.931   6.240   0.014 -1.4725  0.8001  1.3840
20121TIP3    H281855   5.992   6.336   0.114  0.3521  1.1405 -0.0169
20122TIP3   OH281856   3.041   4.949   1.457  0.0230 -0.0498  0.1679
20122TIP3    H181857   2.955   4.951   1.416  0.3049 -0.9618 -0.4991
20122TIP3    H281858   3.023   4.955   1.551 -0.8196 -0.9871  0.0859
20123TIP3   OH281859   4.143   6.731   5.031 -0.1238 -0.6721  0.3369
20123TIP3    H181860   4.217   6.674   5.051  0.0504  0.3040  2.8285
20123TIP3    H281861   4.182   6.815   5.008 -0.4291 -0.2868  1.1866
20124TIP3   OH281862   5.372   5.122   0.041 -0.0965  0.2107 -0.2370
20124TIP3    H181863   5.361   5.217   0.051  1.0169  0.8379 -3.6298
20124TIP3    H281864   5.462   5.105   0.069 -0.5295 -0.0343  1.0824
20125TIP3   OH281865   3.826   0.710   5.893  0.6085  0.6191 -0.4811
20125TIP3    H181866   3.818   0.700   5.798 -2.6585 -1.0460 -0.1765
20125TIP3    H281867   3.876   0.634   5.922 -0.2583 -0.0596 -0.7230
20126TIP3   OH281868   5.782   0.656   1.390 -0.1555 -0.1708  0.3029
20126TIP3    H181869   5.714   0.709   1.347  1.0552  1.2035  0.0038
20126TIP3    H281870   5.860   0.711   1.388  0.6482 -1.1824  1.8221
20127TIP3   OH281871   5.247   2.778  15.746 -0.1688  0.2077 -0.1077
20127TIP3    H181872   5.227   2.774  15.653 -2.9123  2.6333  0.2284
20127TIP3    H281873   5.297   2.698  15.763  0.9958 -0.0072 -3.7184
20128TIP3   OH281874   6.063   6.833   3.158 -0.0673  0.3724  0.2446
20128TIP3    H181875   6.040   6.817   3.249  1.5291 -1.7897  0.3457
20128TIP3    H281876   6.006   6.773   3.108 -2.3485  2.9121 -0.4463
20129TIP3   OH281877   4.734   5.160  15.065 -0.4119 -0.5154 -0.5170
20129TIP3    H181878   4.824   5.130  15.074 -0.2286 -0.3880 -1.8572
20129TIP3    H281879   4.741   5.253  15.042 -0.9633  0.4208  2.5404
20130TIP3   OH281880   3.277   2.330  11.484  0.0109  0.3208 -0.3129
20130TIP3    H181881   3.358   2.290  11.455 -1.2137 -2.1383 -0.6421
20130TIP3    H281882   3.232   2.356  11.404  0.2281  1.2220 -0.1555
20131TIP3   OH281883   4.107   4.440  11.368 -0.4241 -0.1660 -0.0501
20131TIP3    H181884   4.110   4.466  11.460  0.0823 -0.1341 -0.0730
20131TIP3    H281885   4.117   4.345  11.369 -1.0610 -0.2350 -0.0363
20132TIP3   OH281886   6.306   2.736  14.737  0.1944 -0.4454 -0.0441
20132TIP3    H181887   6.247   2.808  14.759 -1.8673 -1.1846 -2.7537
20132TIP3    H281888   6.378   2.778  14.690  0.2472  0.0981  0.5086
20133TIP3   OH281889   1.678   4.827  13.552  0.2923 -0.8552  0.2112
20133TIP3    H181890   1.591   4.866  13.563  0.2970 -0.8853  0.3598
20133TIP3    H281891   1.688   4.815  13.458  0.3827 -0.2851  0.1442
20134TIP3   OH281892   2.560   0.640  12.704  0.1663  0.0072  0.0162
20134TIP3    H181893   2.550   0.699  12.779  0.3654  1.3977 -1.0066
20134TIP3    H281894   2.588   0.557  12.742 -1.8134  0.0247  1.6819
20135TIP3   OH281895   1.647   6.039   2.034  0.2317  0.5967 -0.4034
20135TIP3    H181896   1.651   5.957   2.082  0.6198  1.2050  0.6437
20135TIP3    H281897   1.569   6.031   1.978 -0.1297 -0.2017  0.2058
20136TIP3   OH281898   5.306   0.470   6.260 -0.0408  0.3082 -0.2265
20136TIP3    H181899   5.241   0.538   6.243 -0.6615 -0.8764 -3.0144
20136TIP3    H281900   5.390   0.514   6.246 -0.3712  0.9183 -0.3254
20137TIP3   OH281901   0.563   5.793  11.125  0.1962 -0.2736 -0.2281
20137TIP3    H181902   0.486   5.838  11.092  0.1521 -0.9259 -1.0419
20137TIP3    H281903   0.597   5.744  11.050  1.0911 -0.4256  0.2563
20138TIP3   OH281904   0.633   6.169   2.004  0.2618 -0.2900  0.6920
20138TIP3    H181905   0.554   6.218   1.981  1.4340  1.2192 -0.2859
20138TIP3    H281906   0.625   6.086   1.957 -1.3900 -0.7791  1.7528
20139TIP3   OH281907   0.910   6.764  17.010  0.2031  0.4776 -0.2256
20139TIP3    H181908   0.879   6.769  17.100  1.1343  1.4644  0.0603
20139TIP3    H281909   0.915   6.855  16.980  1.5097  0.2823 -0.6919
20140TIP3   OH281910   1.240   1.569   2.884 -0.0316 -0.3619  0.6668
20140TIP3    H181911   1.311   1.551   2.822 -0.2341 -2.4981  0.9808
20140TIP3    H281912   1.252   1.661   2.908  1.4402 -0.1339 -0.7666
20141TIP3   OH281913   5.463   0.040  16.807  0.4295  0.3800  0.1912
20141TIP3    H181914   5.548   0.064  16.769  0.6832 -0.7568  0.0246
20141TIP3    H281915   5.400   0.098  16.764  0.7584 -0.5996 -1.7064
20142TIP3   OH281916   3.720   2.181   0.313  0.4227  0.2049 -0.0634
20142TIP3    H181917   3.798   2.150   0.266  0.6880  0.3103  0.3012
20142TIP3    H281918   3.647   2.163   0.254  0.6159 -0.7412 -0.0281
20143TIP3   OH281919   0.915   0.572  14.701 -0.0647 -0.3005  0.2582
20143TIP3    H181920   0.921   0.541  14.610 -0.9742 -0.0014  0.0905
20143TIP3    H281921   0.844   0.520  14.739  1.0586 -1.2432  1.1462
20144TIP3   OH281922   4.172   0.108   3.263  0.4803 -0.0901 -0.0295
20144TIP3    H181923   4.222   0.065   3.193 -0.1804 -1.3957  0.2595
20144TIP3    H281924   4.090   0.059   3.267 -0.4031  1.3469  0.2133
20145TIP3   OH281925   5.706   6.445   1.767 -0.2487  0.2624 -0.3432
20145TIP3    H181926   5.793   6.417   1.737 -0.6446 -0.8766 -0.4666
20145TIP3    H281927   5.698   6.409   1.855  0.2458  2.2077  0.5492
20146TIP3   OH281928   5.735   3.439  14.019 -0.0346  0.0923  0.1157
20146TIP3    H181929   5.701   3.354  14.048 -1.1211  0.4569 -0.0622
20146TIP3    H281930   5.774   3.478  14.097 -0.5463 -0.0839  0.4581
20147TIP3   OH281931   1.821   2.560  12.566 -0.7371 -0.1324  0.0500
20147TIP3    H181932   1.829   2.471  12.602 -0.5177 -0.1318  0.0081
20147TIP3    H281933   1.805   2.615  12.643 -0.1870 -0.1199  0.1631
20148TIP3   OH281934   2.777   5.486   1.432 -0.2140 -0.3151  0.5082
20148TIP3    H181935   2.804   5.517   1.519 -2.9573  1.0422  0.9764
20148TIP3    H281936   2.741   5.564   1.389  0.6620 -1.0660 -1.7159
20149TIP3   OH281937   5.506   4.693   1.081  0.5318  0.5856 -0.4831
20149TIP3    H181938   5.579   4.721   1.137 -0.1666  1.0351  0.2198
20149TIP3    H281939   5.432   4.747   1.109 -0.1637 -0.1040 -0.9506
20150TIP3   OH281940   6.543   5.921   4.827  0.7927  0.4324 -1.0496
20150TIP3    H181941   6.558   6.007   4.788 -0.9496  0.6775 -1.2355
20150TIP3    H281942   6.631   5.884   4.838  1.6675  2.6494  0.0102
20151TIP3   OH281943   2.155   2.949   3.643  0.8723 -0.4583  0.2191
20151TIP3    H181944   2.146   2.854   3.656 -2.9071 -0.3301 -0.1400
20151TIP3    H281945   2.068   2.977   3.616  1.5450  3.3184  1.3730
20152TIP3   OH281946   4.403   0.757   1.552 -0.5189 -0.0318 -0.5878
20152TIP3    H181947   4.308   0.769   1.548 -0.4693  0.1719 -1.2063
20152TIP3    H281948   4.416   0.691   1.620 -1.1356 -0.3696 -0.7920
20153TIP3   OH281949   5.001   4.669  11.468 -0.0968  0.2624  0.2097
20153TIP3    H181950   5.007   4.707  11.380 -0.1736  0.0297  0.1053
20153TIP3    H281951   5.056   4.591  11.464 -0.5816 -0.0832  0.1924
20154TIP3   OH281952   6.150   3.510   6.602  0.0905  0.1187  0.0530
20154TIP3    H181953   6.105   3.450   6.543  1.9062  0.5412 -1.8910
20154TIP3    H281954   6.243   3.500   6.581  0.5985  2.2723  0.9304
20155TIP3   OH281955   0.081   1.569   5.312  0.4313 -0.0456  0.1925
20155TIP3    H181956   0.105   1.487   5.268  1.8360  0.5853 -0.2589
20155TIP3    H281957   0.136   1.571   5.390 -0.2118  0.0746  0.6473
20156TIP3   OH281958   0.812   4.488  12.960 -0.3043  0.3930 -0.2129
20156TIP3    H181959   0.811   4.393  12.959  1.1704  0.3126  1.2629
20156TIP3    H281960   0.869   4.512  12.887 -0.3161  0.1349 -0.3083
20157TIP3   OH281961   3.927   5.475  14.527 -0.2060 -0.1834  0.5859
20157TIP3    H181962   3.895   5.397  14.481 -2.2165  0.6787  0.4348
20157TIP3    H281963   3.991   5.441  14.590 -2.0928 -2.1860  1.5514
20158TIP3   OH281964   6.560   4.761  14.783  0.3384 -0.5250 -0.8354
20158TIP3    H181965   6.468   4.734  14.785 -0.0427  0.7059  1.1401
20158TIP3    H281966   6.609   4.680  14.792 -0.6763 -0.9903  1.3510
20159TIP3   OH281967   4.532   4.671  11.470  0.0014 -0.0432  0.5319
20159TIP3    H181968   4.468   4.602  11.451  0.6130 -0.2137 -1.0591
20159TIP3    H281969   4.560   4.702  11.384  0.3822  1.6091  1.2164
20160TIP3   OH281970   5.918   5.400   3.291  0.1257  0.5824 -0.1107
20160TIP3    H181971   5.852   5.348   3.246  0.8158  1.4318 -2.2126
20160TIP3    H281972   5.999   5.385   3.242  0.9038  1.6018  0.8111
20161TIP3   OH281973   5.975   5.207  11.740  0.3446 -0.0281  0.6014
20161TIP3    H181974   5.899   5.221  11.683  0.2321 -1.1248  0.4608
20161TIP3    H281975   6.015   5.293  11.749 -0.7754  0.5209  0.4712
20162TIP3   OH281976   3.580   2.875   4.982 -0.2977 -0.5806 -0.0244
20162TIP3    H181977   3.516   2.810   4.953 -2.1972  1.3058 -0.2737
20162TIP3    H281978   3.598   2.851   5.073  0.8828 -2.8059 -0.7656
20163TIP3   OH281979   1.009   3.621  17.003 -0.1945  0.1293 -0.0965
20163TIP3    H181980   1.013   3.527  17.020 -0.2619  0.4756  2.2204
20163TIP3    H281981   1.100   3.647  16.989  0.0596 -0.0172  1.1478
20164TIP3   OH281982   6.419   6.129   2.735  0.0867  0.0450  0.3608
20164TIP3    H181983   6.416   6.222   2.756  1.5445  0.1276  0.3150
20164TIP3    H281984   6.474   6.124   2.657 -1.8484 -0.6572 -1.0417
20165TIP3   OH281985   0.523   0.892  13.068 -0.6031 -0.2197  0.0563
20165TIP3    H181986   0.574   0.972  13.078 -1.4779  0.7427 -2.3865
20165TIP3    H281987   0.588   0.826  13.044 -0.2168  0.5165 -1.0226
20166TIP3   OH281988   5.722   0.328   2.181 -0.2101  0.2704  0.2662
20166TIP3    H181989   5.715   0.318   2.276  1.3349  1.8287  0.5958
20166TIP3    H281990   5.768   0.411   2.169 -1.9282  1.0013 -1.9063
20167TIP3   OH281991   0.247   1.659  11.731  0.5257 -0.0990 -0.0143
20167TIP3    H181992   0.321   1.612  11.769  0.1674 -1.1689 -0.5807
20167TIP3    H281993   0.186   1.669  11.804  0.4203 -0.9387  0.0317
20168TIP3   OH281994   1.084   6.836  13.001  0.4207  0.5762  0.7102
20168TIP3    H181995   1.026   6.843  13.077  0.0290  0.9149  0.3806
20168TIP3    H281996   1.025   6.827  12.927  0.7231 -3.3018  0.7054
20169TIP3   OH281997   1.565   3.070   0.266 -0.2664  0.7801 -1.2056
20169TIP3    H181998   1.598   3.103   0.182  1.5735  1.5041 -0.2592
20169TIP3    H281999   1.539   3.149   0.314  1.4604  0.6994 -0.0242
20170TIP3   OH282000   3.870   0.207   3.237 -0.6264 -0.8104 -0.3996
20170TIP3    H182001   3.900   0.177   3.151  2.2627 -1.3935  0.6936
20170TIP3    H282002   3.869   0.128   3.291 -0.9242 -0.2098  0.4912
20171TIP3   OH282003   2.724   4.045   0.583  0.2562 -0.4243 -0.1674
20171TIP3    H182004   2.727   3.958   0.543  2.7957 -0.9838  1.0765
20171TIP3    H282005   2.776   4.100   0.525 -1.9250  0.5532 -1.3432
20172TIP3   OH282006   5.978   2.627  13.431 -0.0956 -0.5601 -0.2200
20172TIP3    H182007   5.991   2.715  13.468  0.7624 -1.5390  2.0055
20172TIP3    H282008   5.884   2.621  13.416  0.0053  1.3250 -2.1348
20173TIP3   OH282009   4.084   1.913   1.536 -0.2948  0.1442  0.4243
20173TIP3    H182010   4.125   1.829   1.552 -1.1576 -0.4582 -0.3815
20173TIP3    H282011   4.030   1.898   1.458 -0.0321  1.5865 -0.0638
20174TIP3   OH282012   2.867   6.368  14.984 -0.2581  0.1434 -0.1300
20174TIP3    H182013   2.913   6.307  14.926  0.9521 -0.7721  1.6865
20174TIP3    H282014   2.774   6.345  14.974 -0.1631  0.4355 -2.1093
20175TIP3   OH282015   4.667   3.544  16.648  0.0693  0.4458 -0.1513
20175TIP3    H182016   4.604   3.525  16.717  1.1954  1.0481  1.0777
20175TIP3    H282017   4.743   3.491  16.670 -0.0802 -0.5474 -1.8146
20176TIP3   OH282018   3.585   6.249   3.894  1.0626 -0.5637 -0.3754
20176TIP3    H182019   3.646   6.184   3.929  0.5571 -0.1147  1.4424
20176TIP3    H282020   3.511   6.248   3.956  1.3330  2.1797  0.1098
20177TIP3   OH282021   4.263   1.746  11.370  0.0766 -0.4671 -0.3091
20177TIP3    H182022   4.258   1.676  11.305 -0.1196  0.1308 -0.9452
20177TIP3    H282023   4.264   1.700  11.454 -0.0494 -1.2315 -0.7162
20178TIP3   OH282024   6.451   4.161  14.726  0.3078 -0.5319 -0.0253
20178TIP3    H182025   6.424   4.091  14.785  1.4897 -0.1033  1.0721
20178TIP3    H282026   6.513   4.120  14.667  1.1842 -0.3759  0.7703
20179TIP3   OH282027   0.630   2.089   5.903 -0.4927  0.5172  0.4047
20179TIP3    H182028   0.723   2.083   5.880 -0.7988 -1.2788 -0.5260
20179TIP3    H282029   0.621   2.035   5.981 -0.8451  0.1939  0.1458
20180TIP3   OH282030   0.208   3.529   1.014 -0.0895  0.5071 -0.1172
20180TIP3    H182031   0.248   3.443   1.028  0.2930  0.6302 -0.4387
20180TIP3    H282032   0.114   3.511   1.010 -0.0775  0.2167  0.6352
20181TIP3   OH282033   1.600   4.333   5.068 -0.1733 -0.3357  0.1348
20181TIP3    H182034   1.627   4.286   5.147  0.0493 -2.1708 -0.9506
20181TIP3    H282035   1.527   4.388   5.095 -1.2163 -2.1798  1.3288
20182TIP3   OH282036   5.024   0.489  10.682 -0.1259  0.1189  0.2126
20182TIP3    H182037   5.113   0.520  10.698 -0.6833  0.5367  2.9518
20182TIP3    H282038   5.000   0.527  10.597  1.7365  1.2973  0.1606
20183TIP3   OH282039   5.547   0.203  12.463 -0.4050  0.5806  0.1329
20183TIP3    H182040   5.596   0.122  12.452 -2.1993 -0.2721 -2.9579
20183TIP3    H282041   5.580   0.261  12.395  0.3483  2.2711  1.8390
20184TIP3   OH282042   0.379   2.393   4.780 -0.1120  0.1943 -0.4286
20184TIP3    H182043   0.382   2.459   4.849  0.0124 -0.8974  0.6471
20184TIP3    H282044   0.287   2.385   4.757 -0.3774 -0.5992  0.8078
20185TIP3   OH282045   3.053   0.326  11.656 -0.2015 -0.4256  0.7300
20185TIP3    H182046   3.092   0.298  11.739  1.1473  1.8261  0.9221
20185TIP3    H282047   2.976   0.377  11.682  1.3085  1.9744  0.7975
20186TIP3   OH282048   0.004   2.351  14.133 -0.1691  0.1316 -0.4442
20186TIP3    H182049   0.052   2.411  14.077 -0.2269  0.9135  0.3151
20186TIP3    H282050  -0.079   2.336  14.087  0.8484 -1.4091 -1.8676
20187TIP3   OH282051   3.838   3.398   5.280  0.5607  0.2404 -0.5652
20187TIP3    H182052   3.755   3.424   5.320  0.6898 -0.1316 -0.0497
20187TIP3    H282053   3.898   3.470   5.299 -0.0622  1.2970 -2.3636
20188TIP3   OH282054   0.760   1.676  15.083  0.4532 -0.2886 -0.0618
20188TIP3    H182055   0.782   1.583  15.091 -0.7378 -0.6478 -0.6804
20188TIP3    H282056   0.761   1.709  15.172  0.2574 -1.0467  0.2233
20189TIP3   OH282057   0.044   6.614   2.896 -0.4992 -0.3174 -0.1535
20189TIP3    H182058   0.009   6.621   2.985 -1.5203  1.7142 -0.6535
20189TIP3    H282059   0.013   6.528   2.865 -1.1242 -0.5468  1.0510
20190TIP3   OH282060   2.396   2.061  13.537  0.2517 -0.2205  0.1148
20190TIP3    H182061   2.329   2.042  13.602  1.2012 -0.0604  1.1941
20190TIP3    H282062   2.415   2.155  13.550  0.4704 -0.1993 -0.3611
20191TIP3   OH282063   3.030   4.338  10.158 -0.1541 -0.4304  0.6096
20191TIP3    H182064   3.013   4.245  10.142  2.1343 -0.5309 -2.1097
20191TIP3    H282065   3.126   4.344  10.166 -0.0521  1.8856 -1.3070
20192TIP3   OH282066   4.033   2.514   3.562  0.2890 -0.4244  0.6312
20192TIP3    H182067   3.991   2.488   3.480  1.3937 -0.4480  0.0490
20192TIP3    H282068   4.100   2.447   3.577 -0.0689 -0.5605  1.6983
20193TIP3   OH282069   0.718   4.581  12.051  0.5446 -0.0452  0.8580
20193TIP3    H182070   0.687   4.555  12.138  0.0163 -2.1578  0.0815
20193TIP3    H282071   0.786   4.518  12.029  0.7664  0.5468 -0.2263
20194TIP3   OH282072   4.791   2.152  16.617  0.2489  0.3177 -0.2939
20194TIP3    H182073   4.712   2.196  16.587 -0.0911  0.8779  1.2941
20194TIP3    H282074   4.858   2.220  16.618 -0.0880  0.6769  1.4388
20195TIP3   OH282075   3.098   2.981   2.411  0.2933  0.0968  0.3189
20195TIP3    H182076   3.026   2.923   2.386 -0.3735  1.5152 -1.2379
20195TIP3    H282077   3.126   2.949   2.496 -1.6883 -0.9672  0.6279
20196TIP3   OH282078   4.903   5.473   5.294 -0.4436  0.2844  0.1858
20196TIP3    H182079   4.942   5.436   5.373 -0.0340 -1.2583 -0.6999
20196TIP3    H282080   4.830   5.415   5.275 -1.7587  1.7691  0.4796
20197TIP3   OH282081   2.621   0.489  16.191  0.1389  0.9727 -0.3666
20197TIP3    H182082   2.624   0.500  16.286 -1.1706  0.8130 -0.2928
20197TIP3    H282083   2.712   0.502  16.163  0.7139  0.1263  0.9952
20198TIP3   OH282084   4.699   0.903   1.725  0.1982 -0.2506  0.0425
20198TIP3    H182085   4.640   0.954   1.779  0.2301  1.1313 -1.1755
20198TIP3    H282086   4.672   0.922   1.635  1.6814 -0.5772 -0.5044
20199TIP3   OH282087   2.565   4.359  11.270 -0.0996 -0.6559  0.5929
20199TIP3    H182088   2.591   4.274  11.307  0.2197  0.0734  2.1367
20199TIP3    H282089   2.573   4.420  11.343 -2.0489  0.4035 -0.0218
20200TIP3   OH282090   2.029   5.583  10.307 -0.2442  0.3885 -0.4630
20200TIP3    H182091   2.046   5.512  10.369  0.9651  1.4172  0.4312
20200TIP3    H282092   1.952   5.553  10.258 -0.9352 -0.7035  1.1666
20201TIP3   OH282093   5.201   2.153   1.613  0.0039  0.5791 -0.5328
20201TIP3    H182094   5.190   2.060   1.592 -0.1866  0.6086 -0.5647
20201TIP3    H282095   5.190   2.158   1.707  0.3483  0.5210 -0.4885
20202TIP3   OH282096   3.420   0.726  15.481 -0.3235 -0.5402 -0.4375
20202TIP3    H182097   3.332   0.737  15.518  0.0382 -1.5312  0.7625
20202TIP3    H282098   3.476   0.783  15.534  0.1039 -1.5535  0.2442
20203TIP3   OH282099   4.630   1.513  15.782  0.0272  0.1434  0.8697
20203TIP3    H182100   4.547   1.521  15.829  1.4698 -0.6101  3.8036
20203TIP3    H282101   4.687   1.578  15.823  1.4324 -0.6672  0.2689
20204TIP3   OH282102   4.607   0.442   4.662  0.0906  0.5418  0.2611
20204TIP3    H182103   4.567   0.389   4.593  0.8741 -0.1904  0.3633
20204TIP3    H282104   4.611   0.384   4.738  1.2905  0.6150  0.2729
20205TIP3   OH282105   1.983   6.535  11.675 -0.4362  0.3018  0.3709
20205TIP3    H182106   1.985   6.461  11.614  1.4156  0.4571  0.1925
20205TIP3    H282107   1.941   6.605  11.626  0.4373  0.2272 -0.5165
20206TIP3   OH282108   6.376   0.444   2.522  0.6165  0.2384 -0.3949
20206TIP3    H182109   6.371   0.497   2.443 -0.4956  1.2317  0.3144
20206TIP3    H282110   6.293   0.396   2.525  1.0130 -0.4523 -0.2743
20207TIP3   OH282111   5.486   2.933  16.276  0.2008 -0.2368 -0.5981
20207TIP3    H182112   5.575   2.918  16.308 -0.7048 -0.6769  1.9670
20207TIP3    H282113   5.470   2.858  16.218  1.7952  0.3766 -1.9258
20208TIP3   OH282114   3.676   5.973  13.978  0.3111 -0.2924  0.4214
20208TIP3    H182115   3.697   6.061  13.945  0.9459 -0.6048 -0.0273
20208TIP3    H282116   3.719   5.968  14.064  0.5729 -0.2850  0.2922
20209TIP3   OH282117   0.675   4.434   0.999 -0.2792  0.3997  0.1245
20209TIP3    H182118   0.617   4.505   1.027 -0.6938 -0.2841  1.0554
20209TIP3    H282119   0.671   4.436   0.904 -1.8188  0.3839  0.1646
20210TIP3   OH282120   0.947   1.816  16.410 -0.4687  0.3639  0.0694
20210TIP3    H182121   0.877   1.817  16.476 -0.3457  0.9220  0.1958
20210TIP3    H282122   0.942   1.729  16.371 -0.7626  0.1465  0.5849
20211TIP3   OH282123   6.151   2.800  16.564  0.1699 -0.4196  0.3316
20211TIP3    H182124   6.191   2.756  16.489 -0.5294  0.5754 -0.6596
20211TIP3    H282125   6.140   2.731  16.630  0.1677 -1.4575 -0.7373
20212TIP3   OH282126   1.936   6.879   2.608 -0.5023  0.3969  0.2744
20212TIP3    H182127   1.887   6.831   2.675 -0.9845 -0.9948 -1.0157
20212TIP3    H282128   1.960   6.812   2.544  0.9695  1.4853 -0.3583
20213TIP3   OH282129   2.648   5.317   0.474 -0.0183  0.8796 -0.1051
20213TIP3    H182130   2.734   5.276   0.464  0.6699  1.4785  2.4525
20213TIP3    H282131   2.656   5.371   0.553 -3.3760 -0.8465  1.6623
20214TIP3   OH282132   2.873   0.466  12.620 -0.4439 -1.0362  0.2012
20214TIP3    H182133   2.955   0.437  12.581 -0.2182  0.9226 -0.9047
20214TIP3    H282134   2.898   0.538  12.678 -1.0573 -2.4495  2.3153
20215TIP3   OH282135   4.732   0.659  16.018 -0.3834 -0.3406 -0.1395
20215TIP3    H182136   4.786   0.694  15.948 -2.8774  1.5487 -1.2925
20215TIP3    H282137   4.769   0.572  16.037  1.3347 -0.2447 -2.6496
20216TIP3   OH282138   6.207   3.795  14.562  0.2137  0.4786  0.2901
20216TIP3    H182139   6.126   3.781  14.513 -0.4545  0.4085  1.3698
20216TIP3    H282140   6.234   3.708  14.590  0.9490  0.4449 -0.4710
20217TIP3   OH282141   5.018   6.743   3.507 -0.5836 -0.0195  0.5504
20217TIP3    H182142   4.990   6.652   3.496  0.8014 -0.5269  1.0368
20217TIP3    H282143   4.955   6.794   3.456 -1.6098 -1.2091  0.5850
20218TIP3   OH282144   6.865   0.108  12.292 -0.4554  0.7967  0.5059
20218TIP3    H182145   6.950   0.070  12.270 -0.6218 -0.4930  1.8823
20218TIP3    H282146   6.801   0.040  12.268 -0.8766  0.7460  1.6707
20219TIP3   OH282147   6.318   1.201   2.192  0.4220  0.3111 -0.1395
20219TIP3    H182148   6.341   1.113   2.162 -0.2846 -0.7516  2.2601
20219TIP3    H282149   6.402   1.246   2.199  0.7454  0.0993 -2.0132
20220TIP3   OH282150   5.075   1.371   2.475  0.3023 -0.4001  0.2810
20220TIP3    H182151   5.022   1.448   2.454 -1.0629 -1.4668 -0.3446
20220TIP3    H282152   5.158   1.386   2.431 -0.8288 -0.4012 -1.9858
20221TIP3   OH282153   2.611   3.779  15.915 -0.0346  0.3229  0.0369
20221TIP3    H182154   2.702   3.801  15.935  0.6827 -1.3186 -1.1709
20221TIP3    H282155   2.571   3.861  15.886  0.9589  1.1200  0.8611
20222TIP3   OH282156   3.736   6.499   3.254 -0.4297  0.2947 -0.0373
20222TIP3    H182157   3.782   6.437   3.198  1.5904  2.2623 -0.7109
20222TIP3    H282158   3.790   6.505   3.333 -0.8288  0.8353  0.2030
20223TIP3   OH282159   6.774   3.273   3.251 -0.0170  0.7036 -0.2059
20223TIP3    H182160   6.844   3.263   3.187 -0.3257  0.3942 -0.4997
20223TIP3    H282161   6.713   3.201   3.231  0.5226 -0.2123  1.2524
20224TIP3   OH282162   3.447   3.733   3.749  1.0302  0.0345  0.3450
20224TIP3    H182163   3.395   3.751   3.827 -0.5076  0.3416 -0.7108
20224TIP3    H282164   3.538   3.746   3.777  0.4949  0.4967  1.9711
20225TIP3   OH282165   5.374   6.612   0.785 -0.6599 -0.1707  0.1521
20225TIP3    H182166   5.315   6.683   0.811  0.3099  0.2231  1.3661
20225TIP3    H282167   5.383   6.622   0.690 -1.3782  0.6716  0.1607
20226TIP3   OH282168   2.811   6.097  14.074 -0.0935 -0.0328  0.0587
20226TIP3    H182169   2.783   6.007  14.062  0.1499 -0.1133  0.0829
20226TIP3    H282170   2.783   6.143  13.995 -2.8171  0.5389  1.2333
20227TIP3   OH282171   3.238   4.979   5.280 -0.0114 -0.7377 -0.2700
20227TIP3    H182172   3.211   5.012   5.194 -3.0364 -0.2518  0.7294
20227TIP3    H282173   3.221   5.052   5.339  0.1623 -1.6979  0.9886
20228TIP3   OH282174   2.916   3.122   0.415  0.4344  0.5703  0.3600
20228TIP3    H182175   2.871   3.140   0.333  1.1379  0.2066 -0.1146
20228TIP3    H282176   2.900   3.200   0.469 -1.8771 -0.0987  0.7348
20229TIP3   OH282177   0.760   5.648   4.954 -0.6786 -0.4752  0.2194
20229TIP3    H182178   0.702   5.652   4.879  0.9968 -2.9773 -1.3347
20229TIP3    H282179   0.825   5.717   4.937  0.3805 -1.7913 -1.3283
20230TIP3   OH282180   3.421   0.122   4.072 -0.2091  0.1440  0.2975
20230TIP3    H182181   3.354   0.060   4.042 -0.3083  0.1022  0.6044
20230TIP3    H282182   3.444   0.171   3.993 -2.6747  2.1314  0.6771
20231TIP3   OH282183   3.382   6.246   4.087  0.2767  0.0679  0.4069
20231TIP3    H182184   3.425   6.191   4.152  0.2882  1.0257  1.2345
20231TIP3    H282185   3.288   6.230   4.100  0.2342  0.9376  1.3082
20232TIP3   OH282186   4.060   1.745   0.799 -1.2253  0.2437  0.0460
20232TIP3    H182187   4.124   1.726   0.730  0.0729  0.8447  1.0450
20232TIP3    H282188   3.975   1.735   0.756 -0.5123 -1.6445 -1.0374
20233TIP3   OH282189   3.240   4.813   0.743 -0.2619 -0.2615 -0.2518
20233TIP3    H182190   3.217   4.894   0.788  2.5069 -0.3840  1.6204
20233TIP3    H282191   3.191   4.745   0.790 -2.5920  0.2048 -1.8304
20234TIP3   OH282192   4.872   2.403   5.054 -0.2180  0.0376 -0.1937
20234TIP3    H182193   4.838   2.493   5.054  1.7438  0.8218 -0.3015
20234TIP3    H282194   4.862   2.374   5.145 -2.7028 -0.4295 -0.5420
20235TIP3   OH282195   5.410   2.422   4.010  0.3898  0.4410  0.2780
20235TIP3    H182196   5.383   2.438   3.920  0.1424 -0.6251  0.1485
20235TIP3    H282197   5.362   2.487   4.061  0.1758  0.7514 -0.3157
20236TIP3   OH282198   0.013   3.619   1.246 -0.1238  0.5307 -0.8595
20236TIP3    H182199  -0.007   3.597   1.337 -1.9050  0.5192 -1.2096
20236TIP3    H282200   0.050   3.539   1.209  3.2327  1.3030  0.4929
20237TIP3   OH282201   5.049   0.705  15.236 -0.1473  0.2388 -0.2292
20237TIP3    H182202   5.000   0.625  15.218 -0.3731  0.2323  0.4039
20237TIP3    H282203   4.995   0.753  15.298 -0.7477  1.5997 -1.7161
20238TIP3   OH282204   4.335   6.355  10.977  0.2168 -0.0365  0.3590
20238TIP3    H182205   4.407   6.332  11.036 -1.6931 -0.9728  2.4720
20238TIP3    H282206   4.280   6.415  11.028 -0.8511  0.1424 -0.9391
20239TIP3   OH282207   2.067   4.424  14.306  0.3815 -0.0108 -0.0397
20239TIP3    H182208   2.039   4.354  14.247 -0.7373  1.0999 -0.8817
20239TIP3    H282209   2.072   4.382  14.392 -0.6444 -1.0389 -0.4572
20240TIP3   OH282210   3.155   4.258  13.137  0.4720 -0.6811  0.6527
20240TIP3    H182211   3.201   4.186  13.094 -0.9641 -0.9584 -0.4711
20240TIP3    H282212   3.104   4.300  13.068  0.1001  0.4870  1.5892
20241TIP3   OH282213   4.073   6.188   0.846  0.7524 -0.2684 -0.3715
20241TIP3    H182214   4.031   6.104   0.828  0.7366 -0.3467  0.0236
20241TIP3    H282215   4.003   6.243   0.882  1.0621 -0.5151  0.6381
20242TIP3   OH282216   2.934   0.947   5.548  0.0564  0.9092  0.4321
20242TIP3    H182217   2.870   0.991   5.604 -1.0061  1.6615 -1.2832
20242TIP3    H282218   3.007   1.009   5.543  0.2718  0.7261  1.1649
20243TIP3   OH282219   0.821   0.344  14.854 -0.2617 -0.5142 -0.0711
20243TIP3    H182220   0.780   0.324  14.769  0.0929  3.3677 -1.3480
20243TIP3    H282221   0.748   0.354  14.914 -0.8891  0.7486 -0.9827
20244TIP3   OH282222   0.320   1.590   3.403 -0.2176  0.4824  0.2299
20244TIP3    H182223   0.330   1.650   3.476 -2.8923 -0.5792  1.5878
20244TIP3    H282224   0.229   1.600   3.375  0.0953 -0.7974 -1.4679
20245TIP3   OH282225   4.243   5.777   4.861 -0.7179  0.3328  0.0840
20245TIP3    H182226   4.294   5.818   4.931 -0.3851 -1.4146  0.9217
20245TIP3    H282227   4.261   5.831   4.783 -0.2365  1.6731  1.0855
20246TIP3   OH282228   5.706   5.602  13.312  0.4082  0.1150  0.0056
20246TIP3    H182229   5.719   5.697  13.322  0.1127  0.3847 -1.8222
20246TIP3    H282230   5.719   5.567  13.400 -1.8061  2.0993  1.2354
20247TIP3   OH282231   6.321   2.555   4.756 -0.4475  0.1022  0.0295
20247TIP3    H182232   6.361   2.530   4.839  1.2539  0.5158 -0.6209
20247TIP3    H282233   6.251   2.491   4.743 -1.6037  0.8085  2.3806
20248TIP3   OH282234   4.542   4.864  14.018 -0.1130  0.0472  0.1695
20248TIP3    H182235   4.599   4.884  14.092 -0.2588  0.1870  0.2442
20248TIP3    H282236   4.495   4.785  14.044  0.5357 -0.4589 -0.1653
20249TIP3   OH282237   5.998   5.670  12.830 -0.2267  0.0891 -0.5084
20249TIP3    H182238   5.951   5.587  12.836  0.7643 -0.4473 -0.0768
20249TIP3    H282239   5.929   5.736  12.820 -1.1006 -0.6221  0.6936
20250TIP3   OH282240   4.635   0.022   1.203 -0.5835 -0.4867  0.0369
20250TIP3    H182241   4.722  -0.016   1.197  0.3594  1.6103 -0.3418
20250TIP3    H282242   4.621   0.038   1.296  0.8595  2.1323 -0.1105
20251TIP3   OH282243   3.020   2.773   0.941 -0.6737  0.3776 -0.0566
20251TIP3    H182244   3.095   2.824   0.909 -2.1650  1.2226 -2.4761
20251TIP3    H282245   2.955   2.840   0.962 -2.2134 -0.3901 -2.0688
20252TIP3   OH282246   1.039   0.920   1.375 -0.3904  0.3423 -0.4143
20252TIP3    H182247   1.076   1.001   1.411  1.8918 -0.8354  0.0829
20252TIP3    H282248   1.000   0.876   1.449 -0.6444  0.4636 -0.4742
20253TIP3   OH282249   5.917   0.133   5.949  0.0365  0.3793 -0.4782
20253TIP3    H182250   5.972   0.056   5.966  2.0867  1.5383 -1.5089
20253TIP3    H282251   5.867   0.145   6.030  1.1632 -0.8467  0.4405
20254TIP3   OH282252   1.214   6.342   4.938 -0.1320  0.8804 -0.0254
20254TIP3    H182253   1.205   6.348   4.843 -1.1339 -1.9259 -0.2009
20254TIP3    H282254   1.145   6.281   4.965  0.2953  1.3897  2.4852
20255TIP3   OH282255   6.134   5.970   0.362 -0.5001  0.0116 -0.0636
20255TIP3    H182256   6.108   5.912   0.290 -2.7390  1.4706 -0.5502
20255TIP3    H282257   6.052   5.991   0.407  0.6240  0.5446  1.8516
20256TIP3   OH282258   4.995   4.912   5.220 -0.1286  0.5255 -1.0221
20256TIP3    H182259   5.051   4.900   5.296 -1.2689 -0.4483 -0.3131
20256TIP3    H282260   5.054   4.900   5.145  0.2559 -2.9239 -0.3540
20257TIP3   OH282261   6.023   3.129   4.251  0.1926 -0.4414 -0.4781
20257TIP3    H182262   5.928   3.119   4.259  0.1742  0.4707  0.7522
20257TIP3    H282263   6.055   3.041   4.235 -0.9517 -0.6067 -2.1592
20258TIP3   OH282264   6.026   3.305  15.634 -0.0596 -0.2434 -0.0497
20258TIP3    H182265   6.004   3.322  15.726  0.4509  0.2634 -0.0156
20258TIP3    H282266   6.064   3.217  15.634 -0.3732 -0.3821  0.1671
20259TIP3   OH282267   0.030   3.750  15.858 -0.1600 -0.4827 -0.0902
20259TIP3    H182268   0.123   3.770  15.858 -0.0755 -0.8646  0.0928
20259TIP3    H282269  -0.012   3.832  15.883  0.1096 -0.2333 -0.4577
20260TIP3   OH282270   3.999   0.153  16.240  0.1214  0.2578 -0.5456
20260TIP3    H182271   4.080   0.114  16.207  0.2715 -0.1270  0.2487
20260TIP3    H282272   4.024   0.239  16.273  0.1277  0.3032 -0.6682
20261TIP3   OH282273   0.903   6.216   2.756  0.0112 -0.3342 -0.2065
20261TIP3    H182274   0.851   6.235   2.678  0.3042 -0.6696 -0.4836
20261TIP3    H282275   0.963   6.147   2.729  0.2839 -0.2784  0.2450
20262TIP3   OH282276   5.717   2.811  11.073  0.1688  0.3245  0.0457
20262TIP3    H182277   5.656   2.851  11.011 -1.2505 -0.0228  1.1450
20262TIP3    H282278   5.800   2.808  11.027 -1.1811 -1.4679 -2.4775
20263TIP3   OH282279   3.408   5.299   1.905  0.2273 -0.3501 -0.0971
20263TIP3    H182280   3.330   5.352   1.920 -0.0141 -0.2906 -1.5212
20263TIP3    H282281   3.391   5.219   1.954 -0.5030 -0.1383  0.0182
20264TIP3   OH282282   0.117   3.329  14.976  0.1169  0.4342 -0.0830
20264TIP3    H182283   0.069   3.267  15.030  0.4378 -0.0091 -0.2995
20264TIP3    H282284   0.124   3.408  15.030 -1.2040  0.6622 -0.2011
20265TIP3   OH282285   1.490   0.277   3.610 -0.0123  0.0936 -0.5699
20265TIP3    H182286   1.435   0.330   3.552  2.3607  1.3322 -1.8553
20265TIP3    H282287   1.453   0.189   3.605 -2.9467  1.1549  0.1436
20266TIP3   OH282288   5.087   0.974  17.010  0.6443  0.9226  0.1103
20266TIP3    H182289   5.010   1.003  16.962 -0.1291 -1.7704 -0.4086
20266TIP3    H282290   5.160   1.023  16.970 -0.2134  0.2050 -2.5653
20267TIP3   OH282291   5.396   1.170  11.807  0.9740  0.2703  0.2774
20267TIP3    H182292   5.490   1.151  11.806  0.7167 -1.1732  0.8558
20267TIP3    H282293   5.354   1.084  11.806 -0.3631  0.8881 -0.4766
20268TIP3   OH282294   2.905   0.621   0.265  0.6032  0.1702 -0.2351
20268TIP3    H182295   2.962   0.659   0.198  2.3816 -2.1837 -0.1965
20268TIP3    H282296   2.935   0.661   0.347  0.2390  1.0459 -0.5127
20269TIP3   OH282297   1.740   3.343   3.869  0.2458 -0.1263 -0.1545
20269TIP3    H182298   1.801   3.275   3.898 -0.2200 -0.1613  0.7893
20269TIP3    H282299   1.653   3.303   3.879  0.0315  0.0590 -1.1053
20270TIP3   OH282300   6.115   2.988   5.514  0.3462  0.0728 -0.8503
20270TIP3    H182301   6.042   3.049   5.518  0.8623  0.8453 -2.1917
20270TIP3    H282302   6.193   3.043   5.521  0.8390 -0.7955  1.2046
20271TIP3   OH282303   2.554   4.815  15.079 -0.3108  0.2241  0.0172
20271TIP3    H182304   2.581   4.723  15.079  1.2886  0.6529  0.8656
20271TIP3    H282305   2.587   4.849  15.162 -1.7474  1.3360  0.1507
20272TIP3   OH282306   5.994   4.924   1.325 -0.1335  0.1220  0.0246
20272TIP3    H182307   6.084   4.955   1.322 -0.5171  1.2214 -1.6835
20272TIP3    H282308   5.991   4.864   1.399  2.4181 -1.2389 -0.8564
20273LIG      O82309   1.941   1.841   5.078  0.1084  0.6771 -0.5295
20273LIG     C182310   1.984   1.817   5.210  0.4601 -0.3910  0.1446
20273LIG     C282311   1.896   1.899   5.303 -0.3756 -0.0843 -1.2212
20273LIG     C382312   1.985   1.669   5.245  0.4492  0.0698  0.0920
20273LIG     H182313   2.089   1.849   5.230 -0.4030  3.9260 -1.1434
20273LIG     H282314   1.921   2.006   5.286 -0.3342 -0.3710 -3.1186
20273LIG     H382315   1.913   1.862   5.407  0.2257  0.1095 -1.2452
20273LIG     H482316   1.787   1.882   5.288 -0.7844  1.0547  0.2098
20273LIG     H582317   2.046   1.618   5.167  0.1739 -0.8721  0.4739
20273LIG     H682318   1.880   1.632   5.248  0.6932 -0.8507 -1.6045
20273LIG     H782319   2.025   1.649   5.346 -2.1015 -1.4430  0.8917
20273LIG     H882320   2.017   1.817   5.024 -1.3862 -0.5242 -2.2129
   6.88065   6.88065  17.03573
